formula,material_id,band_gap,efermi,energy_above_hull,comp_atoms,sorted_keys_comp_atoms,comp_number,new_formula
Na7Al3O8,mp-556168,2.7979000000000003,1.45124136,0.0,"{11: 7, 13: 3, 8: 8}","[8, 11, 13]",88117133,Na7Al3O8
KAlSi3O8,mp-697670,4.924300000000001,0.77630389,0.0,"{19: 1, 13: 1, 14: 3, 8: 8}","[8, 13, 14, 19]",88131143191,K1Al1Si3O8
RbAlSi3O8,mp-1219605,4.9009,5.50703838,0.0,"{37: 1, 13: 1, 14: 3, 8: 8}","[8, 13, 14, 37]",88131143371,Rb1Al1Si3O8
AlTlSi3O8,mp-1228177,4.586,1.27725151,0.0,"{13: 1, 81: 1, 14: 3, 8: 8}","[8, 13, 14, 81]",88131143811,Al1Tl1Si3O8
KAlCo(PO4)2,mp-532810,1.1518000000000002,3.25003052,0.0,"{19: 1, 13: 1, 27: 1, 15: 2, 8: 8}","[8, 13, 15, 19, 27]",88131152191271,K1Al1Co1P2O8
K3Al(PO4)2,mp-1197607,4.5245999999999995,0.37100666,0.0,"{19: 3, 13: 1, 15: 2, 8: 8}","[8, 13, 15, 19]",88131152193,K3Al1P2O8
KAl(SO4)2,mp-7645,5.540900000000001,0.37896162,0.0,"{19: 1, 13: 1, 16: 2, 8: 8}","[8, 13, 16, 19]",88131162191,K1Al1S2O8
RbAl(SO4)2,mp-1209303,5.4928,0.29306667,0.0,"{37: 1, 13: 1, 16: 2, 8: 8}","[8, 13, 16, 37]",88131162371,Rb1Al1S2O8
KAl(MoO4)2,mp-19352,3.8895,-0.43537742,0.0,"{19: 1, 13: 1, 42: 2, 8: 8}","[8, 13, 19, 42]",88131191422,K1Al1Mo2O8
RbAl(MoO4)2,mp-1209248,3.8624,-0.50779813,0.0,"{37: 1, 13: 1, 42: 2, 8: 8}","[8, 13, 37, 42]",88131371422,Rb1Al1Mo2O8
Sr4NbAlO8,mp-558114,2.9538,1.96200005,0.0,"{38: 4, 41: 1, 13: 1, 8: 8}","[8, 13, 38, 41]",88131384411,Sr4Nb1Al1O8
CsAl(MoO4)2,mp-505784,3.8773,-0.56097532,0.0,"{55: 1, 13: 1, 42: 2, 8: 8}","[8, 13, 42, 55]",88131422551,Cs1Al1Mo2O8
AlTl(MoO4)2,mp-18733,3.8702,0.11197659,0.0,"{13: 1, 81: 1, 42: 2, 8: 8}","[8, 13, 42, 81]",88131422811,Al1Tl1Mo2O8
CaAl2(SiO4)2,mp-1227323,4.729699999999999,6.38398734,0.0,"{20: 1, 13: 2, 14: 2, 8: 8}","[8, 13, 14, 20]",88132142201,Ca1Al2Si2O8
SrAl2(SiO4)2,mp-1218484,4.7024,1.24729639,0.0,"{38: 1, 13: 2, 14: 2, 8: 8}","[8, 13, 14, 38]",88132142381,Sr1Al2Si2O8
Al2Si2PbO8,mp-1195073,4.2743,1.85553633,0.0,"{13: 2, 14: 2, 82: 1, 8: 8}","[8, 13, 14, 82]",88132142821,Al2Si2Pb1O8
NdAl3(PbO4)2,mp-21618,2.9856999999999996,2.61913834,0.0,"{60: 1, 13: 3, 82: 2, 8: 8}","[8, 13, 60, 82]",88133601822,Nd1Al3Pb2O8
SmAl3(PbO4)2,mp-21567,2.9907,2.69693073,0.0,"{62: 1, 13: 3, 82: 2, 8: 8}","[8, 13, 62, 82]",88133621822,Sm1Al3Pb2O8
Na5AlP2(O4F)2,mp-555488,4.6654,1.52310905,0.0,"{11: 5, 13: 1, 15: 2, 8: 8, 9: 2}","[8, 9, 11, 13, 15]",8892115131152,Na5Al1P2O8F2
K3Al4P2O8F9,mp-558240,5.456,0.84252131,0.0,"{19: 3, 13: 4, 15: 2, 8: 8, 9: 9}","[8, 9, 13, 15, 19]",8899134152193,K3Al4P2O8F9
Al(PO3)3,mp-1019377,5.8176,-0.2712225,0.0,"{13: 1, 15: 3, 8: 9}","[8, 13, 15]",89131153,Al1P3O9
Al(IO3)3,mp-555903,3.3465999999999996,2.93564919,0.0,"{13: 1, 53: 3, 8: 9}","[8, 13, 53]",89131533,Al1I3O9
Cs2Al2P2O9,mp-560387,4.899699999999999,0.53963719,0.0,"{55: 2, 13: 2, 15: 2, 8: 9}","[8, 13, 15, 55]",89132152552,Cs2Al2P2O9
Ca2Al2Sn2O9,mp-1196891,2.8373,3.44166436,0.0,"{20: 2, 13: 2, 50: 2, 8: 9}","[8, 13, 20, 50]",89132202502,Ca2Al2Sn2O9
Al2Ga2Bi2O9,mp-1214864,2.7318,6.19836264,0.0,"{13: 2, 31: 2, 83: 2, 8: 9}","[8, 13, 31, 83]",89132312832,Al2Ga2Bi2O9
La4Al2O9,mp-781707,4.3005,4.16301919,0.0,"{57: 4, 13: 2, 8: 9}","[8, 13, 57]",89132574,La4Al2O9
Nd4Al2O9,mp-561084,4.1667000000000005,1.81485583,0.0,"{60: 4, 13: 2, 8: 9}","[8, 13, 60]",89132604,Nd4Al2O9
Sm4Al2O9,mp-1208969,4.1441,5.77953998,0.0,"{62: 4, 13: 2, 8: 9}","[8, 13, 62]",89132624,Sm4Al2O9
Al4Bi2O9,mp-23426,2.8001999999999994,4.48473545,0.0,"{13: 4, 83: 2, 8: 9}","[8, 13, 83]",89134832,Al4Bi2O9
K2NaAl3F12,mp-560176,6.8339,-1.59378283,0.0,"{19: 2, 11: 1, 13: 3, 9: 12}","[9, 11, 13, 19]",912111133192,K2Na1Al3F12
Rb2NaAl3F12,mp-542451,7.1302,-1.74568019,0.0,"{37: 2, 11: 1, 13: 3, 9: 12}","[9, 11, 13, 37]",912111133372,Rb2Na1Al3F12
Cs2NaAl3F12,mp-12309,6.9174999999999995,-1.33883745,0.0,"{55: 2, 11: 1, 13: 3, 9: 12}","[9, 11, 13, 55]",912111133552,Cs2Na1Al3F12
Al2Pb3F12,mp-14941,5.1837,1.16084252,0.0,"{13: 2, 82: 3, 9: 12}","[9, 13, 82]",912132823,Al2Pb3F12
Na3CaMg3AlF14,mp-1191931,6.852500000000001,-1.4214398,0.0,"{11: 3, 20: 1, 12: 3, 13: 1, 9: 14}","[9, 11, 12, 13, 20]",914113123131201,Na3Ca1Mg3Al1F14
Na5Al3F14,mp-4752,6.548500000000001,-1.19651299,0.0,"{11: 5, 13: 3, 9: 14}","[9, 11, 13]",914115133,Na5Al3F14
Rb2NaAl6F21,mp-560570,7.004300000000001,-1.72409301,0.0,"{37: 2, 11: 1, 13: 6, 9: 21}","[9, 11, 13, 37]",921111136372,Rb2Na1Al6F21
AlF3,mp-468,7.6012,-1.03805805,0.0,"{13: 1, 9: 3}","[9, 13]",93131,Al1F3
KAlF4,mp-561424,6.9087,-1.90604398,0.0,"{19: 1, 13: 1, 9: 4}","[9, 13, 19]",94131191,K1Al1F4
RbAlF4,mp-13997,6.8327,-1.74928887,0.0,"{37: 1, 13: 1, 9: 4}","[9, 13, 37]",94131371,Rb1Al1F4
CsAlF4,mp-554899,6.977,-1.53515506,0.0,"{55: 1, 13: 1, 9: 4}","[9, 13, 55]",94131551,Cs1Al1F4
AlTlF4,mp-3751,4.433300000000001,0.9424893,0.0,"{13: 1, 81: 1, 9: 4}","[9, 13, 81]",94131811,Al1Tl1F4
K2AlF5,mp-9486,6.3239,-2.45858762,0.0,"{19: 2, 13: 1, 9: 5}","[9, 13, 19]",95131192,K2Al1F5
SrAlF5,mp-1200608,7.1379,-0.79130804,0.0,"{38: 1, 13: 1, 9: 5}","[9, 13, 38]",95131381,Sr1Al1F5
EuAlF5,mp-1202507,0.7191000000000001,5.34803678,0.0,"{63: 1, 13: 1, 9: 5}","[9, 13, 63]",95131631,Eu1Al1F5
AlTl2F5,mp-1539038,4.0476,3.94319267,0.0,"{13: 1, 81: 2, 9: 5}","[9, 13, 81]",95131812,Al1Tl2F5
K2NaAlF6,mp-6586,6.8580000000000005,-1.67955743,0.0,"{19: 2, 11: 1, 13: 1, 9: 6}","[9, 11, 13, 19]",96111131192,K2Na1Al1F6
NaCaAlF6,mp-17944,7.1135,-1.79901491,0.0,"{11: 1, 20: 1, 13: 1, 9: 6}","[9, 11, 13, 20]",96111131201,Na1Ca1Al1F6
Rb2NaAlF6,mp-1079583,6.791,-1.65596866,0.0,"{37: 2, 11: 1, 13: 1, 9: 6}","[9, 11, 13, 37]",96111131372,Rb2Na1Al1F6
NaSrAlF6,mp-14722,6.9765999999999995,-1.38144465,0.0,"{11: 1, 38: 1, 13: 1, 9: 6}","[9, 11, 13, 38]",96111131381,Na1Sr1Al1F6
NaAlCdF6,mp-555048,4.608499999999999,-1.80000698,0.0,"{11: 1, 13: 1, 48: 1, 9: 6}","[9, 11, 13, 48]",96111131481,Na1Al1Cd1F6
Cs2NaAlF6,mp-6528,6.697,-1.33450349,0.0,"{55: 2, 11: 1, 13: 1, 9: 6}","[9, 11, 13, 55]",96111131552,Cs2Na1Al1F6
Na3AlF6,mp-3416,6.7197000000000005,-1.58874473,0.0,"{11: 3, 13: 1, 9: 6}","[9, 11, 13]",96113131,Na3Al1F6
RbMgAlF6,mp-1219581,6.6897,5.09063868,0.0,"{37: 1, 12: 1, 13: 1, 9: 6}","[9, 12, 13, 37]",96121131371,Rb1Mg1Al1F6
CsMgAlF6,mp-1225922,6.8485,-1.1575316,0.0,"{55: 1, 12: 1, 13: 1, 9: 6}","[9, 12, 13, 55]",96121131551,Cs1Mg1Al1F6
KRb2AlF6,mp-1113768,6.4284,-1.97845385,0.0,"{19: 1, 37: 2, 13: 1, 9: 6}","[9, 13, 19, 37]",96131191372,K1Rb2Al1F6
Cs2KAlF6,mp-1113092,6.6738,-1.49916667,0.0,"{55: 2, 19: 1, 13: 1, 9: 6}","[9, 13, 19, 55]",96131191552,Cs2K1Al1F6
K3AlF6,mp-1201513,6.431000000000001,4.30682275,0.0,"{19: 3, 13: 1, 9: 6}","[9, 13, 19]",96131193,K3Al1F6
CsAlZnF6,mp-1213699,5.4077,-0.85324671,0.0,"{55: 1, 13: 1, 30: 1, 9: 6}","[9, 13, 30, 55]",96131301551,Cs1Al1Zn1F6
Rb2AlAgF6,mp-1110614,3.2492,-0.31106955,0.0,"{37: 2, 13: 1, 47: 1, 9: 6}","[9, 13, 37, 47]",96131372471,Rb2Al1Ag1F6
Rb2AlTlF6,mp-1113654,5.3013,-0.4546172,0.0,"{37: 2, 13: 1, 81: 1, 9: 6}","[9, 13, 37, 81]",96131372811,Rb2Al1Tl1F6
Rb3AlF6,mp-1113633,6.1238,-1.97393393,0.0,"{37: 3, 13: 1, 9: 6}","[9, 13, 37]",96131373,Rb3Al1F6
Cs2AlAgF6,mp-1113614,3.4974000000000003,-0.17743407,0.0,"{55: 2, 13: 1, 47: 1, 9: 6}","[9, 13, 47, 55]",96131471552,Cs2Al1Ag1F6
Cs2AlTlF6,mp-1111952,5.6085,-0.21492694,0.0,"{55: 2, 13: 1, 81: 1, 9: 6}","[9, 13, 55, 81]",96131552811,Cs2Al1Tl1F6
Cs3AlF6,mp-1113118,6.2623,-1.31666667,0.0,"{55: 3, 13: 1, 9: 6}","[9, 13, 55]",96131553,Cs3Al1F6
Na2MgAlF7,mp-6319,6.656,-1.37009696,0.0,"{11: 2, 12: 1, 13: 1, 9: 7}","[9, 11, 12, 13]",97112121131,Na2Mg1Al1F7
Ca2AlPbF9,mp-1193801,5.777500000000001,0.12656903,0.0,"{20: 2, 13: 1, 82: 1, 9: 9}","[9, 13, 20, 82]",99131202821,Ca2Al1Pb1F9
KCaAl2F9,mp-557743,7.1437,-1.55715586,0.0,"{19: 1, 20: 1, 13: 2, 9: 9}","[9, 13, 19, 20]",99132191201,K1Ca1Al2F9