formula,material_id,band_gap,efermi,energy_above_hull,comp_atoms,sorted_keys_comp_atoms,comp_number,new_formula
K3AlSe3,mp-18217,2.4697,0.4700907,0.0,"{19: 3, 13: 1, 34: 3}","[13, 19, 34]",131193343,K3Al1Se3
Cs6K3AlSb4,mp-17120,0.6537000000000002,2.36812972,0.0,"{55: 6, 19: 3, 13: 1, 51: 4}","[13, 19, 51, 55]",131193514556,Cs6K3Al1Sb4
K3AlTe3,mp-18378,2.0332,1.28009321,0.0,"{19: 3, 13: 1, 52: 3}","[13, 19, 52]",131193523,K3Al1Te3
Ca11AlSb9,mp-1214215,1.1765999999999996,5.54690766,0.0,"{20: 11, 13: 1, 51: 9}","[13, 20, 51]",1312011519,Ca11Al1Sb9
Ca14AlSb11,mp-567799,0.5897000000000006,4.92949548,0.0,"{20: 14, 13: 1, 51: 11}","[13, 20, 51]",13120145111,Ca14Al1Sb11
CaAlPd,mp-571039,0.0,4.73116721,0.0,"{20: 1, 13: 1, 46: 1}","[13, 20, 46]",131201461,Ca1Al1Pd1
CaAlPt,mp-1102631,0.0,5.44459777,0.0,"{20: 1, 13: 1, 78: 1}","[13, 20, 78]",131201781,Ca1Al1Pt1
CaAlAu,mp-568424,0.0,4.99413808,0.0,"{20: 1, 13: 1, 79: 1}","[13, 20, 79]",131201791,Ca1Al1Au1
Ca2AlZn16,mp-1227383,0.0,3.17729709,0.0,"{20: 2, 13: 1, 30: 16}","[13, 20, 30]",1312023016,Ca2Al1Zn16
Ca2AlPd2,mp-1078304,0.0,4.27474993,0.0,"{20: 2, 13: 1, 46: 2}","[13, 20, 46]",131202462,Ca2Al1Pd2
Ca2AlPt2,mp-1078362,0.0,5.00351242,0.0,"{20: 2, 13: 1, 78: 2}","[13, 20, 78]",131202782,Ca2Al1Pt2
Ca3AlAs3,mp-17186,0.7300999999999997,3.71144746,0.0,"{20: 3, 13: 1, 33: 3}","[13, 20, 33]",131203333,Ca3Al1As3
Ca3AlSb3,mp-18300,0.25340000000000007,4.72748469,0.0,"{20: 3, 13: 1, 51: 3}","[13, 20, 51]",131203513,Ca3Al1Sb3
ScAl,mp-331,0.0,5.83645083,0.0,"{21: 1, 13: 1}","[13, 21]",131211,Sc1Al1
ScAlCo2,mp-862602,0.0,6.25136976,0.0,"{21: 1, 13: 1, 27: 2}","[13, 21, 27]",131211272,Sc1Al1Co2
ScAlGe,mp-1077599,0.0,6.71006814,0.0,"{21: 1, 13: 1, 32: 1}","[13, 21, 32]",131211321,Sc1Al1Ge1
ScAlRh2,mp-867922,0.0,7.16935908,0.0,"{21: 1, 13: 1, 45: 2}","[13, 21, 45]",131211452,Sc1Al1Rh2
ScAlPd2,mp-16524,0.0,6.22087306,0.0,"{21: 1, 13: 1, 46: 2}","[13, 21, 46]",131211462,Sc1Al1Pd2
ScAlAg2,mp-31169,0.0,4.89151498,0.0,"{21: 1, 13: 1, 47: 2}","[13, 21, 47]",131211472,Sc1Al1Ag2
ScAlIr2,mp-861507,0.0,8.42233133,0.0,"{21: 1, 13: 1, 77: 2}","[13, 21, 77]",131211772,Sc1Al1Ir2
ScAlAu,mp-1105210,0.0,5.99086194,0.0,"{21: 1, 13: 1, 79: 1}","[13, 21, 79]",131211791,Sc1Al1Au1
ScAlAu2,mp-10873,0.0,6.15770959,0.0,"{21: 1, 13: 1, 79: 2}","[13, 21, 79]",131211792,Sc1Al1Au2
Sc2Al,mp-11220,0.0,4.79259376,0.0,"{21: 2, 13: 1}","[13, 21]",131212,Sc2Al1
Sc2AlZn,mp-862548,0.0,4.5808757,0.0,"{21: 2, 13: 1, 30: 1}","[13, 21, 30]",131212301,Sc2Al1Zn1
Sc2AlTc,mp-862543,0.0,5.51222613,0.0,"{21: 2, 13: 1, 43: 1}","[13, 21, 43]",131212431,Sc2Al1Tc1
Sc2AlAg,mp-972907,0.0,4.78606661,0.0,"{21: 2, 13: 1, 47: 1}","[13, 21, 47]",131212471,Sc2Al1Ag1
Sc2AlOs,mp-862486,0.0,6.18548824,0.0,"{21: 2, 13: 1, 76: 1}","[13, 21, 76]",131212761,Sc2Al1Os1
Sc3Al,mp-862259,0.0,4.57138237,0.0,"{21: 3, 13: 1}","[13, 21]",131213,Sc3Al1
TiAl,mp-1953,0.0,6.80837283,0.0,"{22: 1, 13: 1}","[13, 22]",131221,Ti1Al1
TiMn2Al,mp-865531,0.0,6.89372406,0.0,"{22: 1, 25: 2, 13: 1}","[13, 22, 25]",131221252,Ti1Mn2Al1
TiAlCo2,mp-5407,0.0,7.10381391,0.0,"{22: 1, 13: 1, 27: 2}","[13, 22, 27]",131221272,Ti1Al1Co2
TiAlRu2,mp-866155,0.0,7.9479865,0.0,"{22: 1, 13: 1, 44: 2}","[13, 22, 44]",131221442,Ti1Al1Ru2
TiAlRh2,mp-866153,0.0,8.01301471,0.0,"{22: 1, 13: 1, 45: 2}","[13, 22, 45]",131221452,Ti1Al1Rh2
TiAlPd2,mp-865441,0.0,6.71196101,0.0,"{22: 1, 13: 1, 46: 2}","[13, 22, 46]",131221462,Ti1Al1Pd2
TiAlOs2,mp-865442,0.0,8.06099635,0.0,"{22: 1, 13: 1, 76: 2}","[13, 22, 76]",131221762,Ti1Al1Os2
TiAlPt,mp-570713,0.0,7.92171433,0.0,"{22: 1, 13: 1, 78: 1}","[13, 22, 78]",131221781,Ti1Al1Pt1
TiAlAu,mp-16481,0.0,7.07426997,0.0,"{22: 1, 13: 1, 79: 1}","[13, 22, 79]",131221791,Ti1Al1Au1
Ti2AlGe3,mp-1217076,0.0,7.88876175,0.0,"{22: 2, 13: 1, 32: 3}","[13, 22, 32]",131222323,Ti2Al1Ge3
Ti2NbAl,mp-1217093,0.0,6.0483716,0.0,"{22: 2, 41: 1, 13: 1}","[13, 22, 41]",131222411,Ti2Nb1Al1
Ti2AlMo,mp-861627,0.0,7.00879401,0.0,"{22: 2, 13: 1, 42: 1}","[13, 22, 42]",131222421,Ti2Al1Mo1
Ti2AlTc,mp-861637,0.0,7.38665,0.0,"{22: 2, 13: 1, 43: 1}","[13, 22, 43]",131222431,Ti2Al1Tc1
Ti2AlW,mp-1187418,0.0,6.64953303,0.0,"{22: 2, 13: 1, 74: 1}","[13, 22, 74]",131222741,Ti2Al1W1
Ti2AlRe,mp-861640,0.0,7.17269596,0.0,"{22: 2, 13: 1, 75: 1}","[13, 22, 75]",131222751,Ti2Al1Re1
Ti3Al,mp-1823,0.0,6.26997544,0.0,"{22: 3, 13: 1}","[13, 22]",131223,Ti3Al1
Ti4AlGe7,mp-1217144,0.0,7.74704295,0.0,"{22: 4, 13: 1, 32: 7}","[13, 22, 32]",131224327,Ti4Al1Ge7
MnAl12,mp-1104165,0.0,7.96684698,0.0,"{25: 1, 13: 12}","[13, 25]",1312251,Mn1Al12
AlV,mp-1228001,0.0,7.50600369,0.0,"{13: 1, 23: 1}","[13, 23]",131231,Al1V1
Mn2AlV,mp-10895,0.0,7.08921185,0.0,"{25: 2, 13: 1, 23: 1}","[13, 23, 25]",131231252,Mn2Al1V1
AlVCo2,mp-4955,0.0,7.01778873,0.0,"{13: 1, 23: 1, 27: 2}","[13, 23, 27]",131231272,Al1V1Co2
AlVRu2,mp-866001,0.0,8.33200241,0.0,"{13: 1, 23: 1, 44: 2}","[13, 23, 44]",131231442,Al1V1Ru2
AlVOs2,mp-862700,0.0,8.67740035,0.0,"{13: 1, 23: 1, 76: 2}","[13, 23, 76]",131231762,Al1V1Os2
AlV3,mp-1387,0.0,6.47361175,0.0,"{13: 1, 23: 3}","[13, 23]",131233,Al1V3
AlV6Ga,mp-1228807,0.0,6.03197746,0.0,"{13: 1, 23: 6, 31: 1}","[13, 23, 31]",131236311,Al1V6Ga1
AlV6Ge,mp-1228829,0.0,6.70862789,0.0,"{13: 1, 23: 6, 32: 1}","[13, 23, 32]",131236321,Al1V6Ge1
AlV9Au2,mp-1228971,0.0,6.35463349,0.0,"{13: 1, 23: 9, 79: 2}","[13, 23, 79]",131239792,Al1V9Au2
Mn2AlCr,mp-864988,0.0,7.46499702,0.0,"{25: 2, 13: 1, 24: 1}","[13, 24, 25]",131241252,Mn2Al1Cr1
AlCrRu2,mp-862781,0.0,8.17224128,0.0,"{13: 1, 24: 1, 44: 2}","[13, 24, 44]",131241442,Al1Cr1Ru2
Al12Tc,mp-16719,0.0,8.20056414,0.0,"{13: 12, 43: 1}","[13, 43]",1312431,Al12Tc1
Ce3(Al3Ru)4,mp-31079,0.0,8.00961396,0.0,"{58: 3, 13: 12, 44: 4}","[13, 44, 58]",1312444583,Ce3Al12Ru4
Pr3(Al3Ru)4,mp-1209381,0.0,6.91889584,0.0,"{59: 3, 13: 12, 44: 4}","[13, 44, 59]",1312444593,Pr3Al12Ru4
Nd3(Al3Ru)4,mp-1209944,0.0,6.88578559,0.0,"{60: 3, 13: 12, 44: 4}","[13, 44, 60]",1312444603,Nd3Al12Ru4
Sm3(Al3Ru)4,mp-1208914,0.0,6.90869195,0.0,"{62: 3, 13: 12, 44: 4}","[13, 44, 62]",1312444623,Sm3Al12Ru4
Tb3(Al3Ru)4,mp-1195573,0.0,6.85324213,0.0,"{65: 3, 13: 12, 44: 4}","[13, 44, 65]",1312444653,Tb3Al12Ru4
Dy3(Al3Ru)4,mp-1195540,0.0,6.92667964,0.0,"{66: 3, 13: 12, 44: 4}","[13, 44, 66]",1312444663,Dy3Al12Ru4
Ho3(Al3Ru)4,mp-1212260,0.0,6.83819034,0.0,"{67: 3, 13: 12, 44: 4}","[13, 44, 67]",1312444673,Ho3Al12Ru4
Er3(Al3Ru)4,mp-1212925,0.0,6.88681151,0.0,"{68: 3, 13: 12, 44: 4}","[13, 44, 68]",1312444683,Er3Al12Ru4
Tm3(Al3Ru)4,mp-1208023,0.0,6.86749024,0.0,"{69: 3, 13: 12, 44: 4}","[13, 44, 69]",1312444693,Tm3Al12Ru4
MnAl,mp-771,0.0,7.62008316,0.0,"{25: 1, 13: 1}","[13, 25]",131251,Mn1Al1
MnAlCo2,mp-3623,0.0,6.61087155,0.0,"{25: 1, 13: 1, 27: 2}","[13, 25, 27]",131251272,Mn1Al1Co2
MnAlGe,mp-20757,0.0,7.30454664,0.0,"{25: 1, 13: 1, 32: 1}","[13, 25, 32]",131251321,Mn1Al1Ge1
MnAlRu2,mp-864980,0.0,7.83489379,0.0,"{25: 1, 13: 1, 44: 2}","[13, 25, 44]",131251442,Mn1Al1Ru2
MnAlRh2,mp-10894,0.0,6.91259405,0.0,"{25: 1, 13: 1, 45: 2}","[13, 25, 45]",131251452,Mn1Al1Rh2
HfMnAl,mp-1224495,0.0,6.34057376,0.0,"{72: 1, 25: 1, 13: 1}","[13, 25, 72]",131251721,Hf1Mn1Al1
MnAlOs2,mp-864951,0.0,8.22454002,0.0,"{25: 1, 13: 1, 76: 2}","[13, 25, 76]",131251762,Mn1Al1Os2
MnAlIr2,mp-864950,0.0,8.69897736,0.0,"{25: 1, 13: 1, 77: 2}","[13, 25, 77]",131251772,Mn1Al1Ir2
MnAlAu2,mp-5491,0.0,6.50065343,0.0,"{25: 1, 13: 1, 79: 2}","[13, 25, 79]",131251792,Mn1Al1Au2
Mn2NbAl,mp-865011,0.0,6.63607074,0.0,"{25: 2, 41: 1, 13: 1}","[13, 25, 41]",131252411,Mn2Nb1Al1
TaMn2Al,mp-867120,0.0,6.72691604,0.0,"{73: 1, 25: 2, 13: 1}","[13, 25, 73]",131252731,Ta1Mn2Al1
Mn2AlW,mp-864990,0.0,7.46125989,0.0,"{25: 2, 13: 1, 74: 1}","[13, 25, 74]",131252741,Mn2Al1W1
Mn2AlRe,mp-864989,0.0,8.03516686,0.0,"{25: 2, 13: 1, 75: 1}","[13, 25, 75]",131252751,Mn2Al1Re1
PaMn2Al,mp-861991,0.0,9.60814862,0.0,"{91: 1, 25: 2, 13: 1}","[13, 25, 91]",131252911,Pa1Mn2Al1
Ce3(Al3Os)4,mp-1213926,0.0,8.05789209,0.0,"{58: 3, 13: 12, 76: 4}","[13, 58, 76]",1312583764,Ce3Al12Os4
Zr3Mn8Al,mp-1215704,0.0,5.90656215,0.0,"{40: 3, 25: 8, 13: 1}","[13, 25, 40]",131258403,Zr3Mn8Al1
Mn8Nb3Al,mp-1221748,0.0,6.42434822,0.0,"{25: 8, 41: 3, 13: 1}","[13, 25, 41]",131258413,Mn8Nb3Al1
Ta3Mn8Al,mp-1218087,0.0,6.6461131,0.0,"{73: 3, 25: 8, 13: 1}","[13, 25, 73]",131258733,Ta3Mn8Al1
Pr3(Al3Os)4,mp-1209374,0.0,6.94499108,0.0,"{59: 3, 13: 12, 76: 4}","[13, 59, 76]",1312593764,Pr3Al12Os4
Nd3(Al3Os)4,mp-1209972,0.0,6.86212516,0.0,"{60: 3, 13: 12, 76: 4}","[13, 60, 76]",1312603764,Nd3Al12Os4
Sm3(Al3Os)4,mp-1208935,0.0,6.85277579,0.0,"{62: 3, 13: 12, 76: 4}","[13, 62, 76]",1312623764,Sm3Al12Os4
Tb3(Al3Os)4,mp-1208548,0.0,6.9355315,0.0,"{65: 3, 13: 12, 76: 4}","[13, 65, 76]",1312653764,Tb3Al12Os4
Dy3(Al3Os)4,mp-1213200,0.0,6.9257532,0.0,"{66: 3, 13: 12, 76: 4}","[13, 66, 76]",1312663764,Dy3Al12Os4
Ho3(Al3Os)4,mp-1212256,0.0,6.89428912,0.0,"{67: 3, 13: 12, 76: 4}","[13, 67, 76]",1312673764,Ho3Al12Os4
Er3(Al3Os)4,mp-1212920,0.0,6.92661746,0.0,"{68: 3, 13: 12, 76: 4}","[13, 68, 76]",1312683764,Er3Al12Os4
Tm3(Al3Os)4,mp-1207816,0.0,6.91857794,0.0,"{69: 3, 13: 12, 76: 4}","[13, 69, 76]",1312693764,Tm3Al12Os4
AlCo,mp-284,0.0,8.41814647,0.0,"{13: 1, 27: 1}","[13, 27]",131271,Al1Co1
CeAlCo,mp-571542,0.0,7.6247494,0.0,"{58: 1, 13: 1, 27: 1}","[13, 27, 58]",131271581,Ce1Al1Co1
ThAlCo,mp-1206017,0.0,7.50895694,0.0,"{90: 1, 13: 1, 27: 1}","[13, 27, 90]",131271901,Th1Al1Co1
AlGaCo2,mp-1228893,0.0,7.08782652,0.0,"{13: 1, 31: 1, 27: 2}","[13, 27, 31]",131272311,Al1Ga1Co2
ZrAlCo2,mp-3909,0.0,6.03449555,0.0,"{40: 1, 13: 1, 27: 2}","[13, 27, 40]",131272401,Zr1Al1Co2
NbAlCo2,mp-5149,0.0,6.66127638,0.0,"{41: 1, 13: 1, 27: 2}","[13, 27, 41]",131272411,Nb1Al1Co2
Gd2AlCo2,mp-637222,0.0,4.54648699,0.0,"{64: 2, 13: 1, 27: 2}","[13, 27, 64]",131272642,Gd2Al1Co2
Tb2AlCo2,mp-13432,0.0,4.76581855,0.0,"{65: 2, 13: 1, 27: 2}","[13, 27, 65]",131272652,Tb2Al1Co2
Dy2AlCo2,mp-13431,0.0,4.73077246,0.0,"{66: 2, 13: 1, 27: 2}","[13, 27, 66]",131272662,Dy2Al1Co2
HfAlCo2,mp-5221,0.0,6.3576831,0.0,"{72: 1, 13: 1, 27: 2}","[13, 27, 72]",131272721,Hf1Al1Co2
TaAlCo2,mp-3340,0.0,6.98593221,0.0,"{73: 1, 13: 1, 27: 2}","[13, 27, 73]",131272731,Ta1Al1Co2
Lu2AlCo3,mp-1222339,0.0,4.94134086,0.0,"{71: 2, 13: 1, 27: 3}","[13, 27, 71]",131273712,Lu2Al1Co3
Al12Re,mp-1648,0.0,8.10268764,0.0,"{13: 12, 75: 1}","[13, 75]",1312751,Al12Re1
GdAlZnGe2,mp-1224639,0.0,4.8312326,0.0,"{64: 1, 13: 1, 30: 1, 32: 2}","[13, 30, 32, 64]",131301322641,Gd1Al1Zn1Ge2
NbAlZn,mp-1220408,0.0,5.73610174,0.0,"{41: 1, 13: 1, 30: 1}","[13, 30, 41]",131301411,Nb1Al1Zn1
AlZnRh2,mp-866033,0.0,6.72949472,0.0,"{13: 1, 30: 1, 45: 2}","[13, 30, 45]",131301452,Al1Zn1Rh2
LaAlZn,mp-1222935,0.0,6.50104237,0.0,"{57: 1, 13: 1, 30: 1}","[13, 30, 57]",131301571,La1Al1Zn1
PrAlZn,mp-1219678,0.0,4.34045297,0.0,"{59: 1, 13: 1, 30: 1}","[13, 30, 59]",131301591,Pr1Al1Zn1
Pm2AlZn,mp-1186441,0.0,3.70602024,0.0,"{61: 2, 13: 1, 30: 1}","[13, 30, 61]",131301612,Pm2Al1Zn1
SmAlZn,mp-1219110,0.0,4.22344913,0.0,"{62: 1, 13: 1, 30: 1}","[13, 30, 62]",131301621,Sm1Al1Zn1
DyAlZn,mp-1018674,0.0,4.06466341,0.0,"{66: 1, 13: 1, 30: 1}","[13, 30, 66]",131301661,Dy1Al1Zn1
ErAlZn,mp-1072798,0.0,4.17445821,0.0,"{68: 1, 13: 1, 30: 1}","[13, 30, 68]",131301681,Er1Al1Zn1
HfAlZn,mp-1224321,0.0,5.64743648,0.0,"{72: 1, 13: 1, 30: 1}","[13, 30, 72]",131301721,Hf1Al1Zn1
TaAlZn,mp-1217995,0.0,6.16004927,0.0,"{73: 1, 13: 1, 30: 1}","[13, 30, 73]",131301731,Ta1Al1Zn1
AlZnIr2,mp-862705,0.0,8.49443068,0.0,"{13: 1, 30: 1, 77: 2}","[13, 30, 77]",131301772,Al1Zn1Ir2
AlH3,mp-23933,2.1976999999999998,1.01155368,0.0,"{13: 1, 1: 3}","[1, 13]",13131,Al1H3
AlGaAs2,mp-1228891,0.7004999999999999,3.24524361,0.0,"{13: 1, 31: 1, 33: 2}","[13, 31, 33]",131311332,Al1Ga1As2
SrAlGa,mp-1218356,0.0,3.23078174,0.0,"{38: 1, 13: 1, 31: 1}","[13, 31, 38]",131311381,Sr1Al1Ga1
Pm2AlGa,mp-1186435,0.0,4.00778483,0.0,"{61: 2, 13: 1, 31: 1}","[13, 31, 61]",131311612,Pm2Al1Ga1
TmAlGa,mp-1216531,0.0,5.19296307,0.0,"{69: 1, 13: 1, 31: 1}","[13, 31, 69]",131311691,Tm1Al1Ga1
SrAlGe,mp-13311,0.0,4.20906862,0.0,"{38: 1, 13: 1, 32: 1}","[13, 32, 38]",131321381,Sr1Al1Ge1
AlGeMo,mp-1228900,0.0,8.46646334,0.0,"{13: 1, 32: 1, 42: 1}","[13, 32, 42]",131321421,Al1Ge1Mo1
AlGeRu2,mp-867904,0.0,8.20299703,0.0,"{13: 1, 32: 1, 44: 2}","[13, 32, 44]",131321442,Al1Ge1Ru2
LaAlGe,mp-11511,0.0,7.67717544,0.0,"{57: 1, 13: 1, 32: 1}","[13, 32, 57]",131321571,La1Al1Ge1
La2AlGe,mp-1223252,0.0,7.2120526,0.0,"{57: 2, 13: 1, 32: 1}","[13, 32, 57]",131321572,La2Al1Ge1
CeAlGe,mp-1206928,0.0,6.57063603,0.0,"{58: 1, 13: 1, 32: 1}","[13, 32, 58]",131321581,Ce1Al1Ge1
PrAlGe,mp-10450,0.0,5.80549886,0.0,"{59: 1, 13: 1, 32: 1}","[13, 32, 59]",131321591,Pr1Al1Ge1
NdAlGe,mp-1206852,0.21060000000000034,5.12215448,0.0,"{60: 1, 13: 1, 32: 1}","[13, 32, 60]",131321601,Nd1Al1Ge1
SmAlGe,mp-3077,0.0,5.76362689,0.0,"{62: 1, 13: 1, 32: 1}","[13, 32, 62]",131321621,Sm1Al1Ge1
EuAlGe,mp-1206175,0.0,4.33903191,0.0,"{63: 1, 13: 1, 32: 1}","[13, 32, 63]",131321631,Eu1Al1Ge1
GdAlGe,mp-1077056,0.0,5.77226502,0.0,"{64: 1, 13: 1, 32: 1}","[13, 32, 64]",131321641,Gd1Al1Ge1
TbAlGe,mp-1206233,0.0,5.89645919,0.0,"{65: 1, 13: 1, 32: 1}","[13, 32, 65]",131321651,Tb1Al1Ge1
DyAlGe,mp-1076977,0.0,5.92476744,0.0,"{66: 1, 13: 1, 32: 1}","[13, 32, 66]",131321661,Dy1Al1Ge1
HoAlGe,mp-1077785,0.0,5.87111038,0.0,"{67: 1, 13: 1, 32: 1}","[13, 32, 67]",131321671,Ho1Al1Ge1
ErAlGe,mp-1024985,0.0,5.96420077,0.0,"{68: 1, 13: 1, 32: 1}","[13, 32, 68]",131321681,Er1Al1Ge1
TmAlGe,mp-1072024,0.0,5.83593681,0.0,"{69: 1, 13: 1, 32: 1}","[13, 32, 69]",131321691,Tm1Al1Ge1
LuAlGe,mp-1025105,0.0,6.01221012,0.0,"{71: 1, 13: 1, 32: 1}","[13, 32, 71]",131321711,Lu1Al1Ge1
AlReGe,mp-1228817,0.11870000000000047,8.83008664,0.0,"{13: 1, 75: 1, 32: 1}","[13, 32, 75]",131321751,Al1Re1Ge1
Ce2AlGe6,mp-1105912,0.0,7.25374353,0.0,"{58: 2, 13: 1, 32: 6}","[13, 32, 58]",131326582,Ce2Al1Ge6
Gd2AlGe6,mp-1190055,0.0,5.35401285,0.0,"{64: 2, 13: 1, 32: 6}","[13, 32, 64]",131326642,Gd2Al1Ge6
AlAs,mp-2172,1.5036999999999998,3.58128419,0.0,"{13: 1, 33: 1}","[13, 33]",131331,Al1As1
AlAsPt5,mp-1025306,0.0,7.68686205,0.0,"{13: 1, 33: 1, 78: 5}","[13, 33, 78]",131331785,Al1As1Pt5
Cs3AlAs2,mp-582723,0.7389000000000001,1.99005803,0.0,"{55: 3, 13: 1, 33: 2}","[13, 33, 55]",131332553,Cs3Al1As2
Sr3AlAs3,mp-1192533,0.9824000000000002,2.67577861,0.0,"{38: 3, 13: 1, 33: 3}","[13, 33, 38]",131333383,Sr3Al1As3
AlAgSe2,mp-14091,1.1351999999999998,2.18218391,0.0,"{13: 1, 47: 1, 34: 2}","[13, 34, 47]",131342471,Al1Ag1Se2
AlTlSe2,mp-863762,1.7889999999999997,2.67023972,0.0,"{13: 1, 81: 1, 34: 2}","[13, 34, 81]",131342811,Al1Tl1Se2
AlInSe3,mp-862787,1.6095999999999995,2.55428763,0.0,"{13: 1, 49: 1, 34: 3}","[13, 34, 49]",131343491,Al1In1Se3
Al13Ru4,mp-17880,0.0,8.04999203,0.0,"{13: 13, 44: 4}","[13, 44]",1313444,Al13Ru4
AlAgSnSe4,mp-1228963,1.1072000000000002,2.05262524,0.0,"{13: 1, 47: 1, 50: 1, 34: 4}","[13, 34, 47, 50]",131344471501,Al1Ag1Sn1Se4
Al(Ag3Se2)3,mp-1214959,0.0,2.21505252,0.0,"{13: 1, 47: 9, 34: 6}","[13, 34, 47]",131346479,Al1Ag9Se6
AlBr3,mp-23288,4.0992,-1.98872775,0.0,"{13: 1, 35: 3}","[13, 35]",131353,Al1Br3
RbAlBr4,mp-1209467,4.0935,2.57207017,0.0,"{37: 1, 13: 1, 35: 4}","[13, 35, 37]",131354371,Rb1Al1Br4
AlInBr4,mp-1214853,3.5627,3.17965656,0.0,"{13: 1, 49: 1, 35: 4}","[13, 35, 49]",131354491,Al1In1Br4
CsAlBr4,mp-29103,4.2876,-1.4996119,0.0,"{55: 1, 13: 1, 35: 4}","[13, 35, 55]",131354551,Cs1Al1Br4
AlTlBr4,mp-567878,4.0998,-0.96628492,0.0,"{13: 1, 81: 1, 35: 4}","[13, 35, 81]",131354811,Al1Tl1Br4
NbAlBr8,mp-1105368,1.5329,-1.31661452,0.0,"{41: 1, 13: 1, 35: 8}","[13, 35, 41]",131358411,Nb1Al1Br8
Al13Os4,mp-567929,0.0,8.17096161,0.0,"{13: 13, 76: 4}","[13, 76]",1313764,Al13Os4
Rb6AlSb3,mp-9698,0.2825,2.00238664,0.0,"{37: 6, 13: 1, 51: 3}","[13, 37, 51]",131376513,Rb6Al1Sb3
Sr3AlSb3,mp-17667,0.5371000000000006,3.6357493,0.0,"{38: 3, 13: 1, 51: 3}","[13, 38, 51]",131383513,Sr3Al1Sb3
ZrAlRu2,mp-977436,0.0,7.13371131,0.0,"{40: 1, 13: 1, 44: 2}","[13, 40, 44]",131401442,Zr1Al1Ru2
ZrAlRh2,mp-977435,0.0,7.04085721,0.0,"{40: 1, 13: 1, 45: 2}","[13, 40, 45]",131401452,Zr1Al1Rh2
ZrAlPd2,mp-541047,0.0,5.87335501,0.0,"{40: 1, 13: 1, 46: 2}","[13, 40, 46]",131401462,Zr1Al1Pd2
ZrAlPt,mp-1080760,0.0,6.66110159,0.0,"{40: 1, 13: 1, 78: 1}","[13, 40, 78]",131401781,Zr1Al1Pt1
Zr3Al,mp-1471,0.0,5.23592982,0.0,"{40: 3, 13: 1}","[13, 40]",131403,Zr3Al1
Zr5AlSn3,mp-510321,0.0,6.62438247,0.0,"{40: 5, 13: 1, 50: 3}","[13, 40, 50]",131405503,Zr5Al1Sn3
Zr5AlSb3,mp-1106245,0.0,7.28575718,0.0,"{40: 5, 13: 1, 51: 3}","[13, 40, 51]",131405513,Zr5Al1Sb3
Zr5AlPb3,mp-1106219,0.0,6.48259138,0.0,"{40: 5, 13: 1, 82: 3}","[13, 40, 82]",131405823,Zr5Al1Pb3
NbAlRu2,mp-11537,0.0,7.80245977,0.0,"{41: 1, 13: 1, 44: 2}","[13, 41, 44]",131411442,Nb1Al1Ru2
NbAlOs2,mp-865278,0.0,7.98394687,0.0,"{41: 1, 13: 1, 76: 2}","[13, 41, 76]",131411762,Nb1Al1Os2
Nb2Al,mp-18427,0.0,5.91002105,0.0,"{41: 2, 13: 1}","[13, 41]",131412,Nb2Al1
Ca13Al14,mp-1193055,0.0,3.99140257,0.0,"{20: 13, 13: 14}","[13, 20]",13142013,Ca13Al14
HfAlMo,mp-1224402,0.0,6.72356222,0.0,"{72: 1, 13: 1, 42: 1}","[13, 42, 72]",131421721,Hf1Al1Mo1
AlMo3,mp-259,0.0,8.18386744,0.0,"{13: 1, 42: 3}","[13, 42]",131423,Al1Mo3
AlTc2,mp-1018166,0.0,9.15432907,0.0,"{13: 1, 43: 2}","[13, 43]",131432,Al1Tc2
PaAlTc2,mp-865148,0.0,9.96790757,0.0,"{91: 1, 13: 1, 43: 2}","[13, 43, 91]",131432911,Pa1Al1Tc2
AlRu,mp-542569,0.0,9.20960075,0.0,"{13: 1, 44: 1}","[13, 44]",131441,Al1Ru1
CeAlRu,mp-604008,0.0,8.18224346,0.0,"{58: 1, 13: 1, 44: 1}","[13, 44, 58]",131441581,Ce1Al1Ru1
Ce2AlRu,mp-1190720,0.0,8.21365231,0.0,"{58: 2, 13: 1, 44: 1}","[13, 44, 58]",131441582,Ce2Al1Ru1
Ce2AlRu2,mp-1078316,0.0,7.95332696,0.0,"{58: 2, 13: 1, 44: 2}","[13, 44, 58]",131442582,Ce2Al1Ru2
HfAlRu2,mp-864909,0.0,7.41306141,0.0,"{72: 1, 13: 1, 44: 2}","[13, 44, 72]",131442721,Hf1Al1Ru2
TaAlRu2,mp-862446,0.0,8.09833458,0.0,"{73: 1, 13: 1, 44: 2}","[13, 44, 73]",131442731,Ta1Al1Ru2
PaAlRu2,mp-865149,0.0,9.88019305,0.0,"{91: 1, 13: 1, 44: 2}","[13, 44, 91]",131442911,Pa1Al1Ru2
AlRh,mp-364,0.0,9.12318297,0.0,"{13: 1, 45: 1}","[13, 45]",131451,Al1Rh1
LaAlRh,mp-1211543,0.0,7.9932278,0.0,"{57: 1, 13: 1, 45: 1}","[13, 45, 57]",131451571,La1Al1Rh1
CeAlRh,mp-3344,0.0,7.80584293,0.0,"{58: 1, 13: 1, 45: 1}","[13, 45, 58]",131451581,Ce1Al1Rh1
PrAlRh,mp-1209554,0.0,5.58107059,0.0,"{59: 1, 13: 1, 45: 1}","[13, 45, 59]",131451591,Pr1Al1Rh1
NdAlRh,mp-1209843,0.0,5.50570184,0.0,"{60: 1, 13: 1, 45: 1}","[13, 45, 60]",131451601,Nd1Al1Rh1
GdAlRh,mp-1212705,0.0,5.41523528,0.0,"{64: 1, 13: 1, 45: 1}","[13, 45, 64]",131451641,Gd1Al1Rh1
HoAlRh,mp-1212088,0.0,5.44996385,0.0,"{67: 1, 13: 1, 45: 1}","[13, 45, 67]",131451671,Ho1Al1Rh1
TmAlRh,mp-568685,0.0,5.55841732,0.0,"{69: 1, 13: 1, 45: 1}","[13, 45, 69]",131451691,Tm1Al1Rh1
ThAlRh,mp-1080785,0.0,7.65508983,0.0,"{90: 1, 13: 1, 45: 1}","[13, 45, 90]",131451901,Th1Al1Rh1
HfAlRh2,mp-864671,0.0,7.34452722,0.0,"{72: 1, 13: 1, 45: 2}","[13, 45, 72]",131452721,Hf1Al1Rh2
AlPd,mp-7189,0.0,7.02512488,0.0,"{13: 1, 46: 1}","[13, 46]",131461,Al1Pd1
CeAlPd,mp-21158,0.0,7.36763992,0.0,"{58: 1, 13: 1, 46: 1}","[13, 46, 58]",131461581,Ce1Al1Pd1
PrAlPd,mp-1080703,0.0,5.24293841,0.0,"{59: 1, 13: 1, 46: 1}","[13, 46, 59]",131461591,Pr1Al1Pd1
NdAlPd,mp-976368,0.0,5.15838381,0.0,"{60: 1, 13: 1, 46: 1}","[13, 46, 60]",131461601,Nd1Al1Pd1
SmAlPd,mp-1102212,0.0,5.25633594,0.0,"{62: 1, 13: 1, 46: 1}","[13, 46, 62]",131461621,Sm1Al1Pd1
GdAlPd,mp-20058,0.0,5.07530486,0.0,"{64: 1, 13: 1, 46: 1}","[13, 46, 64]",131461641,Gd1Al1Pd1
TbAlPd,mp-12722,0.0,5.47625336,0.0,"{65: 1, 13: 1, 46: 1}","[13, 46, 65]",131461651,Tb1Al1Pd1
DyAlPd,mp-1103382,0.0,5.44240314,0.0,"{66: 1, 13: 1, 46: 1}","[13, 46, 66]",131461661,Dy1Al1Pd1
HoAlPd,mp-1102737,0.0,5.38713318,0.0,"{67: 1, 13: 1, 46: 1}","[13, 46, 67]",131461671,Ho1Al1Pd1
ErAlPd,mp-1102820,0.0,5.4135198,0.0,"{68: 1, 13: 1, 46: 1}","[13, 46, 68]",131461681,Er1Al1Pd1
TmAlPd,mp-1095667,0.0,5.42882511,0.0,"{69: 1, 13: 1, 46: 1}","[13, 46, 69]",131461691,Tm1Al1Pd1
LuAlPd,mp-973629,0.0,5.29373802,0.0,"{71: 1, 13: 1, 46: 1}","[13, 46, 71]",131461711,Lu1Al1Pd1