formula,material_id,band_gap,efermi,energy_above_hull,comp_atoms,sorted_keys_comp_atoms,comp_number,new_formula
ThAlPd,mp-1078527,0.0,7.17660022,0.0,"{90: 1, 13: 1, 46: 1}","[13, 46, 90]",131461901,Th1Al1Pd1
AlPd2,mp-2824,0.0,6.17279053,0.0,"{13: 1, 46: 2}","[13, 46]",131462,Al1Pd2
CeAlPd2,mp-1106138,0.0,6.69770006,0.0,"{58: 1, 13: 1, 46: 2}","[13, 46, 58]",131462581,Ce1Al1Pd2
PrAlPd2,mp-1189783,0.0,5.18491922,0.0,"{59: 1, 13: 1, 46: 2}","[13, 46, 59]",131462591,Pr1Al1Pd2
NdAlPd2,mp-1188755,0.0,5.15617047,0.0,"{60: 1, 13: 1, 46: 2}","[13, 46, 60]",131462601,Nd1Al1Pd2
HfAlPd2,mp-16501,0.0,6.27432961,0.0,"{72: 1, 13: 1, 46: 2}","[13, 46, 72]",131462721,Hf1Al1Pd2
AlPd5,mp-605663,0.0,4.66054003,0.0,"{13: 1, 46: 5}","[13, 46]",131465,Al1Pd5
AlPd5I2,mp-27393,0.0,4.39125387,0.0,"{13: 1, 46: 5, 53: 2}","[13, 46, 53]",131465532,Al1Pd5I2
AlAgTe2,mp-14092,1.0469000000000004,3.47746818,0.0,"{13: 1, 47: 1, 52: 2}","[13, 47, 52]",131471522,Al1Ag1Te2
PmAlAg2,mp-862837,0.0,4.01984149,0.0,"{61: 1, 13: 1, 47: 2}","[13, 47, 61]",131472611,Pm1Al1Ag2
HoAlAg2,mp-861934,0.0,4.28061586,0.0,"{67: 1, 13: 1, 47: 2}","[13, 47, 67]",131472671,Ho1Al1Ag2
ErAlAg2,mp-977535,0.0,4.31700757,0.0,"{68: 1, 13: 1, 47: 2}","[13, 47, 68]",131472681,Er1Al1Ag2
TmAlAg2,mp-980426,0.0,4.33048797,0.0,"{69: 1, 13: 1, 47: 2}","[13, 47, 69]",131472691,Tm1Al1Ag2
AlAg3,mp-1228988,0.0,4.54067521,0.0,"{13: 1, 47: 3}","[13, 47]",131473,Al1Ag3
Sm2AlAg3,mp-1219227,0.0,3.85784522,0.0,"{62: 2, 13: 1, 47: 3}","[13, 47, 62]",131473622,Sm2Al1Ag3
Pm2AlCd,mp-1186432,0.0,3.62382133,0.0,"{61: 2, 13: 1, 48: 1}","[13, 48, 61]",131481612,Pm2Al1Cd1
AlInI4,mp-571260,3.0259,1.06454268,0.0,"{13: 1, 49: 1, 53: 4}","[13, 49, 53]",131491534,Al1In1I4
Pm2AlIn,mp-1186585,0.0,4.6336809,0.0,"{61: 2, 13: 1, 49: 1}","[13, 49, 61]",131491612,Pm2Al1In1
AlSb,mp-2624,1.2255000000000003,4.4349805,0.0,"{13: 1, 51: 1}","[13, 51]",131511,Al1Sb1
AlTeI7,mp-29407,1.8846,0.27101582,0.0,"{13: 1, 52: 1, 53: 7}","[13, 52, 53]",131521537,Al1Te1I7
Ti8Al15Rh7,mp-1217136,0.0,7.39068862,0.0,"{22: 8, 13: 15, 45: 7}","[13, 22, 45]",1315228457,Ti8Al15Rh7
CsAlTe3,mp-1189272,1.3209,2.87389013,0.0,"{55: 1, 13: 1, 52: 3}","[13, 52, 55]",131523551,Cs1Al1Te3
Cs3AlTe3,mp-1193748,2.1744,1.53820603,0.0,"{55: 3, 13: 1, 52: 3}","[13, 52, 55]",131523553,Cs3Al1Te3
AlI3,mp-30930,3.2639,-0.33623122,0.0,"{13: 1, 53: 3}","[13, 53]",131533,Al1I3
AlTlI4,mp-607829,3.4463999999999997,0.66438116,0.0,"{13: 1, 81: 1, 53: 4}","[13, 53, 81]",131534811,Al1Tl1I4
Ce2(Al5Ru)3,mp-567554,0.0,8.22865028,0.0,"{58: 2, 13: 15, 44: 3}","[13, 44, 58]",1315443582,Ce2Al15Ru3
LaAl,mp-12684,0.0,7.74291283,0.0,"{57: 1, 13: 1}","[13, 57]",131571,La1Al1
LaAlPt,mp-1103109,0.0,8.29847059,0.0,"{57: 1, 13: 1, 78: 1}","[13, 57, 78]",131571781,La1Al1Pt1
LaAlAu,mp-1101778,0.0,7.40400243,0.0,"{57: 1, 13: 1, 79: 1}","[13, 57, 79]",131571791,La1Al1Au1
La3Al,mp-1084828,0.0,7.91273934,0.0,"{57: 3, 13: 1}","[13, 57]",131573,La3Al1
CeAlIr,mp-1102352,0.0,8.47523487,0.0,"{58: 1, 13: 1, 77: 1}","[13, 58, 77]",131581771,Ce1Al1Ir1
CeAlPt,mp-19827,0.0,7.97236862,0.0,"{58: 1, 13: 1, 78: 1}","[13, 58, 78]",131581781,Ce1Al1Pt1
CeAlAu,mp-1102423,0.0,7.09891174,0.0,"{58: 1, 13: 1, 79: 1}","[13, 58, 79]",131581791,Ce1Al1Au1
Ce3Al,mp-2413,0.0,8.13949756,0.0,"{58: 3, 13: 1}","[13, 58]",131583,Ce3Al1
PrAl,mp-568417,0.0,4.83728992,0.0,"{59: 1, 13: 1}","[13, 59]",131591,Pr1Al1
PrAlPt,mp-570042,0.0,5.93658714,0.0,"{59: 1, 13: 1, 78: 1}","[13, 59, 78]",131591781,Pr1Al1Pt1
PrAlAu,mp-1101978,0.0,5.13429566,0.0,"{59: 1, 13: 1, 79: 1}","[13, 59, 79]",131591791,Pr1Al1Au1
NdAl,mp-864637,0.0,4.6804486,0.0,"{60: 1, 13: 1}","[13, 60]",131601,Nd1Al1
NdAlPt,mp-568130,0.0,5.90301571,0.0,"{60: 1, 13: 1, 78: 1}","[13, 60, 78]",131601781,Nd1Al1Pt1
NdAlAu,mp-1101773,0.0,5.14689343,0.0,"{60: 1, 13: 1, 79: 1}","[13, 60, 79]",131601791,Nd1Al1Au1
Nd3Al,mp-1080098,0.0,4.06875385,0.0,"{60: 3, 13: 1}","[13, 60]",131603,Nd3Al1
PmAlAu2,mp-862836,0.0,5.08657082,0.0,"{61: 1, 13: 1, 79: 2}","[13, 61, 79]",131611792,Pm1Al1Au2
Pm3Al,mp-1186496,0.0,3.98129323,0.0,"{61: 3, 13: 1}","[13, 61]",131613,Pm3Al1
Ca43Al16Pb13,mp-1228746,0.23899999999999988,3.6390632,0.0,"{20: 43, 13: 16, 82: 13}","[13, 20, 82]",131620438213,Ca43Al16Pb13
SmAl,mp-978951,0.0,4.50208753,0.0,"{62: 1, 13: 1}","[13, 62]",131621,Sm1Al1
Sc6Al16Rh7,mp-1194154,0.0,7.06774349,0.0,"{21: 6, 13: 16, 45: 7}","[13, 21, 45]",1316216457,Sc6Al16Rh7
Sc6Al16Pd7,mp-1194261,0.0,6.84896325,0.0,"{21: 6, 13: 16, 46: 7}","[13, 21, 46]",1316216467,Sc6Al16Pd7
Sc6Al16Os7,mp-1194206,0.0,7.03385688,0.0,"{21: 6, 13: 16, 76: 7}","[13, 21, 76]",1316216767,Sc6Al16Os7
Sc6Al16Ir7,mp-978662,0.0,7.70460194,0.0,"{21: 6, 13: 16, 77: 7}","[13, 21, 77]",1316216777,Sc6Al16Ir7
SmAlPt,mp-1103450,0.0,5.83165184,0.0,"{62: 1, 13: 1, 78: 1}","[13, 62, 78]",131621781,Sm1Al1Pt1
SmAlAu,mp-1102449,0.0,5.06320273,0.0,"{62: 1, 13: 1, 79: 1}","[13, 62, 79]",131621791,Sm1Al1Au1
Ti6Al16Ir7,mp-1193121,0.0,7.8801616,0.0,"{22: 6, 13: 16, 77: 7}","[13, 22, 77]",1316226777,Ti6Al16Ir7
Ti6Al16Pt7,mp-978976,0.0,8.07498871,0.0,"{22: 6, 13: 16, 78: 7}","[13, 22, 78]",1316226787,Ti6Al16Pt7
Sm3Al,mp-979266,0.0,3.85768724,0.0,"{62: 3, 13: 1}","[13, 62]",131623,Sm3Al1
Zr6Al16Co7,mp-1194423,0.0,6.87690482,0.0,"{40: 6, 13: 16, 27: 7}","[13, 27, 40]",1316277406,Zr6Al16Co7
Hf6Al16Co7,mp-1193847,0.0,7.01641536,0.0,"{72: 6, 13: 16, 27: 7}","[13, 27, 72]",1316277726,Hf6Al16Co7
EuAl,mp-1189619,0.0,3.92641989,0.0,"{63: 1, 13: 1}","[13, 63]",131631,Eu1Al1
EuAlAu,mp-1103193,0.0,4.42373801,0.0,"{63: 1, 13: 1, 79: 1}","[13, 63, 79]",131631791,Eu1Al1Au1
Zr6Al16Rh7,mp-1192673,0.0,6.91869131,0.0,"{40: 6, 13: 16, 45: 7}","[13, 40, 45]",1316406457,Zr6Al16Rh7
Zr6Al16Pd7,mp-1193840,0.0,7.00549155,0.0,"{40: 6, 13: 16, 46: 7}","[13, 40, 46]",1316406467,Zr6Al16Pd7
Zr6Al16Ir7,mp-1193568,0.0,7.50897835,0.0,"{40: 6, 13: 16, 77: 7}","[13, 40, 77]",1316406777,Zr6Al16Ir7
Zr6Al16Pt7,mp-1193272,0.0,7.57258869,0.0,"{40: 6, 13: 16, 78: 7}","[13, 40, 78]",1316406787,Zr6Al16Pt7
Gd3Al,mp-1184417,0.0,3.63100524,0.0,"{64: 3, 13: 1}","[13, 64]",131643,Gd3Al1
Hf6Al16Rh7,mp-983480,0.0,7.16225728,0.0,"{72: 6, 13: 16, 45: 7}","[13, 45, 72]",1316457726,Hf6Al16Rh7
Hf6Al16Pd7,mp-1193241,0.0,7.26511313,0.0,"{72: 6, 13: 16, 46: 7}","[13, 46, 72]",1316467726,Hf6Al16Pd7
TbAl,mp-11225,0.0,4.70791835,0.0,"{65: 1, 13: 1}","[13, 65]",131651,Tb1Al1
TbAlPt,mp-1102944,0.0,6.11450365,0.0,"{65: 1, 13: 1, 78: 1}","[13, 65, 78]",131651781,Tb1Al1Pt1
TbAlAu,mp-1095572,0.0,5.42251278,0.0,"{65: 1, 13: 1, 79: 1}","[13, 65, 79]",131651791,Tb1Al1Au1
Tb2Al,mp-1103391,0.0,4.17727725,0.0,"{65: 2, 13: 1}","[13, 65]",131652,Tb2Al1
Ce2Al16Pt9,mp-570981,0.0,8.14825501,0.0,"{58: 2, 13: 16, 78: 9}","[13, 58, 78]",1316582789,Ce2Al16Pt9
DyAl,mp-433,0.0,4.64577477,0.0,"{66: 1, 13: 1}","[13, 66]",131661,Dy1Al1
DyAlPt,mp-1103319,0.0,6.1415733,0.0,"{66: 1, 13: 1, 78: 1}","[13, 66, 78]",131661781,Dy1Al1Pt1
DyAlAu,mp-1102191,0.0,5.40054854,0.0,"{66: 1, 13: 1, 79: 1}","[13, 66, 79]",131661791,Dy1Al1Au1
Dy2Al,mp-1102728,0.0,4.13459816,0.0,"{66: 2, 13: 1}","[13, 66]",131662,Dy2Al1
HoAl,mp-1188420,0.0,4.59994529,0.0,"{67: 1, 13: 1}","[13, 67]",131671,Ho1Al1
HoAlPt,mp-1103032,0.0,6.08421857,0.0,"{67: 1, 13: 1, 78: 1}","[13, 67, 78]",131671781,Ho1Al1Pt1
HoAlAu,mp-1102992,0.0,5.39140287,0.0,"{67: 1, 13: 1, 79: 1}","[13, 67, 79]",131671791,Ho1Al1Au1
Ho2Al,mp-16502,0.0,3.99738775,0.0,"{67: 2, 13: 1}","[13, 67]",131672,Ho2Al1
Hf6Al16Ir7,mp-1212464,0.0,7.69007846,0.0,"{72: 6, 13: 16, 77: 7}","[13, 72, 77]",1316726777,Hf6Al16Ir7
Hf6Al16Pt7,mp-1194470,0.0,7.82951331,0.0,"{72: 6, 13: 16, 78: 7}","[13, 72, 78]",1316726787,Hf6Al16Pt7
ErAl,mp-1188739,0.0,4.61644609,0.0,"{68: 1, 13: 1}","[13, 68]",131681,Er1Al1
ErAlPt,mp-1102457,0.0,6.0716283,0.0,"{68: 1, 13: 1, 78: 1}","[13, 68, 78]",131681781,Er1Al1Pt1
ErAlAu,mp-1102155,0.0,5.44493757,0.0,"{68: 1, 13: 1, 79: 1}","[13, 68, 79]",131681791,Er1Al1Au1
Er2Al,mp-1102875,0.0,3.99994979,0.0,"{68: 2, 13: 1}","[13, 68]",131682,Er2Al1
TmAl,mp-16721,0.0,4.60636284,0.0,"{69: 1, 13: 1}","[13, 69]",131691,Tm1Al1
TmAlPt,mp-1095579,0.0,6.0449217,0.0,"{69: 1, 13: 1, 78: 1}","[13, 69, 78]",131691781,Tm1Al1Pt1
TmAlAu,mp-1102248,0.0,5.46326531,0.0,"{69: 1, 13: 1, 79: 1}","[13, 69, 79]",131691791,Tm1Al1Au1
LuAl,mp-16507,0.0,4.62367518,0.0,"{71: 1, 13: 1}","[13, 71]",131711,Lu1Al1
LuAlPt,mp-1102691,0.0,6.06936135,0.0,"{71: 1, 13: 1, 78: 1}","[13, 71, 78]",131711781,Lu1Al1Pt1
LuAlAu,mp-1087480,0.0,5.43486203,0.0,"{71: 1, 13: 1, 79: 1}","[13, 71, 79]",131711791,Lu1Al1Au1
HfAlPt,mp-571619,0.0,6.93419327,0.0,"{72: 1, 13: 1, 78: 1}","[13, 72, 78]",131721781,Hf1Al1Pt1
TaAlOs2,mp-862445,0.0,8.26929167,0.0,"{73: 1, 13: 1, 76: 2}","[13, 73, 76]",131731762,Ta1Al1Os2
Ta2Al,mp-1193531,0.0,6.43658953,0.0,"{73: 2, 13: 1}","[13, 73]",131732,Ta2Al1
AlRe,mp-1228815,0.0,8.66612143,0.0,"{13: 1, 75: 1}","[13, 75]",131751,Al1Re1
AlRe2,mp-10909,0.0,8.50433813,0.0,"{13: 1, 75: 2}","[13, 75]",131752,Al1Re2
AlIr,mp-1885,0.0,10.70749902,0.0,"{13: 1, 77: 1}","[13, 77]",131771,Al1Ir1
ThAlIr,mp-1079846,0.0,8.16060212,0.0,"{90: 1, 13: 1, 77: 1}","[13, 77, 90]",131771901,Th1Al1Ir1
UAlIr,mp-1079219,0.0,9.98584792,0.0,"{92: 1, 13: 1, 77: 1}","[13, 77, 92]",131771921,U1Al1Ir1
AlPt,mp-10904,0.0,8.3920993,0.0,"{13: 1, 78: 1}","[13, 78]",131781,Al1Pt1
ThAlPt,mp-1078902,0.0,7.84979843,0.0,"{90: 1, 13: 1, 78: 1}","[13, 78, 90]",131781901,Th1Al1Pt1
UAlPt,mp-1079949,0.0,9.53333613,0.0,"{92: 1, 13: 1, 78: 1}","[13, 78, 92]",131781921,U1Al1Pt1
AlPt2,mp-16960,0.0,8.2282758,0.0,"{13: 1, 78: 2}","[13, 78]",131782,Al1Pt2
AlPt3,mp-607111,0.0,7.8721545,0.0,"{13: 1, 78: 3}","[13, 78]",131783,Al1Pt3
AlAu,mp-1399,0.0,6.82747208,0.0,"{13: 1, 79: 1}","[13, 79]",131791,Al1Au1
UAlAu,mp-1216345,0.0,9.2398412,0.0,"{92: 1, 13: 1, 79: 1}","[13, 79, 92]",131791921,U1Al1Au1
AlAu2,mp-569558,0.0,6.64562572,0.0,"{13: 1, 79: 2}","[13, 79]",131792,Al1Au2
PaAlAu2,mp-864780,0.0,7.86894815,0.0,"{91: 1, 13: 1, 79: 2}","[13, 79, 91]",131792911,Pa1Al1Au2
AlAu4,mp-1490,0.0,6.10231464,0.0,"{13: 1, 79: 4}","[13, 79]",131794,Al1Au4
Th2Al,mp-1651,0.0,7.06791568,0.0,"{90: 2, 13: 1}","[13, 90]",131902,Th2Al1
Pa3Al,mp-862848,0.0,11.75006601,0.0,"{91: 3, 13: 1}","[13, 91]",131913,Pa3Al1
La(TiAl10)2,mp-1200087,0.0,7.75607481,0.0,"{57: 1, 22: 2, 13: 20}","[13, 22, 57]",1320222571,La1Ti2Al20
Ce(TiAl10)2,mp-567387,0.0,7.72987292,0.0,"{58: 1, 22: 2, 13: 20}","[13, 22, 58]",1320222581,Ce1Ti2Al20
Pr(TiAl10)2,mp-1204502,0.0,7.45527264,0.0,"{59: 1, 22: 2, 13: 20}","[13, 22, 59]",1320222591,Pr1Ti2Al20
La(Al10V)2,mp-1195666,0.0,8.06632974,0.0,"{57: 1, 13: 20, 23: 2}","[13, 23, 57]",1320232571,La1Al20V2
Ce(Al10V)2,mp-1197724,0.02179999999999893,8.02424693,0.0,"{58: 1, 13: 20, 23: 2}","[13, 23, 58]",1320232581,Ce1Al20V2
Pr(Al10V)2,mp-1204963,0.0,7.78474301,0.0,"{59: 1, 13: 20, 23: 2}","[13, 23, 59]",1320232591,Pr1Al20V2
Sm(Al10V)2,mp-1195763,0.0,7.74084839,0.0,"{62: 1, 13: 20, 23: 2}","[13, 23, 62]",1320232621,Sm1Al20V2
Eu(Al10V)2,mp-567527,0.0,7.59815169,0.0,"{63: 1, 13: 20, 23: 2}","[13, 23, 63]",1320232631,Eu1Al20V2
Th(Al10V)2,mp-1194657,0.0,8.01507782,0.0,"{90: 1, 13: 20, 23: 2}","[13, 23, 90]",1320232901,Th1Al20V2
U(Al10V)2,mp-17188,0.0,8.35145456,0.0,"{92: 1, 13: 20, 23: 2}","[13, 23, 92]",1320232921,U1Al20V2
La(Al10Cr)2,mp-1200867,0.0,8.20821148,0.0,"{57: 1, 13: 20, 24: 2}","[13, 24, 57]",1320242571,La1Al20Cr2
Ce(Al10Cr)2,mp-3910,0.0,8.22234941,0.0,"{58: 1, 13: 20, 24: 2}","[13, 24, 58]",1320242581,Ce1Al20Cr2
U(Al10Cr)2,mp-1199103,0.0,8.5326994,0.0,"{92: 1, 13: 20, 24: 2}","[13, 24, 92]",1320242921,U1Al20Cr2
Dy6Al2SiS14,mp-1225400,2.4669999999999996,4.04753506,0.0,"{66: 6, 13: 2, 14: 1, 16: 14}","[13, 14, 16, 66]",1321411614666,Dy6Al2Si1S14
Ca(AlSi)2,mp-7704,0.0,5.55798565,0.0,"{20: 1, 13: 2, 14: 2}","[13, 14, 20]",132142201,Ca1Al2Si2
Sr(AlSi)2,mp-6931,0.0,5.14132564,0.0,"{38: 1, 13: 2, 14: 2}","[13, 14, 38]",132142381,Sr1Al2Si2
Sr3(AlSi)2,mp-7068,0.0,3.73730792,0.0,"{38: 3, 13: 2, 14: 2}","[13, 14, 38]",132142383,Sr3Al2Si2
La(AlSi)2,mp-1206998,0.0,7.32187957,0.0,"{57: 1, 13: 2, 14: 2}","[13, 14, 57]",132142571,La1Al2Si2
Pr(AlSi)2,mp-12856,0.0,6.08302819,0.0,"{59: 1, 13: 2, 14: 2}","[13, 14, 59]",132142591,Pr1Al2Si2
Eu(AlSi)2,mp-20595,0.0,5.50291486,0.0,"{63: 1, 13: 2, 14: 2}","[13, 14, 63]",132142631,Eu1Al2Si2
Gd(AlSi)2,mp-8651,0.0,6.13996983,0.0,"{64: 1, 13: 2, 14: 2}","[13, 14, 64]",132142641,Gd1Al2Si2
Tb(AlSi)2,mp-10436,0.0,6.34267635,0.0,"{65: 1, 13: 2, 14: 2}","[13, 14, 65]",132142651,Tb1Al2Si2
Dy(AlSi)2,mp-7121,0.0,6.36373541,0.0,"{66: 1, 13: 2, 14: 2}","[13, 14, 66]",132142661,Dy1Al2Si2
Al21Pd8,mp-1498,0.0,7.65065305,0.0,"{13: 21, 46: 8}","[13, 46]",1321468,Al21Pd8
Ca3(AlP2)2,mp-1205337,1.2481999999999998,4.53466758,0.0,"{20: 3, 13: 2, 15: 4}","[13, 15, 20]",132154203,Ca3Al2P4
Sr3(AlP2)2,mp-9843,1.3365000000000005,3.79002962,0.0,"{38: 3, 13: 2, 15: 4}","[13, 15, 38]",132154383,Sr3Al2P4
Eu3(AlP2)2,mp-1205409,0.02660000000000018,4.80448558,0.0,"{63: 3, 13: 2, 15: 4}","[13, 15, 63]",132154633,Eu3Al2P4
Al2S3,mp-1228491,3.0435000000000003,3.2901739,0.0,"{13: 2, 16: 3}","[13, 16]",132163,Al2S3
Al2Ag2Bi2S3Cl8,mp-1194539,1.9031999999999998,1.33028886,0.0,"{13: 2, 47: 2, 83: 2, 16: 3, 17: 8}","[13, 16, 17, 47, 83]",132163178472832,Al2Ag2Bi2S3Cl8
Ca(AlS2)2,mp-14422,3.4146,2.87224466,0.0,"{20: 1, 13: 2, 16: 4}","[13, 16, 20]",132164201,Ca1Al2S4
Mn(AlS2)2,mp-1104783,0.0,5.53761364,0.0,"{25: 1, 13: 2, 16: 4}","[13, 16, 25]",132164251,Mn1Al2S4
Al2ZnS4,mp-4842,2.4934000000000003,4.2853273,0.0,"{13: 2, 30: 1, 16: 4}","[13, 16, 30]",132164301,Al2Zn1S4
Sr(AlS2)2,mp-14424,3.6396,2.26257899,0.0,"{38: 1, 13: 2, 16: 4}","[13, 16, 38]",132164381,Sr1Al2S4
Al2CdS4,mp-5928,2.7262999999999997,1.91604263,0.0,"{13: 2, 48: 1, 16: 4}","[13, 16, 48]",132164481,Al2Cd1S4
Eu(AlS2)2,mp-1103889,1.1797000000000004,4.96528757,0.0,"{63: 1, 13: 2, 16: 4}","[13, 16, 63]",132164631,Eu1Al2S4
Al2PbS4,mp-1103722,2.5904,3.28569403,0.0,"{13: 2, 82: 1, 16: 4}","[13, 16, 82]",132164821,Al2Pb1S4
Al2BiS4,mp-557737,2.6364,2.72268894,0.0,"{13: 2, 83: 1, 16: 4}","[13, 16, 83]",132164831,Al2Bi1S4
Rb4Al2S5,mp-1194520,3.0153999999999996,0.97026093,0.0,"{37: 4, 13: 2, 16: 5}","[13, 16, 37]",132165374,Rb4Al2S5
Ca(AlCl4)2,mp-570703,5.4214,-1.33750412,0.0,"{20: 1, 13: 2, 17: 8}","[13, 17, 20]",132178201,Ca1Al2Cl8
Al2VCl8,mp-568443,0.8418000000000001,1.86282521,0.0,"{13: 2, 23: 1, 17: 8}","[13, 17, 23]",132178231,Al2V1Cl8
NbAl2(SeCl4)2,mp-1198176,1.9186,0.28685546,0.0,"{41: 1, 13: 2, 34: 2, 17: 8}","[13, 17, 34, 41]",132178342411,Nb1Al2Se2Cl8
Sr(AlCl4)2,mp-30024,5.8210999999999995,-1.4112705,0.0,"{38: 1, 13: 2, 17: 8}","[13, 17, 38]",132178381,Sr1Al2Cl8
Al2CdCl8,mp-28361,3.7081999999999997,-1.42266682,0.0,"{13: 2, 48: 1, 17: 8}","[13, 17, 48]",132178481,Al2Cd1Cl8
Eu(AlCl4)2,mp-30022,1.6997,2.06909319,0.0,"{63: 1, 13: 2, 17: 8}","[13, 17, 63]",132178631,Eu1Al2Cl8
Al21Pt8,mp-1982,0.0,8.39868732,0.0,"{13: 21, 78: 8}","[13, 78]",1321788,Al21Pt8
KAl2Br7,mp-30978,4.1578,-1.72197163,0.0,"{19: 1, 13: 2, 35: 7}","[13, 19, 35]",132191357,K1Al2Br7
K2Al2Sb3,mp-17886,0.9634,3.22717014,0.0,"{19: 2, 13: 2, 51: 3}","[13, 19, 51]",132192513,K2Al2Sb3
K3Al2As3,mp-28347,1.1862000000000004,2.18420034,0.0,"{19: 3, 13: 2, 33: 3}","[13, 19, 33]",132193333,K3Al2As3
CaAl2,mp-2404,0.0,5.27749029,0.0,"{20: 1, 13: 2}","[13, 20]",132201,Ca1Al2
Ca(AlZn)2,mp-30175,0.0,4.46640426,0.0,"{20: 1, 13: 2, 30: 2}","[13, 20, 30]",132201302,Ca1Al2Zn2
Ca(AlGa)2,mp-9690,0.0,4.96447176,0.0,"{20: 1, 13: 2, 31: 2}","[13, 20, 31]",132201312,Ca1Al2Ga2
Ca(AlGe)2,mp-3862,0.0,5.35576112,0.0,"{20: 1, 13: 2, 32: 2}","[13, 20, 32]",132201322,Ca1Al2Ge2
Ca(AlSe2)2,mp-36988,2.8458,2.44186293,0.0,"{20: 1, 13: 2, 34: 4}","[13, 20, 34]",132201344,Ca1Al2Se4
Ca3(AlGe)2,mp-10670,0.0,4.1089156,0.0,"{20: 3, 13: 2, 32: 2}","[13, 20, 32]",132203322,Ca3Al2Ge2
Ca3Al2Ge3,mp-27997,0.0,4.05880862,0.0,"{20: 3, 13: 2, 32: 3}","[13, 20, 32]",132203323,Ca3Al2Ge3
Ca3(AlAs2)2,mp-1205338,1.1101,3.9562151,0.0,"{20: 3, 13: 2, 33: 4}","[13, 20, 33]",132203334,Ca3Al2As4
Ca5(AlSb3)2,mp-8439,0.15559999999999974,4.94875706,0.0,"{20: 5, 13: 2, 51: 6}","[13, 20, 51]",132205516,Ca5Al2Sb6
ScAl2,mp-813,0.0,6.45888683,0.0,"{21: 1, 13: 2}","[13, 21]",132211,Sc1Al2
Sc11(AlGe4)2,mp-21931,0.0,4.78051872,0.0,"{21: 11, 13: 2, 32: 8}","[13, 21, 32]",1322111328,Sc11Al2Ge8
TiAl2,mp-567705,0.0,7.44214952,0.0,"{22: 1, 13: 2}","[13, 22]",132221,Ti1Al2
TiAl2Zn,mp-1217009,0.0,6.98478812,0.0,"{22: 1, 13: 2, 30: 1}","[13, 22, 30]",132221301,Ti1Al2Zn1
Ti3NbAl2,mp-1208228,0.0,6.16099293,0.0,"{22: 3, 41: 1, 13: 2}","[13, 22, 41]",132223411,Ti3Nb1Al2
MnAl2Cr3,mp-1221662,0.0,7.83402702,0.0,"{25: 1, 13: 2, 24: 3}","[13, 24, 25]",132243251,Mn1Al2Cr3
Mn(AlTe2)2,mp-1025315,0.3251999999999997,4.22012296,0.0,"{25: 1, 13: 2, 52: 4}","[13, 25, 52]",132251524,Mn1Al2Te4
Zr6Al2Co,mp-12760,0.0,4.74265402,0.0,"{40: 6, 13: 2, 27: 1}","[13, 27, 40]",132271406,Zr6Al2Co1
Al2CoRu,mp-862695,0.0,8.58139834,0.0,"{13: 2, 27: 1, 44: 1}","[13, 27, 44]",132271441,Al2Co1Ru1
Hf6Al2Co,mp-1224408,0.0,5.14556581,0.0,"{72: 6, 13: 2, 27: 1}","[13, 27, 72]",132271726,Hf6Al2Co1
Al2CoOs,mp-984352,0.0,8.54358878,0.0,"{13: 2, 27: 1, 76: 1}","[13, 27, 76]",132271761,Al2Co1Os1
Al2CoIr,mp-867319,0.0,9.27110118,0.0,"{13: 2, 27: 1, 77: 1}","[13, 27, 77]",132271771,Al2Co1Ir1
Gd5(AlCo)2,mp-1189017,0.0,3.91729482,0.0,"{64: 5, 13: 2, 27: 2}","[13, 27, 64]",132272645,Gd5Al2Co2
Al2ZnSe4,mp-7907,2.1529,2.00639463,0.0,"{13: 2, 30: 1, 34: 4}","[13, 30, 34]",132301344,Al2Zn1Se4
ZrAl2Zn,mp-1215329,0.0,6.23465496,0.0,"{40: 1, 13: 2, 30: 1}","[13, 30, 40]",132301401,Zr1Al2Zn1
Al2ZnTe4,mp-7908,1.6250999999999998,3.5591303,0.0,"{13: 2, 30: 1, 52: 4}","[13, 30, 52]",132301524,Al2Zn1Te4
HfAl2Zn,mp-1224303,0.0,6.55009324,0.0,"{72: 1, 13: 2, 30: 1}","[13, 30, 72]",132301721,Hf1Al2Zn1
La(AlZn)2,mp-569713,0.0,6.23818663,0.0,"{57: 1, 13: 2, 30: 2}","[13, 30, 57]",132302571,La1Al2Zn2
Ce(AlZn)2,mp-3286,0.0,5.92406846,0.0,"{58: 1, 13: 2, 30: 2}","[13, 30, 58]",132302581,Ce1Al2Zn2
Pr(AlZn)2,mp-11846,0.0,4.91353238,0.0,"{59: 1, 13: 2, 30: 2}","[13, 30, 59]",132302591,Pr1Al2Zn2
Sm(AlZn)2,mp-569657,0.0,4.80651391,0.0,"{62: 1, 13: 2, 30: 2}","[13, 30, 62]",132302621,Sm1Al2Zn2
Eu(AlZn)2,mp-1225559,0.0,4.14335911,0.0,"{63: 1, 13: 2, 30: 2}","[13, 30, 63]",132302631,Eu1Al2Zn2
Al2(Zn13Pd3)3,mp-1215020,0.0,3.63098911,0.0,"{13: 2, 30: 39, 46: 9}","[13, 30, 46]",1323039469,Al2Zn39Pd9
Sr(AlGa)2,mp-1207102,0.0,4.59495478,0.0,"{38: 1, 13: 2, 31: 2}","[13, 31, 38]",132312381,Sr1Al2Ga2
La(AlGa)2,mp-569696,0.0,6.86989784,0.0,"{57: 1, 13: 2, 31: 2}","[13, 31, 57]",132312571,La1Al2Ga2
Ce(AlGa)2,mp-3303,0.0,6.73280193,0.0,"{58: 1, 13: 2, 31: 2}","[13, 31, 58]",132312581,Ce1Al2Ga2
Pr(AlGa)2,mp-570255,0.0,5.48689208,0.0,"{59: 1, 13: 2, 31: 2}","[13, 31, 59]",132312591,Pr1Al2Ga2
Nd(AlGa)2,mp-567317,0.0,5.49051611,0.0,"{60: 1, 13: 2, 31: 2}","[13, 31, 60]",132312601,Nd1Al2Ga2
Eu(AlGa)2,mp-20867,0.0,4.8846081,0.0,"{63: 1, 13: 2, 31: 2}","[13, 31, 63]",132312631,Eu1Al2Ga2
Pu(AlGa)2,mp-1219763,0.0,7.62035443,0.0,"{94: 1, 13: 2, 31: 2}","[13, 31, 94]",132312941,Pu1Al2Ga2
La2Al2Ge,mp-1079988,0.0,7.13865658,0.0,"{57: 2, 13: 2, 32: 1}","[13, 32, 57]",132321572,La2Al2Ge1
EuAl2Ge,mp-1190090,0.0,5.49587814,0.0,"{63: 1, 13: 2, 32: 1}","[13, 32, 63]",132321631,Eu1Al2Ge1
Sr(AlGe)2,mp-1070483,0.0,4.87712278,0.0,"{38: 1, 13: 2, 32: 2}","[13, 32, 38]",132322381,Sr1Al2Ge2
Sr3(AlGe)2,mp-10671,0.0,3.60207943,0.0,"{38: 3, 13: 2, 32: 2}","[13, 32, 38]",132322383,Sr3Al2Ge2
La(AlGe)2,mp-10580,0.0,6.89227535,0.0,"{57: 1, 13: 2, 32: 2}","[13, 32, 57]",132322571,La1Al2Ge2
Pr(AlGe)2,mp-1207205,0.0,4.90823488,0.0,"{59: 1, 13: 2, 32: 2}","[13, 32, 59]",132322591,Pr1Al2Ge2
Nd(AlGe)2,mp-10581,0.0,5.78768697,0.0,"{60: 1, 13: 2, 32: 2}","[13, 32, 60]",132322601,Nd1Al2Ge2
Sm(AlGe)2,mp-1206599,0.0,4.93906781,0.0,"{62: 1, 13: 2, 32: 2}","[13, 32, 62]",132322621,Sm1Al2Ge2
Eu(AlGe)2,mp-20151,0.0,5.10268863,0.0,"{63: 1, 13: 2, 32: 2}","[13, 32, 63]",132322631,Eu1Al2Ge2
Gd(AlGe)2,mp-754689,0.0,5.44470132,0.0,"{64: 1, 13: 2, 32: 2}","[13, 32, 64]",132322641,Gd1Al2Ge2
Tb(AlGe)2,mp-7157,0.0,6.01148656,0.0,"{65: 1, 13: 2, 32: 2}","[13, 32, 65]",132322651,Tb1Al2Ge2