formula,material_id,band_gap,efermi,energy_above_hull,comp_atoms,sorted_keys_comp_atoms,comp_number,new_formula
LiTe3,mp-1185477,0.0,4.36690387,0.0,"{3: 1, 52: 3}","[3, 52]",31523,Li1Te3
LiMnF4,mp-1176639,0.0,-0.37084965,0.0,"{3: 1, 25: 1, 9: 4}","[3, 9, 25]",3194251,Li1Mn1F4
Li2VCr(P2O7)2,mp-753866,2.1866,1.8534981,0.0,"{3: 2, 23: 1, 24: 1, 15: 4, 8: 14}","[3, 8, 15, 23, 24]",32814154231241,Li2V1Cr1P4O14