formula,material_id,band_gap,efermi,energy_above_hull,comp_atoms,sorted_keys_comp_atoms,comp_number,new_formula
Sm3Si2Cl5O6,mp-556820,4.6078,0.16100386,0.0,"{62: 3, 14: 2, 17: 5, 8: 6}","[8, 14, 17, 62]",86142175623,Sm3Si2Cl5O6
Gd3Si2Cl5O6,mp-560513,2.531,0.09412832,0.0,"{64: 3, 14: 2, 17: 5, 8: 6}","[8, 14, 17, 64]",86142175643,Gd3Si2Cl5O6
Tb3Si2Cl5O6,mp-555097,4.6895999999999995,0.25399227,0.0,"{65: 3, 14: 2, 17: 5, 8: 6}","[8, 14, 17, 65]",86142175653,Tb3Si2Cl5O6
K2Zn(SiO3)2,mp-555318,3.9235,0.63990526,0.0,"{19: 2, 30: 1, 14: 2, 8: 6}","[8, 14, 19, 30]",86142192301,K2Zn1Si2O6
Na2Mn2Si2O7,mp-540871,2.3516,4.57593422,0.0,"{11: 2, 25: 2, 14: 2, 8: 7}","[8, 11, 14, 25]",87112142252,Na2Mn2Si2O7
Na2Zn2Si2O7,mp-6507,3.323,0.94261041,0.0,"{11: 2, 30: 2, 14: 2, 8: 7}","[8, 11, 14, 30]",87112142302,Na2Zn2Si2O7
Na2ZrSi2O7,mp-558191,4.5653,1.44271023,0.0,"{11: 2, 40: 1, 14: 2, 8: 7}","[8, 11, 14, 40]",87112142401,Na2Zr1Si2O7
Na3ScSi2O7,mp-557463,3.7748000000000004,1.67631047,0.0,"{11: 3, 21: 1, 14: 2, 8: 7}","[8, 11, 14, 21]",87113142211,Na3Sc1Si2O7
Na3HoSi2O7,mp-1195700,3.9699999999999998,0.93890905,0.0,"{11: 3, 67: 1, 14: 2, 8: 7}","[8, 11, 14, 67]",87113142671,Na3Ho1Si2O7
Na3TmSi2O7,mp-555421,3.9610000000000003,1.03138424,0.0,"{11: 3, 69: 1, 14: 2, 8: 7}","[8, 11, 14, 69]",87113142691,Na3Tm1Si2O7
Sr2MgSi2O7,mp-6564,4.495900000000001,1.42827335,0.0,"{38: 2, 12: 1, 14: 2, 8: 7}","[8, 12, 14, 38]",87121142382,Sr2Mg1Si2O7
Eu2MgSi2O7,mp-982662,0.011800000000000033,5.70996625,0.0,"{63: 2, 12: 1, 14: 2, 8: 7}","[8, 12, 14, 63]",87121142632,Eu2Mg1Si2O7
SiP2O7,mp-18157,5.708,2.07597155,0.0,"{14: 1, 15: 2, 8: 7}","[8, 14, 15]",87141152,Si1P2O7
Mn4SiTeCl2O7,mp-1193890,2.4894000000000003,2.85960517,0.0,"{25: 4, 14: 1, 52: 1, 17: 2, 8: 7}","[8, 14, 17, 25, 52]",87141172254521,Mn4Si1Te1Cl2O7
Mn4SiTeBr2O7,mp-1193463,2.6948999999999996,2.63319749,0.0,"{25: 4, 14: 1, 52: 1, 35: 2, 8: 7}","[8, 14, 25, 35, 52]",87141254352521,Mn4Si1Te1Br2O7
La4Si2S3O7,mp-15897,2.4924,6.18949555,0.0,"{57: 4, 14: 2, 16: 3, 8: 7}","[8, 14, 16, 57]",87142163574,La4Si2S3O7
Pr4Si2S3O7,mp-16159,2.5915,4.17583523,0.0,"{59: 4, 14: 2, 16: 3, 8: 7}","[8, 14, 16, 59]",87142163594,Pr4Si2S3O7
Nd4Si2S3O7,mp-14835,2.5812999999999997,4.17965088,0.0,"{60: 4, 14: 2, 16: 3, 8: 7}","[8, 14, 16, 60]",87142163604,Nd4Si2S3O7
Sm4Si2S3O7,mp-6671,2.5838,4.24936541,0.0,"{62: 4, 14: 2, 16: 3, 8: 7}","[8, 14, 16, 62]",87142163624,Sm4Si2S3O7
Cr4Si2Cl2O7,mp-556318,2.3202999999999996,2.80893005,0.0,"{24: 4, 14: 2, 17: 2, 8: 7}","[8, 14, 17, 24]",87142172244,Cr4Si2Cl2O7
KNbSi2O7,mp-560407,3.431,0.43346082,0.0,"{19: 1, 41: 1, 14: 2, 8: 7}","[8, 14, 19, 41]",87142191411,K1Nb1Si2O7
KTaSi2O7,mp-1223321,3.5987,0.87942957,0.0,"{19: 1, 73: 1, 14: 2, 8: 7}","[8, 14, 19, 73]",87142191731,K1Ta1Si2O7
KUSi2O7,mp-560631,0.5523000000000002,3.59836809,0.0,"{19: 1, 92: 1, 14: 2, 8: 7}","[8, 14, 19, 92]",87142191921,K1U1Si2O7
K2ZrSi2O7,mp-559489,4.4017,1.11315576,0.0,"{19: 2, 40: 1, 14: 2, 8: 7}","[8, 14, 19, 40]",87142192401,K2Zr1Si2O7
K3ScSi2O7,mp-557577,3.6378,1.53862449,0.0,"{19: 3, 21: 1, 14: 2, 8: 7}","[8, 14, 19, 21]",87142193211,K3Sc1Si2O7
K3NdSi2O7,mp-8614,3.5564,0.8698671,0.0,"{19: 3, 60: 1, 14: 2, 8: 7}","[8, 14, 19, 60]",87142193601,K3Nd1Si2O7
K3SmSi2O7,mp-1195475,3.6152999999999995,0.86805185,0.0,"{19: 3, 62: 1, 14: 2, 8: 7}","[8, 14, 19, 62]",87142193621,K3Sm1Si2O7
K3GdSi2O7,mp-680437,3.1454,0.9081711,0.0,"{19: 3, 64: 1, 14: 2, 8: 7}","[8, 14, 19, 64]",87142193641,K3Gd1Si2O7
K3TbSi2O7,mp-16594,3.688,0.9657196,0.0,"{19: 3, 65: 1, 14: 2, 8: 7}","[8, 14, 19, 65]",87142193651,K3Tb1Si2O7
K3DySi2O7,mp-16595,3.7064,1.02977437,0.0,"{19: 3, 66: 1, 14: 2, 8: 7}","[8, 14, 19, 66]",87142193661,K3Dy1Si2O7
K3HoSi2O7,mp-16596,3.7219999999999995,1.02357122,0.0,"{19: 3, 67: 1, 14: 2, 8: 7}","[8, 14, 19, 67]",87142193671,K3Ho1Si2O7
K3ErSi2O7,mp-16597,3.7372000000000005,1.01851697,0.0,"{19: 3, 68: 1, 14: 2, 8: 7}","[8, 14, 19, 68]",87142193681,K3Er1Si2O7
K3TmSi2O7,mp-16598,3.7555000000000005,1.02827021,0.0,"{19: 3, 69: 1, 14: 2, 8: 7}","[8, 14, 19, 69]",87142193691,K3Tm1Si2O7
K3LuSi2O7,mp-557543,3.6132,1.06823742,0.0,"{19: 3, 71: 1, 14: 2, 8: 7}","[8, 14, 19, 71]",87142193711,K3Lu1Si2O7
K6Si2O7,mp-30990,3.5108,0.57022846,0.0,"{19: 6, 14: 2, 8: 7}","[8, 14, 19]",87142196,K6Si2O7
Sc2Si2O7,mp-5594,4.2788,2.66465528,0.0,"{21: 2, 14: 2, 8: 7}","[8, 14, 21]",87142212,Sc2Si2O7
Cr4Si2Br2O7,mp-557963,2.2567,2.89731302,0.0,"{24: 4, 14: 2, 35: 2, 8: 7}","[8, 14, 24, 35]",87142244352,Cr4Si2Br2O7
Sr2MnSi2O7,mp-1191740,2.8825,2.45302328,0.0,"{38: 2, 25: 1, 14: 2, 8: 7}","[8, 14, 25, 38]",87142251382,Sr2Mn1Si2O7
Eu2MnSi2O7,mp-1190662,0.0,5.26627536,0.0,"{63: 2, 25: 1, 14: 2, 8: 7}","[8, 14, 25, 63]",87142251632,Eu2Mn1Si2O7
Sr2CoSi2O7,mp-1208846,3.4006000000000003,2.3486338,0.0,"{38: 2, 27: 1, 14: 2, 8: 7}","[8, 14, 27, 38]",87142271382,Sr2Co1Si2O7
Sr2ZnSi2O7,mp-1191240,3.8987000000000007,1.57768821,0.0,"{38: 2, 30: 1, 14: 2, 8: 7}","[8, 14, 30, 38]",87142301382,Sr2Zn1Si2O7
La4Si2Se3O7,mp-14912,2.2305,6.06346278,0.0,"{57: 4, 14: 2, 34: 3, 8: 7}","[8, 14, 34, 57]",87142343574,La4Si2Se3O7
Pr4Si2Se3O7,mp-14836,2.3921,4.19690964,0.0,"{59: 4, 14: 2, 34: 3, 8: 7}","[8, 14, 34, 59]",87142343594,Pr4Si2Se3O7
Rb6Si2O7,mp-18483,3.1390000000000002,0.93196831,0.0,"{37: 6, 14: 2, 8: 7}","[8, 14, 37]",87142376,Rb6Si2O7
In2Si2O7,mp-2874,2.7009000000000003,3.69451198,0.0,"{49: 2, 14: 2, 8: 7}","[8, 14, 49]",87142492,In2Si2O7
CsSi2SbO7,mp-581955,3.2270999999999996,4.59119577,0.0,"{55: 1, 14: 2, 51: 1, 8: 7}","[8, 14, 51, 55]",87142511551,Cs1Si2Sb1O7
Cs6Si2O7,mp-18315,3.1666999999999996,1.96306566,0.0,"{55: 6, 14: 2, 8: 7}","[8, 14, 55]",87142556,Cs6Si2O7
LaHoSi2O7,mp-1222979,4.9618,2.62018152,0.0,"{57: 1, 67: 1, 14: 2, 8: 7}","[8, 14, 57, 67]",87142571671,La1Ho1Si2O7
La2Si2O7,mp-5732,4.781899999999999,3.45976349,0.0,"{57: 2, 14: 2, 8: 7}","[8, 14, 57]",87142572,La2Si2O7
Ce2Si2O7,mp-662527,0.07010000000000005,6.61626686,0.0,"{58: 2, 14: 2, 8: 7}","[8, 14, 58]",87142582,Ce2Si2O7
Pr2Si2O7,mp-5913,5.1705,1.64793971,0.0,"{59: 2, 14: 2, 8: 7}","[8, 14, 59]",87142592,Pr2Si2O7
Nd2Si2O7,mp-15225,4.8256000000000006,2.71295961,0.0,"{60: 2, 14: 2, 8: 7}","[8, 14, 60]",87142602,Nd2Si2O7
Sm2Si2O7,mp-17235,5.105700000000001,1.57058399,0.0,"{62: 2, 14: 2, 8: 7}","[8, 14, 62]",87142622,Sm2Si2O7
Gd2Si2O7,mp-13775,3.2104,1.86848021,0.0,"{64: 2, 14: 2, 8: 7}","[8, 14, 64]",87142642,Gd2Si2O7
Tb2Si2O7,mp-17308,4.6357,2.89087803,0.0,"{65: 2, 14: 2, 8: 7}","[8, 14, 65]",87142652,Tb2Si2O7
Ho2Si2O7,mp-18662,5.0286,1.96024608,0.0,"{67: 2, 14: 2, 8: 7}","[8, 14, 67]",87142672,Ho2Si2O7
Er2Si2O7,mp-7064,4.7985999999999995,1.82361874,0.0,"{68: 2, 14: 2, 8: 7}","[8, 14, 68]",87142682,Er2Si2O7
Tm2Si2O7,mp-1095467,4.7966999999999995,1.86432587,0.0,"{69: 2, 14: 2, 8: 7}","[8, 14, 69]",87142692,Tm2Si2O7
Lu2Si2O7,mp-7193,4.8449,1.8699164,0.0,"{71: 2, 14: 2, 8: 7}","[8, 14, 71]",87142712,Lu2Si2O7
Tl6Si2O7,mp-27228,1.5876000000000001,2.55804904,0.0,"{81: 6, 14: 2, 8: 7}","[8, 14, 81]",87142816,Tl6Si2O7
Si2Pb3O7,mp-21767,2.6294,3.76560468,0.0,"{14: 2, 82: 3, 8: 7}","[8, 14, 82]",87142823,Si2Pb3O7
Na2CaZrSi2O7F2,mp-1210579,4.6892,5.54860033,0.0,"{11: 2, 20: 1, 40: 1, 14: 2, 8: 7, 9: 2}","[8, 9, 11, 14, 20, 40]",8792112142201401,Na2Ca1Zr1Si2O7F2
Ca4Si2O7F2,mp-560163,4.5611999999999995,1.46834098,0.0,"{20: 4, 14: 2, 8: 7, 9: 2}","[8, 9, 14, 20]",8792142204,Ca4Si2O7F2
Na2Zn3(SiO4)2,mp-555300,2.7950999999999997,0.85596393,0.0,"{11: 2, 30: 3, 14: 2, 8: 8}","[8, 11, 14, 30]",88112142303,Na2Zn3Si2O8
SiAg6SO8,mp-555015,0.0,2.22340083,0.0,"{14: 1, 47: 6, 16: 1, 8: 8}","[8, 14, 16, 47]",88141161476,Si1Ag6S1O8
Rb7VSiO8,mp-1219828,2.4409,0.94276503,0.0,"{37: 7, 23: 1, 14: 1, 8: 8}","[8, 14, 23, 37]",88141231377,Rb7V1Si1O8
Pr3Si2ClO8,mp-554826,4.824999999999999,2.23458396,0.0,"{59: 3, 14: 2, 17: 1, 8: 8}","[8, 14, 17, 59]",88142171593,Pr3Si2Cl1O8
Nd3Si2ClO8,mp-559764,4.3816,2.24378949,0.0,"{60: 3, 14: 2, 17: 1, 8: 8}","[8, 14, 17, 60]",88142171603,Nd3Si2Cl1O8
Sm3Si2ClO8,mp-23622,4.4572,2.21827676,0.0,"{62: 3, 14: 2, 17: 1, 8: 8}","[8, 14, 17, 62]",88142171623,Sm3Si2Cl1O8
SrGa2(SiO4)2,mp-14235,4.4647,0.71049871,0.0,"{38: 1, 31: 2, 14: 2, 8: 8}","[8, 14, 31, 38]",88142312381,Sr1Ga2Si2O8
Cs2U(SiO4)2,mp-581584,2.2215000000000003,3.24384304,0.0,"{55: 2, 92: 1, 14: 2, 8: 8}","[8, 14, 55, 92]",88142552921,Cs2U1Si2O8
Cs4Si3O8,mp-1019713,3.6580000000000004,1.3601412,0.0,"{55: 4, 14: 3, 8: 8}","[8, 14, 55]",88143554,Cs4Si3O8
NaCaTiMnSi2O8F,mp-1210293,2.4152,2.74717168,0.0,"{11: 1, 20: 1, 22: 1, 25: 1, 14: 2, 8: 8, 9: 1}","[8, 9, 11, 14, 20, 22, 25]",8891111142201221251,Na1Ca1Ti1Mn1Si2O8F1
Na2U2Si(O4F)2,mp-560638,1.75,1.14776401,0.0,"{11: 2, 92: 2, 14: 1, 8: 8, 9: 2}","[8, 9, 11, 14, 92]",8892112141922,Na2U2Si1O8F2
Mg5Si2(O4F)2,mp-1195642,4.9129000000000005,2.35755537,0.0,"{12: 5, 14: 2, 8: 8, 9: 2}","[8, 9, 12, 14]",8892125142,Mg5Si2O8F2
Na2Ti2Si2O9,mp-5996,3.2630000000000003,2.10158719,0.0,"{11: 2, 22: 2, 14: 2, 8: 9}","[8, 11, 14, 22]",89112142222,Na2Ti2Si2O9
Na3Tm(SiO3)3,mp-1195518,4.228,1.26041084,0.0,"{11: 3, 69: 1, 14: 3, 8: 9}","[8, 11, 14, 69]",89113143691,Na3Tm1Si3O9
Ce2Ti2SiO9,mp-560000,0.0,6.78689282,0.0,"{58: 2, 22: 2, 14: 1, 8: 9}","[8, 14, 22, 58]",89141222582,Ce2Ti2Si1O9
Ca3ZrSi2O9,mp-15004,4.1198999999999995,1.91382321,0.0,"{20: 3, 40: 1, 14: 2, 8: 9}","[8, 14, 20, 40]",89142203401,Ca3Zr1Si2O9
Ca3Si2SnO9,mp-15095,3.5221,2.70560732,0.0,"{20: 3, 14: 2, 50: 1, 8: 9}","[8, 14, 20, 50]",89142203501,Ca3Si2Sn1O9
Ca3HfSi2O9,mp-15003,4.678,2.04527561,0.0,"{20: 3, 72: 1, 14: 2, 8: 9}","[8, 14, 20, 72]",89142203721,Ca3Hf1Si2O9
In2Si2Pb2O9,mp-542840,3.3467000000000002,3.77338598,0.0,"{49: 2, 14: 2, 82: 2, 8: 9}","[8, 14, 49, 82]",89142492822,In2Si2Pb2O9
K2Ti(SiO3)3,mp-556719,3.3701,0.66346618,0.0,"{19: 2, 22: 1, 14: 3, 8: 9}","[8, 14, 19, 22]",89143192221,K2Ti1Si3O9
K2Zr(SiO3)3,mp-6600,4.813,0.85368116,0.0,"{19: 2, 40: 1, 14: 3, 8: 9}","[8, 14, 19, 40]",89143192401,K2Zr1Si3O9
K2Si3SnO9,mp-556797,3.8617,0.93519359,0.0,"{19: 2, 14: 3, 50: 1, 8: 9}","[8, 14, 19, 50]",89143192501,K2Si3Sn1O9
K4Ca(SiO3)3,mp-1202514,4.2765,1.16143639,0.0,"{19: 4, 20: 1, 14: 3, 8: 9}","[8, 14, 19, 20]",89143194201,K4Ca1Si3O9
K4Sr(SiO3)3,mp-1203391,4.1688,0.97438422,0.0,"{19: 4, 38: 1, 14: 3, 8: 9}","[8, 14, 19, 38]",89143194381,K4Sr1Si3O9
Rb2Ca2(SiO3)3,mp-1020641,4.133500000000001,0.76060159,0.0,"{37: 2, 20: 2, 14: 3, 8: 9}","[8, 14, 20, 37]",89143202372,Rb2Ca2Si3O9
Rb2Ti(SiO3)3,mp-17037,3.1377000000000006,1.36936048,0.0,"{37: 2, 22: 1, 14: 3, 8: 9}","[8, 14, 22, 37]",89143221372,Rb2Ti1Si3O9
Rb2Si3SnO9,mp-17382,3.7986,1.77478722,0.0,"{37: 2, 14: 3, 50: 1, 8: 9}","[8, 14, 37, 50]",89143372501,Rb2Si3Sn1O9
Cs2Zr(SiO3)3,mp-6694,4.789899999999999,1.44091679,0.0,"{55: 2, 40: 1, 14: 3, 8: 9}","[8, 14, 40, 55]",89143401552,Cs2Zr1Si3O9
Cs5Si3AgO9,mp-554842,2.6818,1.45806594,0.0,"{55: 5, 14: 3, 47: 1, 8: 9}","[8, 14, 47, 55]",89143471555,Cs5Si3Ag1O9
Cs2Si3SnO9,mp-554359,3.7921,1.40271503,0.0,"{55: 2, 14: 3, 50: 1, 8: 9}","[8, 14, 50, 55]",89143501552,Cs2Si3Sn1O9
K2Si4O9,mp-558603,4.4376,0.18754519,0.0,"{19: 2, 14: 4, 8: 9}","[8, 14, 19]",89144192,K2Si4O9
Cs10Si7O9,mp-581173,1.3593000000000002,2.63888534,0.0,"{55: 10, 14: 7, 8: 9}","[8, 14, 55]",891475510,Cs10Si7O9
Na3Si3SnO9F,mp-560937,3.8391999999999995,1.08876065,0.0,"{11: 3, 14: 3, 50: 1, 8: 9, 9: 1}","[8, 9, 11, 14, 50]",8991113143501,Na3Si3Sn1O9F1
SiF4,mp-1818,7.7173,-4.95091498,0.0,"{14: 1, 9: 4}","[9, 14]",94141,Si1F4
Na2SiF6,mp-3775,6.9951,-2.36359488,0.0,"{11: 2, 14: 1, 9: 6}","[9, 11, 14]",96112141,Na2Si1F6
K2SiF6,mp-13002,7.1895,-2.31813997,0.0,"{19: 2, 14: 1, 9: 6}","[9, 14, 19]",96141192,K2Si1F6
Rb2SiF6,mp-10492,6.9955,-2.81537149,0.0,"{37: 2, 14: 1, 9: 6}","[9, 14, 37]",96141372,Rb2Si1F6
Cs2SiF6,mp-4047,6.8901,-2.48760655,0.0,"{55: 2, 14: 1, 9: 6}","[9, 14, 55]",96141552,Cs2Si1F6
Tl2SiF6,mp-5033,4.976,-0.55300711,0.0,"{81: 2, 14: 1, 9: 6}","[9, 14, 81]",96141812,Tl2Si1F6
K3SiF7,mp-13859,5.9294,-1.37524607,0.0,"{19: 3, 14: 1, 9: 7}","[9, 14, 19]",97141193,K3Si1F7
Cs3SiF7,mp-13748,5.633800000000001,-0.58839684,0.0,"{55: 3, 14: 1, 9: 7}","[9, 14, 55]",97141553,Cs3Si1F7
Tl3SiF7,mp-1133284,3.5757,4.19696799,0.0,"{81: 3, 14: 1, 9: 7}","[9, 14, 81]",97141813,Tl3Si1F7