formula,material_id,band_gap,efermi,energy_above_hull,comp_atoms,sorted_keys_comp_atoms,comp_number,new_formula
TbAlO3,mp-4434,5.598200000000001,4.46064312,0.009000524750000238,"{65: 1, 13: 1, 8: 3}","[8, 13, 65]",83131651,Tb1Al1O3
DyAlO3,mp-756630,5.723000000000001,4.45822669,0.012823482999998248,"{66: 1, 13: 1, 8: 3}","[8, 13, 66]",83131661,Dy1Al1O3
HoAlO3,mp-4891,5.8359,4.36554776,0.01569461464999833,"{67: 1, 13: 1, 8: 3}","[8, 13, 67]",83131671,Ho1Al1O3
ErAlO3,mp-756458,5.803000000000001,4.36245766,0.017832044700002214,"{68: 1, 13: 1, 8: 3}","[8, 13, 68]",83131681,Er1Al1O3
TmAlO3,mp-756281,5.7744,4.34145592,0.019079384199987004,"{69: 1, 13: 1, 8: 3}","[8, 13, 69]",83131691,Tm1Al1O3
LuAlO3,mp-755574,5.742900000000001,4.26568036,0.02103255024998596,"{71: 1, 13: 1, 8: 3}","[8, 13, 71]",83131711,Lu1Al1O3
AlWO3,mp-1046804,0.8598999999999997,5.08192779,0.2858516632499999,"{13: 1, 74: 1, 8: 3}","[8, 13, 74]",83131741,Al1W1O3
AlIrO3,mp-1183133,0.0,6.36720595,1.0826480700454537,"{13: 1, 77: 1, 8: 3}","[8, 13, 77]",83131771,Al1Ir1O3
AlAuO3,mp-1183159,0.0,4.41367711,0.5752346087272722,"{13: 1, 79: 1, 8: 3}","[8, 13, 79]",83131791,Al1Au1O3
AlTlO3,mp-768539,0.7376999999999994,6.25299205,0.08892911613636478,"{13: 1, 81: 1, 8: 3}","[8, 13, 81]",83131811,Al1Tl1O3
AlPbO3,mp-1183154,0.0,6.45797942,0.2562708705909049,"{13: 1, 82: 1, 8: 3}","[8, 13, 82]",83131821,Al1Pb1O3
AlBiO3,mp-551918,2.977899999999999,6.43632044,0.05333506425000145,"{13: 1, 83: 1, 8: 3}","[8, 13, 83]",83131831,Al1Bi1O3
UAlO3,mp-972367,0.0,11.7434489,0.17377716485061256,"{92: 1, 13: 1, 8: 3}","[8, 13, 92]",83131921,U1Al1O3
NpAlO3,mp-1186110,0.0,11.94494169,0.042764798062499665,"{93: 1, 13: 1, 8: 3}","[8, 13, 93]",83131931,Np1Al1O3
Al8O3,mp-1244893,0.0,1.43970356,0.16783622090909134,"{13: 8, 8: 3}","[8, 13]",83138,Al8O3
NaMg30AlO32,mp-1038206,4.3812999999999995,3.93931872,0.01435179292968769,"{11: 1, 12: 30, 13: 1, 8: 32}","[8, 11, 12, 13]",8321111230131,Na1Mg30Al1O32
KNa6Al7Si9O32,mp-695648,3.8663,1.74879546,0.2683494357727261,"{19: 1, 11: 6, 13: 7, 14: 9, 8: 32}","[8, 11, 13, 14, 19]",832116137149191,K1Na6Al7Si9O32
Na7Al4P9O32,mp-1020724,4.7512,1.97676977,0.006266744439101579,"{11: 7, 13: 4, 15: 9, 8: 32}","[8, 11, 13, 15]",832117134159,Na7Al4P9O32
KNa7Al8(SiO4)8,mp-1223470,4.3764,1.1460694,0.008446458772318977,"{19: 1, 11: 7, 13: 8, 14: 8, 8: 32}","[8, 11, 13, 14, 19]",832117138148191,K1Na7Al8Si8O32
Mg30AlSiO32,mp-1038247,0.3338000000000001,8.31811485,0.0971666742187498,"{12: 30, 13: 1, 14: 1, 8: 32}","[8, 12, 13, 14]",8321230131141,Mg30Al1Si1O32
KMg30AlO32,mp-1098637,4.2468,3.92698951,0.05157429268554736,"{19: 1, 12: 30, 13: 1, 8: 32}","[8, 12, 13, 19]",8321230131191,K1Mg30Al1O32
CaMg30AlO32,mp-1038346,0.35389999999999944,9.04061183,0.04559975407986361,"{20: 1, 12: 30, 13: 1, 8: 32}","[8, 12, 13, 20]",8321230131201,Ca1Mg30Al1O32
Mg30TiAlO32,mp-1038237,0.21170000000000044,9.06438866,0.059335753062500274,"{12: 30, 22: 1, 13: 1, 8: 32}","[8, 12, 13, 22]",8321230131221,Mg30Ti1Al1O32
Mg30AlVO32,mp-1038339,0.0,9.20550942,0.047838846905380095,"{12: 30, 13: 1, 23: 1, 8: 32}","[8, 12, 13, 23]",8321230131231,Mg30Al1V1O32
Mg30AlCrO32,mp-1038272,0.0,8.2429875,0.04669892464843528,"{12: 30, 13: 1, 24: 1, 8: 32}","[8, 12, 13, 24]",8321230131241,Mg30Al1Cr1O32
Mg30MnAlO32,mp-1038409,0.0,9.07851144,0.049019785797413284,"{12: 30, 25: 1, 13: 1, 8: 32}","[8, 12, 13, 25]",8321230131251,Mg30Mn1Al1O32
Mg30AlCoO32,mp-1038344,1.3438000000000008,6.94877301,0.029573655117187236,"{12: 30, 13: 1, 27: 1, 8: 32}","[8, 12, 13, 27]",8321230131271,Mg30Al1Co1O32
Mg30AlZnO32,mp-1038353,0.7263999999999999,8.53669516,0.04836491499999962,"{12: 30, 13: 1, 30: 1, 8: 32}","[8, 12, 13, 30]",8321230131301,Mg30Al1Zn1O32
RbMg30AlO32,mp-1038203,3.951600000000001,4.07174588,0.07820720843750006,"{37: 1, 12: 30, 13: 1, 8: 32}","[8, 12, 13, 37]",8321230131371,Rb1Mg30Al1O32
SrMg30AlO32,mp-1037969,0.0,8.8819112,0.06804576349794988,"{38: 1, 12: 30, 13: 1, 8: 32}","[8, 12, 13, 38]",8321230131381,Sr1Mg30Al1O32
Mg30NbAlO32,mp-1038214,0.0,9.00860945,0.08955854087890902,"{12: 30, 41: 1, 13: 1, 8: 32}","[8, 12, 13, 41]",8321230131411,Mg30Nb1Al1O32
Mg30AlCdO32,mp-1037998,0.7916000000000007,8.35538842,0.059101238554688074,"{12: 30, 13: 1, 48: 1, 8: 32}","[8, 12, 13, 48]",8321230131481,Mg30Al1Cd1O32
Mg30AlSnO32,mp-1038258,0.0,8.89054721,0.09696340667968784,"{12: 30, 13: 1, 50: 1, 8: 32}","[8, 12, 13, 50]",8321230131501,Mg30Al1Sn1O32
CsMg30AlO32,mp-1038225,3.1667999999999994,4.71501737,0.11971016921875055,"{55: 1, 12: 30, 13: 1, 8: 32}","[8, 12, 13, 55]",8321230131551,Cs1Mg30Al1O32
HfMg30AlO32,mp-1037722,0.0,9.0004625,0.1025942198164067,"{72: 1, 12: 30, 13: 1, 8: 32}","[8, 12, 13, 72]",8321230131721,Hf1Mg30Al1O32
Mg30AlBiO32,mp-1038205,0.2928999999999995,8.00644266,0.11561049503906151,"{12: 30, 13: 1, 83: 1, 8: 32}","[8, 12, 13, 83]",8321230131831,Mg30Al1Bi1O32
Ca12Al14O33,mp-532016,2.1738,2.93469709,0.00634261644060885,"{20: 12, 13: 14, 8: 33}","[8, 13, 20]",83313142012,Ca12Al14O33
Sr12Al14O33,mp-1094063,1.5899999999999999,2.72152316,0.0014632134710534928,"{38: 12, 13: 14, 8: 33}","[8, 13, 38]",83313143812,Sr12Al14O33
Ca2Al4Si8O33,mp-1200127,0.015000000000000013,-0.16673969,0.3860998235670561,"{20: 2, 13: 4, 14: 8, 8: 33}","[8, 13, 14, 20]",833134148202,Ca2Al4Si8O33
SrAl22O34,mp-531590,4.4761,3.77802647,0.013491566842104952,"{38: 1, 13: 22, 8: 34}","[8, 13, 38]",8341322381,Sr1Al22O34
Al22CdO34,mp-674298,2.2583999999999995,3.73077756,0.029695692543896257,"{13: 22, 48: 1, 8: 34}","[8, 13, 48]",8341322481,Al22Cd1O34
LaAl22O34,mp-532198,0.0,8.34097936,0.03593447819130802,"{57: 1, 13: 22, 8: 34}","[8, 13, 57]",8341322571,La1Al22O34
PrAl22O34,mp-1256766,0.1269999999999989,8.01571542,0.03707387032163556,"{59: 1, 13: 22, 8: 34}","[8, 13, 59]",8341322591,Pr1Al22O34
GdAl22O34,mp-530682,0.0,8.25813535,0.04055445424463855,"{64: 1, 13: 22, 8: 34}","[8, 13, 64]",8341322641,Gd1Al22O34
Al22PbO34,mp-530984,3.595,3.91233739,0.01187922666669472,"{13: 22, 82: 1, 8: 34}","[8, 13, 82]",8341322821,Al22Pb1O34
Na9Mg9Al(Si2O7)5,mp-1173784,4.1184,2.73659568,0.03701685199218563,"{11: 9, 12: 9, 13: 1, 14: 10, 8: 35}","[8, 11, 12, 13, 14]",8351191291311410,Na9Mg9Al1Si10O35
Ca14Al12Zn4O35,mp-1214214,0.5589000000000004,6.20055639,0.05297298296703712,"{20: 14, 13: 12, 30: 4, 8: 35}","[8, 13, 20, 30]",83513122014304,Ca14Al12Zn4O35
Na2Ca17Al12O36,mp-1222730,3.7954999999999997,2.16040386,0.03930444650323395,"{11: 2, 20: 17, 13: 12, 8: 36}","[8, 11, 13, 20]",83611213122017,Na2Ca17Al12O36
Na6MgAl4Si13O36,mp-677551,5.029300000000001,3.49379275,0.04193454559895482,"{11: 6, 12: 1, 13: 4, 14: 13, 8: 36}","[8, 11, 12, 13, 14]",8361161211341413,Na6Mg1Al4Si13O36
KMg4Al9(SiO4)9,mp-686653,3.9501999999999997,1.89551717,0.0215679175932193,"{19: 1, 12: 4, 13: 9, 14: 9, 8: 36}","[8, 12, 13, 14, 19]",836124139149191,K1Mg4Al9Si9O36
CsMg4Al9(SiO4)9,mp-695133,4.0440000000000005,1.87241827,0.019428331796626175,"{55: 1, 12: 4, 13: 9, 14: 9, 8: 36}","[8, 12, 13, 14, 55]",836124139149551,Cs1Mg4Al9Si9O36
KCa5Mg5Al(SiO3)12,mp-534793,4.8377,3.24486757,0.024673306222207536,"{19: 1, 20: 5, 12: 5, 13: 1, 14: 12, 8: 36}","[8, 12, 13, 14, 19, 20]",8361251311412191205,K1Ca5Mg5Al1Si12O36
Ca6Mg5Al2Si11O36,mp-699405,4.8512,3.24227257,0.008642317472222771,"{20: 6, 12: 5, 13: 2, 14: 11, 8: 36}","[8, 12, 13, 14, 20]",8361251321411206,Ca6Mg5Al2Si11O36
KAl3(P2O9)4,mp-1212433,0.010599999999999943,-0.91092857,0.4143578604166791,"{19: 1, 13: 3, 15: 8, 8: 36}","[8, 13, 15, 19]",836133158191,K1Al3P8O36
La3Ti5Al15O37,mp-555471,1.5589000000000004,5.92631706,0.12357111327081505,"{57: 3, 22: 5, 13: 15, 8: 37}","[8, 13, 22, 57]",8371315225573,La3Ti5Al15O37
Al13Si5ClO38,mp-1198152,0.0,1.88955108,0.34037481842969264,"{13: 13, 14: 5, 17: 1, 8: 38}","[8, 13, 14, 17]",8381313145171,Al13Si5Cl1O38
Sr2Ti5Al17O38,mp-1208847,0.0,4.39478484,0.021470469126303016,"{38: 2, 22: 5, 13: 17, 8: 38}","[8, 13, 22, 38]",8381317225382,Sr2Ti5Al17O38
CaAl2(Si8O19)2,mp-1229169,0.6122000000000001,-1.22696329,0.1364369267995773,"{20: 1, 13: 2, 14: 16, 8: 38}","[8, 13, 14, 20]",8381321416201,Ca1Al2Si16O38
K2Al2O3F2,mp-974451,4.0223,0.27594751,0.011896061078427778,"{19: 2, 13: 2, 8: 3, 9: 2}","[8, 9, 13, 19]",8392132192,K2Al2O3F2
Al(OF)3,mp-1096807,0.3820000000000001,-3.42180844,1.0736273703571415,"{13: 1, 8: 3, 9: 3}","[8, 9, 13]",8393131,Al1O3F3
Mg7Al22O40,mp-530826,3.5233,9.0136187,0.03826856688405833,"{12: 7, 13: 22, 8: 40}","[8, 12, 13]",8401271322,Mg7Al22O40
K5AlCr4(MoO4)10,mp-1224806,2.7593,-0.55430864,0.00907186799999593,"{19: 5, 13: 1, 24: 4, 42: 10, 8: 40}","[8, 13, 19, 24, 42]",8401311952444210,K5Al1Cr4Mo10O40
Al24Zn3O40,mp-531864,0.0,4.7466868,0.0836552178607084,"{13: 24, 30: 3, 8: 40}","[8, 13, 30]",8401324303,Al24Zn3O40
Sr3CaAl8(SiO5)8,mp-1218616,0.21950000000000003,2.65867892,0.2661529309040418,"{38: 3, 20: 1, 13: 8, 14: 8, 8: 40}","[8, 13, 14, 20, 38]",840138148201383,Sr3Ca1Al8Si8O40
SrCa3Al8(SiO5)8,mp-1218635,0.026899999999999924,2.55339615,0.27023361804545054,"{38: 1, 20: 3, 13: 8, 14: 8, 8: 40}","[8, 13, 14, 20, 38]",840138148203381,Sr1Ca3Al8Si8O40
Sr2Ca14Mn14Al2O41,mp-1247716,0.11809999999999965,3.35508947,0.1094101353701804,"{38: 2, 20: 14, 25: 14, 13: 2, 8: 41}","[8, 13, 20, 25, 38]",84113220142514382,Sr2Ca14Mn14Al2O41
Ca16Mn14Al2O41,mp-1247609,0.04280000000000017,3.30713394,0.10770788706131373,"{20: 16, 25: 14, 13: 2, 8: 41}","[8, 13, 20, 25]",84113220162514,Ca16Mn14Al2O41
MgScAlO4,mp-1221961,4.243,7.53185082,0.048233154553567914,"{12: 1, 21: 1, 13: 1, 8: 4}","[8, 12, 13, 21]",84121131211,Mg1Sc1Al1O4
MgAlCrO4,mp-2227439,2.4563000000000006,4.34471545,0.3269289167857101,"{12: 1, 13: 1, 24: 1, 8: 4}","[8, 12, 13, 24]",84121131241,Mg1Al1Cr1O4
MgAlSbO4,mp-2226774,0.31620000000000026,5.43982042,0.3962559358928619,"{12: 1, 13: 1, 51: 1, 8: 4}","[8, 12, 13, 51]",84121131511,Mg1Al1Sb1O4
Mg3AlO4,mp-1024039,0.0,8.52104919,0.33407131812499813,"{12: 3, 13: 1, 8: 4}","[8, 12, 13]",84123131,Mg3Al1O4
AlSiAgO4,mp-1228164,2.5624000000000002,-0.33481568,0.034308253095240104,"{13: 1, 14: 1, 47: 1, 8: 4}","[8, 13, 14, 47]",84131141471,Al1Si1Ag1O4
CaNdAlO4,mp-1227041,2.9266000000000005,4.25469996,0.008911229285715194,"{20: 1, 60: 1, 13: 1, 8: 4}","[8, 13, 20, 60]",84131201601,Ca1Nd1Al1O4
CaSmAlO4,mp-1227060,3.1856999999999998,4.04506915,0.011000209719371767,"{20: 1, 62: 1, 13: 1, 8: 4}","[8, 13, 20, 62]",84131201621,Ca1Sm1Al1O4
CaGdAlO4,mp-1227092,2.4483000000000006,4.163099,0.026640910153025388,"{20: 1, 64: 1, 13: 1, 8: 4}","[8, 13, 20, 64]",84131201641,Ca1Gd1Al1O4
Ti2AlO4,mp-1262424,0.0,7.80758438,0.06355347750000462,"{22: 2, 13: 1, 8: 4}","[8, 13, 22]",84131222,Ti2Al1O4
AlCrO4,mp-753658,0.0,3.52196705,0.12438704007575918,"{13: 1, 24: 1, 8: 4}","[8, 13, 24]",84131241,Al1Cr1O4
AlCr2O4,mp-1393022,2.089600000000001,4.98636762,0.1268942251190488,"{13: 1, 24: 2, 8: 4}","[8, 13, 24]",84131242,Al1Cr2O4
Mn2AlO4,mp-768538,0.0,4.19968042,0.06565248999999973,"{25: 2, 13: 1, 8: 4}","[8, 13, 25]",84131252,Mn2Al1O4
Al(CoO2)2,mp-753184,0.0,4.3913038,0.03193733607142857,"{13: 1, 27: 2, 8: 4}","[8, 13, 27]",84131272,Al1Co2O4
SrLaAlO4,mp-1218184,2.895900000000001,5.45117452,0.016881118650800886,"{38: 1, 57: 1, 13: 1, 8: 4}","[8, 13, 38, 57]",84131381571,Sr1La1Al1O4
SrCeAlO4,mp-1218323,0.0,8.02831706,0.04445861858631428,"{38: 1, 58: 1, 13: 1, 8: 4}","[8, 13, 38, 58]",84131381581,Sr1Ce1Al1O4
SrPrAlO4,mp-1217963,2.9925,3.89199587,0.00627469055273,"{38: 1, 59: 1, 13: 1, 8: 4}","[8, 13, 38, 59]",84131381591,Sr1Pr1Al1O4
SrNdAlO4,mp-1218150,3.0873000000000004,3.83468588,0.011421656190483631,"{38: 1, 60: 1, 13: 1, 8: 4}","[8, 13, 38, 60]",84131381601,Sr1Nd1Al1O4
SrSmAlO4,mp-1217962,3.2725999999999997,3.67067864,0.026902797514877896,"{38: 1, 62: 1, 13: 1, 8: 4}","[8, 13, 38, 62]",84131381621,Sr1Sm1Al1O4
SrEuAlO4,mp-1218276,0.0,3.64557748,0.1419491352827329,"{38: 1, 63: 1, 13: 1, 8: 4}","[8, 13, 38, 63]",84131381631,Sr1Eu1Al1O4
Al(SnO2)2,mp-1444267,0.0,6.73268483,0.3776108659821462,"{13: 1, 50: 2, 8: 4}","[8, 13, 50]",84131502,Al1Sn2O4
AlTeO4,mp-752394,0.0,6.99300675,0.07693424678030336,"{13: 1, 52: 1, 8: 4}","[8, 13, 52]",84131521,Al1Te1O4
Al(WO2)2,mp-1400230,0.0,7.55571149,0.6129581676785651,"{13: 1, 74: 2, 8: 4}","[8, 13, 74]",84131742,Al1W2O4
Al(BiO2)2,mp-1096811,0.0,6.89122183,0.3586795976785755,"{13: 1, 83: 2, 8: 4}","[8, 13, 83]",84131832,Al1Bi2O4
CaAl2O4,mp-2963,4.4681,1.97497557,0.0007486029760892521,"{20: 1, 13: 2, 8: 4}","[8, 13, 20]",84132201,Ca1Al2O4
Al2CdO4,mp-36866,2.676,3.7441158,0.02420491999997587,"{13: 2, 48: 1, 8: 4}","[8, 13, 48]",84132481,Al2Cd1O4
Al2HgO4,mp-756317,1.3460999999999999,4.03485016,0.11471308483766407,"{13: 2, 80: 1, 8: 4}","[8, 13, 80]",84132801,Al2Hg1O4
Sr2Ca14Mn14Al2O43,mp-1247643,0.06160000000000032,3.24874392,0.08720736498253512,"{38: 2, 20: 14, 25: 14, 13: 2, 8: 43}","[8, 13, 20, 25, 38]",84313220142514382,Sr2Ca14Mn14Al2O43
Ca16Mn14Al2O43,mp-1247587,0.08769999999999989,3.39528148,0.08427602696190739,"{20: 16, 25: 14, 13: 2, 8: 43}","[8, 13, 20, 25]",84313220162514,Ca16Mn14Al2O43
Sr2Ca14Mn14Al2O45,mp-1247722,0.0,3.34119991,0.07530929604358505,"{38: 2, 20: 14, 25: 14, 13: 2, 8: 45}","[8, 13, 20, 25, 38]",84513220142514382,Sr2Ca14Mn14Al2O45
Ca16Mn14Al2O45,mp-1247668,0.0,3.40026274,0.07175051284166489,"{20: 16, 25: 14, 13: 2, 8: 45}","[8, 13, 20, 25]",84513220162514,Ca16Mn14Al2O45
Sr2Ca14Mn14Al2O47,mp-1247597,0.1513,3.11624032,0.06537722958257675,"{38: 2, 20: 14, 25: 14, 13: 2, 8: 47}","[8, 13, 20, 25, 38]",84713220142514382,Sr2Ca14Mn14Al2O47
Ca16Mn14Al2O47,mp-1247697,0.2797999999999998,3.07814401,0.05764119652501609,"{20: 16, 25: 14, 13: 2, 8: 47}","[8, 13, 20, 25]",84713220162514,Ca16Mn14Al2O47
Na10Mg4Al4Si3(S3O16)3,mp-2714685,3.4653,2.86932222,0.1147152747222222,"{11: 10, 12: 4, 13: 4, 14: 3, 16: 9, 8: 48}","[8, 11, 12, 13, 14, 16]",8481110124134143169,Na10Mg4Al4Si3S9O48
RbNa10Al11Si13O48,mp-686588,2.5018,-0.44669188,0.10137290472891536,"{37: 1, 11: 10, 13: 11, 14: 13, 8: 48}","[8, 11, 13, 14, 37]",848111013111413371,Rb1Na10Al11Si13O48
Na10Nb7Al(SiO4)12,mp-2713429,2.7484,1.38548221,0.04197528539529749,"{11: 10, 41: 7, 13: 1, 14: 12, 8: 48}","[8, 11, 13, 14, 41]",84811101311412417,Na10Nb7Al1Si12O48
Na10Ta7Al(SiO4)12,mp-2713440,3.4791999999999996,1.63867276,0.0214609011538478,"{11: 10, 73: 7, 13: 1, 14: 12, 8: 48}","[8, 11, 13, 14, 73]",84811101311412737,Na10Ta7Al1Si12O48
Na10Nb6Al2Si11SO48,mp-2716473,2.1955999999999998,1.84405021,0.06877408493588621,"{11: 10, 41: 6, 13: 2, 14: 11, 16: 1, 8: 48}","[8, 11, 13, 14, 16, 41]",84811101321411161416,Na10Nb6Al2Si11S1O48
Na10Ta6Al2Si11SO48,mp-2716362,3.0122,2.04658405,0.0566056164102573,"{11: 10, 73: 6, 13: 2, 14: 11, 16: 1, 8: 48}","[8, 11, 13, 14, 16, 73]",84811101321411161736,Na10Ta6Al2Si11S1O48
Na10Ca4Al4Si3(S3O16)3,mp-2714883,3.0114,2.35054069,0.17107473850426658,"{11: 10, 20: 4, 13: 4, 14: 3, 16: 9, 8: 48}","[8, 11, 13, 14, 16, 20]",8481110134143169204,Na10Ca4Al4Si3S9O48
Na10Al4Zn4Si3(S3O16)3,mp-2714817,3.3662,2.51692867,0.12377917565437624,"{11: 10, 13: 4, 30: 4, 14: 3, 16: 9, 8: 48}","[8, 11, 13, 14, 16, 30]",8481110134143169304,Na10Al4Zn4Si3S9O48
Na10Sc4Al4Si5S7O48,mp-2715150,3.6483000000000003,2.31840761,0.10209443592589995,"{11: 10, 21: 4, 13: 4, 14: 5, 16: 7, 8: 48}","[8, 11, 13, 14, 16, 21]",8481110134145167214,Na10Sc4Al4Si5S7O48
Na10Al4Ga4Si5S7O48,mp-2715110,3.2701999999999996,2.46178053,0.12107938089030412,"{11: 10, 13: 4, 31: 4, 14: 5, 16: 7, 8: 48}","[8, 11, 13, 14, 16, 31]",8481110134145167314,Na10Al4Ga4Si5S7O48
Na10Al4In4Si5S7O48,mp-2715196,2.8137999999999996,2.69891467,0.11280386957263122,"{11: 10, 13: 4, 49: 4, 14: 5, 16: 7, 8: 48}","[8, 11, 13, 14, 16, 49]",8481110134145167494,Na10Al4In4Si5S7O48
Na10La4Al4Si5S7O48,mp-2715096,3.7859000000000007,2.26793057,0.14827096655180938,"{11: 10, 57: 4, 13: 4, 14: 5, 16: 7, 8: 48}","[8, 11, 13, 14, 16, 57]",8481110134145167574,Na10La4Al4Si5S7O48
Na10Ti4Al4Si7S5O48,mp-2715846,1.854,2.54345803,0.11289649170940574,"{11: 10, 22: 4, 13: 4, 14: 7, 16: 5, 8: 48}","[8, 11, 13, 14, 16, 22]",8481110134147165224,Na10Ti4Al4Si7S5O48
Na10Al4Si7Ge4S5O48,mp-2715922,1.9930999999999996,2.73864557,0.16158160846154068,"{11: 10, 13: 4, 14: 7, 32: 4, 16: 5, 8: 48}","[8, 11, 13, 14, 16, 32]",8481110134147165324,Na10Al4Si7Ge4S5O48
Na10Zr4Al4Si7S5O48,mp-2716099,3.5245999999999995,2.12434898,0.13031641102563896,"{11: 10, 40: 4, 13: 4, 14: 7, 16: 5, 8: 48}","[8, 11, 13, 14, 16, 40]",8481110134147165404,Na10Zr4Al4Si7S5O48
Na10Al4Si7Sn4S5O48,mp-2716022,2.351,3.03047667,0.14678142311967068,"{11: 10, 13: 4, 14: 7, 50: 4, 16: 5, 8: 48}","[8, 11, 13, 14, 16, 50]",8481110134147165504,Na10Al4Si7Sn4S5O48
Na10Hf4Al4Si7S5O48,mp-2715970,3.8337000000000003,2.27047994,0.11798869316238392,"{11: 10, 72: 4, 13: 4, 14: 7, 16: 5, 8: 48}","[8, 11, 13, 14, 16, 72]",8481110134147165724,Na10Hf4Al4Si7S5O48
Na10Nb4Al4Si9(SO16)3,mp-2714319,2.1515999999999997,2.2409879,0.11126612957266868,"{11: 10, 41: 4, 13: 4, 14: 9, 16: 3, 8: 48}","[8, 11, 13, 14, 16, 41]",8481110134149163414,Na10Nb4Al4Si9S3O48
Na10Ta4Al4Si9(SO16)3,mp-2714313,2.9436,2.35126609,0.1052359582264657,"{11: 10, 73: 4, 13: 4, 14: 9, 16: 3, 8: 48}","[8, 11, 13, 14, 16, 73]",8481110134149163734,Na10Ta4Al4Si9S3O48
Na10Nb2Al6Si7S5O48,mp-2715965,2.1780999999999997,2.4609228,0.11933054222219752,"{11: 10, 41: 2, 13: 6, 14: 7, 16: 5, 8: 48}","[8, 11, 13, 14, 16, 41]",8481110136147165412,Na10Nb2Al6Si7S5O48
Na10Ta2Al6Si7S5O48,mp-2716112,3.0297,2.47389981,0.1167619059187821,"{11: 10, 73: 2, 13: 6, 14: 7, 16: 5, 8: 48}","[8, 11, 13, 14, 16, 73]",8481110136147165732,Na10Ta2Al6Si7S5O48
Na10NbAl7Si6(SO8)6,mp-2713455,1.9484,2.83167342,0.11350709571223039,"{11: 10, 41: 1, 13: 7, 14: 6, 16: 6, 8: 48}","[8, 11, 13, 14, 16, 41]",8481110137146166411,Na10Nb1Al7Si6S6O48
Na10TaAl7Si6(SO8)6,mp-2713445,2.7544,2.81708222,0.11242816418445223,"{11: 10, 73: 1, 13: 7, 14: 6, 16: 6, 8: 48}","[8, 11, 13, 14, 16, 73]",8481110137146166731,Na10Ta1Al7Si6S6O48
Na10NbAl7(PO4)12,mp-2716336,2.5341000000000005,2.491187,0.021411594967941205,"{11: 10, 41: 1, 13: 7, 15: 12, 8: 48}","[8, 11, 13, 15, 41]",84811101371512411,Na10Nb1Al7P12O48
Na10TaAl7(PO4)12,mp-2713209,3.4131,2.58546604,0.019662641517094848,"{11: 10, 73: 1, 13: 7, 15: 12, 8: 48}","[8, 11, 13, 15, 73]",84811101371512731,Na10Ta1Al7P12O48
Na10Al8Si5S7O48,mp-2714991,4.1263000000000005,3.00065984,0.11042929890313324,"{11: 10, 13: 8, 14: 5, 16: 7, 8: 48}","[8, 11, 13, 14, 16]",8481110138145167,Na10Al8Si5S7O48
Rb10NaAl11Si13O48,mp-705861,2.1539,0.04328743,0.11961988332831375,"{37: 10, 11: 1, 13: 11, 14: 13, 8: 48}","[8, 11, 13, 14, 37]",848111131114133710,Rb10Na1Al11Si13O48
Na14Mg4Al4Si5S7O48,mp-2715869,3.4970999999999997,2.97143041,0.12074694581861056,"{11: 14, 12: 4, 13: 4, 14: 5, 16: 7, 8: 48}","[8, 11, 12, 13, 14, 16]",8481114124134145167,Na14Mg4Al4Si5S7O48
Na14Nb5Al3(SiO4)12,mp-2712833,2.4958,2.19558488,0.051865314646852845,"{11: 14, 41: 5, 13: 3, 14: 12, 8: 48}","[8, 11, 13, 14, 41]",84811141331412415,Na14Nb5Al3Si12O48
Na14Ta5Al3(SiO4)12,mp-2712974,3.2929999999999997,2.25587833,0.04098282429116562,"{11: 14, 73: 5, 13: 3, 14: 12, 8: 48}","[8, 11, 13, 14, 73]",84811141331412735,Na14Ta5Al3Si12O48
Na14Nb4Al4Si11SO48,mp-2714559,2.3415000000000004,2.40721496,0.07063047044460724,"{11: 14, 41: 4, 13: 4, 14: 11, 16: 1, 8: 48}","[8, 11, 13, 14, 16, 41]",84811141341411161414,Na14Nb4Al4Si11S1O48
Na14Ta4Al4Si11SO48,mp-2714338,3.1306999999999996,2.56132837,0.06329508406249396,"{11: 14, 73: 4, 13: 4, 14: 11, 16: 1, 8: 48}","[8, 11, 13, 14, 16, 73]",84811141341411161734,Na14Ta4Al4Si11S1O48
Na14Ca4Al4Si5S7O48,mp-2715873,3.5233,2.54413345,0.12697868785569266,"{11: 14, 20: 4, 13: 4, 14: 5, 16: 7, 8: 48}","[8, 11, 13, 14, 16, 20]",8481114134145167204,Na14Ca4Al4Si5S7O48
Na14Al4Zn4Si5S7O48,mp-2715848,3.2045,2.74334899,0.135388310406511,"{11: 14, 13: 4, 30: 4, 14: 5, 16: 7, 8: 48}","[8, 11, 13, 14, 16, 30]",8481114134145167304,Na14Al4Zn4Si5S7O48
Na14Sc4Al4Si7S5O48,mp-2715763,3.5716000000000006,2.79273587,0.10754059306148722,"{11: 14, 21: 4, 13: 4, 14: 7, 16: 5, 8: 48}","[8, 11, 13, 14, 16, 21]",8481114134147165214,Na14Sc4Al4Si7S5O48