formula,material_id,band_gap,efermi,energy_above_hull,comp_atoms,sorted_keys_comp_atoms,comp_number,new_formula
Na6TaAl3Si2(PO6)4,mp-2715312,3.2178999999999998,2.6006896,0.043757529390626715,"{11: 6, 73: 1, 13: 3, 14: 2, 15: 4, 8: 24}","[8, 11, 13, 14, 15, 73]",824116133142154731,Na6Ta1Al3Si2P4O24
Na6NbAl3Si4(SO12)2,mp-2714415,2.0754000000000006,2.64701639,0.12354492728120814,"{11: 6, 41: 1, 13: 3, 14: 4, 16: 2, 8: 24}","[8, 11, 13, 14, 16, 41]",824116133144162411,Na6Nb1Al3Si4S2O24
Na6TaAl3Si4(SO12)2,mp-2714369,2.8291999999999997,2.80861624,0.12343980563538448,"{11: 6, 73: 1, 13: 3, 14: 4, 16: 2, 8: 24}","[8, 11, 13, 14, 16, 73]",824116133144162731,Na6Ta1Al3Si4S2O24
Na6Al4Si3(SO8)3,mp-2716138,3.3944,3.30845275,0.12337913150000013,"{11: 6, 13: 4, 14: 3, 16: 3, 8: 24}","[8, 11, 13, 14, 16]",824116134143163,Na6Al4Si3S3O24
Na7MgAl3Si3(SO8)3,mp-2714099,3.8403,2.95439498,0.1313971909969487,"{11: 7, 12: 1, 13: 3, 14: 3, 16: 3, 8: 24}","[8, 11, 12, 13, 14, 16]",824117121133143163,Na7Mg1Al3Si3S3O24
Na7MgAl3(PO4)6,mp-2714118,4.735799999999999,2.78176826,0.010947798507793927,"{11: 7, 12: 1, 13: 3, 15: 6, 8: 24}","[8, 11, 12, 13, 15]",824117121133156,Na7Mg1Al3P6O24
Na7Mg2Al2P5SO24,mp-2715909,4.6608,2.43988493,0.02329360681740944,"{11: 7, 12: 2, 13: 2, 15: 5, 16: 1, 8: 24}","[8, 11, 12, 13, 15, 16]",824117122132155161,Na7Mg2Al2P5S1O24
Na7Sc2Al2SiP5O24,mp-2715610,4.639200000000001,2.2698668,0.03327369436483174,"{11: 7, 21: 2, 13: 2, 14: 1, 15: 5, 8: 24}","[8, 11, 13, 14, 15, 21]",824117132141155212,Na7Sc2Al2Si1P5O24
Na7Al2Ga2SiP5O24,mp-2715525,4.0868,2.38737863,0.040515281371956924,"{11: 7, 13: 2, 31: 2, 14: 1, 15: 5, 8: 24}","[8, 11, 13, 14, 15, 31]",824117132141155312,Na7Al2Ga2Si1P5O24
Na7Al2In2SiP5O24,mp-2715687,3.8339,2.68710483,0.04066612633130351,"{11: 7, 13: 2, 49: 2, 14: 1, 15: 5, 8: 24}","[8, 11, 13, 14, 15, 49]",824117132141155492,Na7Al2In2Si1P5O24
Na7La2Al2SiP5O24,mp-2715632,4.2058,2.38045343,0.08885207621952418,"{11: 7, 57: 2, 13: 2, 14: 1, 15: 5, 8: 24}","[8, 11, 13, 14, 15, 57]",824117132141155572,Na7La2Al2Si1P5O24
Na7Ti2Al2Si3(PO8)3,mp-2714623,2.6470999999999996,2.43247141,0.05144523113075916,"{11: 7, 22: 2, 13: 2, 14: 3, 15: 3, 8: 24}","[8, 11, 13, 14, 15, 22]",824117132143153222,Na7Ti2Al2Si3P3O24
Na7Al2Si3Ge2(PO8)3,mp-2714634,3.5026,2.60149527,0.07921120156165173,"{11: 7, 13: 2, 14: 3, 32: 2, 15: 3, 8: 24}","[8, 11, 13, 14, 15, 32]",824117132143153322,Na7Al2Si3Ge2P3O24
Na7Zr2Al2Si3(PO8)3,mp-2714994,4.0963,2.18901264,0.048143846483738706,"{11: 7, 40: 2, 13: 2, 14: 3, 15: 3, 8: 24}","[8, 11, 13, 14, 15, 40]",824117132143153402,Na7Zr2Al2Si3P3O24
Na7Al2Si3Sn2(PO8)3,mp-2714794,3.3712,2.83998553,0.055552731480323914,"{11: 7, 13: 2, 14: 3, 50: 2, 15: 3, 8: 24}","[8, 11, 13, 14, 15, 50]",824117132143153502,Na7Al2Si3Sn2P3O24
Na7Hf2Al2Si3(PO8)3,mp-2715171,4.3717,2.23743132,0.043316404745827874,"{11: 7, 72: 2, 13: 2, 14: 3, 15: 3, 8: 24}","[8, 11, 13, 14, 15, 72]",824117132143153722,Na7Hf2Al2Si3P3O24
Na7Nb2Al2Si5PO24,mp-2714444,2.5519,2.37823912,0.07071834196646343,"{11: 7, 41: 2, 13: 2, 14: 5, 15: 1, 8: 24}","[8, 11, 13, 14, 15, 41]",824117132145151412,Na7Nb2Al2Si5P1O24
Na7Ta2Al2Si5PO24,mp-2714583,3.3421999999999996,2.47492986,0.06031556550304895,"{11: 7, 73: 2, 13: 2, 14: 5, 15: 1, 8: 24}","[8, 11, 13, 14, 15, 73]",824117132145151732,Na7Ta2Al2Si5P1O24
Na7Ca2Al2P5SO24,mp-2712862,4.4574,1.90339879,0.047464175081301185,"{11: 7, 20: 2, 13: 2, 15: 5, 16: 1, 8: 24}","[8, 11, 13, 15, 16, 20]",824117132155161202,Na7Ca2Al2P5S1O24
Na7Al2Zn2P5SO24,mp-2715845,4.2645,2.09574805,0.052961141410557744,"{11: 7, 13: 2, 30: 2, 15: 5, 16: 1, 8: 24}","[8, 11, 13, 15, 16, 30]",824117132155161302,Na7Al2Zn2P5S1O24
Na7NbAl3Si3(PO8)3,mp-2714800,2.2564,2.81705363,0.05821402579775903,"{11: 7, 41: 1, 13: 3, 14: 3, 15: 3, 8: 24}","[8, 11, 13, 14, 15, 41]",824117133143153411,Na7Nb1Al3Si3P3O24
Na7TaAl3Si3(PO8)3,mp-2715208,3.0836,2.83525995,0.05407724427336991,"{11: 7, 73: 1, 13: 3, 14: 3, 15: 3, 8: 24}","[8, 11, 13, 14, 15, 73]",824117133143153731,Na7Ta1Al3Si3P3O24
Na7CaAl3Si3(SO8)3,mp-2714191,3.6073000000000004,2.85428073,0.15672344066057242,"{11: 7, 20: 1, 13: 3, 14: 3, 16: 3, 8: 24}","[8, 11, 13, 14, 16, 20]",824117133143163201,Na7Ca1Al3Si3S3O24
Na7Al3ZnSi3(SO8)3,mp-2714185,3.701,2.94031278,0.14541139995935826,"{11: 7, 13: 3, 30: 1, 14: 3, 16: 3, 8: 24}","[8, 11, 13, 14, 16, 30]",824117133143163301,Na7Al3Zn1Si3S3O24
Na7CaAl3(PO4)6,mp-2714070,4.5555,2.3827477,0.03925718617631002,"{11: 7, 20: 1, 13: 3, 15: 6, 8: 24}","[8, 11, 13, 15, 20]",824117133156201,Na7Ca1Al3P6O24
Na7Al3Zn(PO4)6,mp-2714268,4.498900000000001,2.68320679,0.02863797841057103,"{11: 7, 13: 3, 30: 1, 15: 6, 8: 24}","[8, 11, 13, 15, 30]",824117133156301,Na7Al3Zn1P6O24
Na7Al4SiP5O24,mp-2715583,4.714499999999999,2.99049188,0.02632246109755787,"{11: 7, 13: 4, 14: 1, 15: 5, 8: 24}","[8, 11, 13, 14, 15]",824117134141155,Na7Al4Si1P5O24
Na8Mg2Al2Si3(SO8)3,mp-2715201,2.8950000000000005,3.32258543,0.13587941386904845,"{11: 8, 12: 2, 13: 2, 14: 3, 16: 3, 8: 24}","[8, 11, 12, 13, 14, 16]",824118122132143163,Na8Mg2Al2Si3S3O24
Na8Ca2Al2Si3(SO8)3,mp-2715007,2.9566999999999997,2.4408619,0.15578407543651185,"{11: 8, 20: 2, 13: 2, 14: 3, 16: 3, 8: 24}","[8, 11, 13, 14, 16, 20]",824118132143163202,Na8Ca2Al2Si3S3O24
Na8Al2Zn2Si3(SO8)3,mp-2715095,2.9552,2.95416014,0.15090235069444358,"{11: 8, 13: 2, 30: 2, 14: 3, 16: 3, 8: 24}","[8, 11, 13, 14, 16, 30]",824118132143163302,Na8Al2Zn2Si3S3O24
Na8Ti2Al2Si5SO24,mp-2715665,2.7176,2.63919679,0.07335688913194272,"{11: 8, 22: 2, 13: 2, 14: 5, 16: 1, 8: 24}","[8, 11, 13, 14, 16, 22]",824118132145161222,Na8Ti2Al2Si5S1O24
Na8Al2Si5Ge2SO24,mp-2715619,3.1651,2.82984012,0.09210987925595138,"{11: 8, 13: 2, 14: 5, 32: 2, 16: 1, 8: 24}","[8, 11, 13, 14, 16, 32]",824118132145161322,Na8Al2Si5Ge2S1O24
Na8Zr2Al2Si5SO24,mp-2715742,3.9379000000000004,2.35130092,0.07729744208331812,"{11: 8, 40: 2, 13: 2, 14: 5, 16: 1, 8: 24}","[8, 11, 13, 14, 16, 40]",824118132145161402,Na8Zr2Al2Si5S1O24
Na8Al2Si5Sn2SO24,mp-2715529,3.0896,2.98002398,0.07528125914682171,"{11: 8, 13: 2, 14: 5, 50: 2, 16: 1, 8: 24}","[8, 11, 13, 14, 16, 50]",824118132145161502,Na8Al2Si5Sn2S1O24
Na8Hf2Al2Si5SO24,mp-2715719,3.9927999999999995,2.49168771,0.07201379212301529,"{11: 8, 72: 2, 13: 2, 14: 5, 16: 1, 8: 24}","[8, 11, 13, 14, 16, 72]",824118132145161722,Na8Hf2Al2Si5S1O24
Na8NbAl3Si4(PO12)2,mp-2716156,2.1516,2.92421022,0.06739685811010787,"{11: 8, 41: 1, 13: 3, 14: 4, 15: 2, 8: 24}","[8, 11, 13, 14, 15, 41]",824118133144152411,Na8Nb1Al3Si4P2O24
Na8TaAl3Si4(PO12)2,mp-2716147,3.1204,3.04286327,0.061001650669641805,"{11: 8, 73: 1, 13: 3, 14: 4, 15: 2, 8: 24}","[8, 11, 13, 14, 15, 73]",824118133144152731,Na8Ta1Al3Si4P2O24
Na8NbAl3Si5SO24,mp-2715803,2.0616000000000003,3.12793855,0.0913691946726205,"{11: 8, 41: 1, 13: 3, 14: 5, 16: 1, 8: 24}","[8, 11, 13, 14, 16, 41]",824118133145161411,Na8Nb1Al3Si5S1O24
Na8TaAl3Si5SO24,mp-2715652,2.9433000000000002,3.05594155,0.08699120183531406,"{11: 8, 73: 1, 13: 3, 14: 5, 16: 1, 8: 24}","[8, 11, 13, 14, 16, 73]",824118133145161731,Na8Ta1Al3Si5S1O24
Na8Al3Ga3Si6(ClO12)2,mp-1220864,4.4060999999999995,-0.42986701,0.0011139799999986266,"{11: 8, 13: 3, 31: 3, 14: 6, 17: 2, 8: 24}","[8, 11, 13, 14, 17, 31]",824118133146172313,Na8Al3Ga3Si6Cl2O24
Na8Al6Si6BrClO24,mp-1220843,4.7201,-0.17714206,0.000708500978248594,"{11: 8, 13: 6, 14: 6, 35: 1, 17: 1, 8: 24}","[8, 11, 13, 14, 17, 35]",824118136146171351,Na8Al6Si6Br1Cl1O24
Na8Al6Si6IClO24,mp-1220856,4.2988,0.33244721,0.00249747097825459,"{11: 8, 13: 6, 14: 6, 53: 1, 17: 1, 8: 24}","[8, 11, 13, 14, 17, 53]",824118136146171531,Na8Al6Si6I1Cl1O24
La8MgAl7O24,mp-997590,0.0,7.51285952,0.028262735846588782,"{57: 8, 12: 1, 13: 7, 8: 24}","[8, 12, 13, 57]",824121137578,La8Mg1Al7O24
KCa3Mg3Al(SiO3)8,mp-1223597,4.9526,2.97649647,0.034774326333339545,"{19: 1, 20: 3, 12: 3, 13: 1, 14: 8, 8: 24}","[8, 12, 13, 14, 19, 20]",824123131148191203,K1Ca3Mg3Al1Si8O24
Mg3Al14O24,mp-39003,4.311599999999999,5.20551407,0.014595162560977926,"{12: 3, 13: 14, 8: 24}","[8, 12, 13]",8241231314,Mg3Al14O24
Nb3AlSi3(SO8)3,mp-2713733,1.7176999999999998,0.69976665,0.03528723759803842,"{41: 3, 13: 1, 14: 3, 16: 3, 8: 24}","[8, 13, 14, 16, 41]",824131143163413,Nb3Al1Si3S3O24
Ta3AlSi3(SO8)3,mp-2713779,2.1468,1.18438597,0.039351656102947885,"{73: 3, 13: 1, 14: 3, 16: 3, 8: 24}","[8, 13, 14, 16, 73]",824131143163733,Ta3Al1Si3S3O24
Ca6Mn3Al(SiO6)4,mp-1227703,0.0,2.33524723,0.18451151755582096,"{20: 6, 25: 3, 13: 1, 14: 4, 8: 24}","[8, 13, 14, 20, 25]",824131144206253,Ca6Mn3Al1Si4O24
Ca6AlCr3(SiO4)6,mp-1227522,3.4967000000000006,7.07299799,0.0015662743090167908,"{20: 6, 13: 1, 24: 3, 14: 6, 8: 24}","[8, 13, 14, 20, 24]",824131146206243,Ca6Al1Cr3Si6O24
Al2Cd(Si5O12)2,mp-686541,2.3918999999999997,-1.54695825,0.05446768022518356,"{13: 2, 48: 1, 14: 10, 8: 24}","[8, 13, 14, 48]",8241321410481,Al2Cd1Si10O24
Ti2Al2SiS5O24,mp-2712949,2.1852,1.12529235,0.03391566056372053,"{22: 2, 13: 2, 14: 1, 16: 5, 8: 24}","[8, 13, 14, 16, 22]",824132141165222,Ti2Al2Si1S5O24
Al2SiGe2S5O24,mp-2712925,2.0641,1.86026307,0.06002733249997938,"{13: 2, 14: 1, 32: 2, 16: 5, 8: 24}","[8, 13, 14, 16, 32]",824132141165322,Al2Si1Ge2S5O24
Zr2Al2SiS5O24,mp-2713096,3.5027000000000004,1.01855585,0.0337900272549021,"{40: 2, 13: 2, 14: 1, 16: 5, 8: 24}","[8, 13, 14, 16, 40]",824132141165402,Zr2Al2Si1S5O24
Al2SiSn2S5O24,mp-2712836,2.3456,2.05990713,0.05625644243871264,"{13: 2, 14: 1, 50: 2, 16: 5, 8: 24}","[8, 13, 14, 16, 50]",824132141165502,Al2Si1Sn2S5O24
Hf2Al2SiS5O24,mp-2712951,4.2199,1.10815114,0.02974381980392149,"{72: 2, 13: 2, 14: 1, 16: 5, 8: 24}","[8, 13, 14, 16, 72]",824132141165722,Hf2Al2Si1S5O24
MnAl2Sb2(PO4)6,mp-1221856,2.9471,1.96141639,0.006788356904772641,"{25: 1, 13: 2, 51: 2, 15: 6, 8: 24}","[8, 13, 15, 25, 51]",824132156251512,Mn1Al2Sb2P6O24
Cs2ZrAl2(MoO4)6,mp-1227000,3.4682999999999997,-0.67648683,0.00398400399999943,"{55: 2, 40: 1, 13: 2, 42: 6, 8: 24}","[8, 13, 40, 42, 55]",824132401426552,Cs2Zr1Al2Mo6O24
NbAl3SiS5O24,mp-2712850,1.6665,1.68523063,0.04792037387254844,"{41: 1, 13: 3, 14: 1, 16: 5, 8: 24}","[8, 13, 14, 16, 41]",824133141165411,Nb1Al3Si1S5O24
TaAl3SiS5O24,mp-2713074,2.1968999999999994,2.10311397,0.0494151206617639,"{73: 1, 13: 3, 14: 1, 16: 5, 8: 24}","[8, 13, 14, 16, 73]",824133141165731,Ta1Al3Si1S5O24
NbAl3P2(SO6)4,mp-2712914,2.3714,1.2769265,0.022174663333338174,"{41: 1, 13: 3, 15: 2, 16: 4, 8: 24}","[8, 13, 15, 16, 41]",824133152164411,Nb1Al3P2S4O24
TaAl3P2(SO6)4,mp-2713092,2.8715,1.37393277,0.021267253692838217,"{73: 1, 13: 3, 15: 2, 16: 4, 8: 24}","[8, 13, 15, 16, 73]",824133152164731,Ta1Al3P2S4O24
Ca3Al4Si8(ClO12)2,mp-677067,3.6088000000000005,-0.41335756,0.1343203080284905,"{20: 3, 13: 4, 14: 8, 17: 2, 8: 24}","[8, 13, 14, 17, 20]",824134148172203,Ca3Al4Si8Cl2O24
CaAl4(SiO3)8,mp-1227202,0.0,0.34467159,0.30886054703113075,"{20: 1, 13: 4, 14: 8, 8: 24}","[8, 13, 14, 20]",824134148201,Ca1Al4Si8O24
Ca2Al4Si8(W3O8)3,mp-1214742,0.0,4.67236315,0.925316834822695,"{20: 2, 13: 4, 14: 8, 74: 9, 8: 24}","[8, 13, 14, 20, 74]",824134148202749,Ca2Al4Si8W9O24
Sr6La2Ta3Al5O24,mp-676456,3.5058000000000007,4.69195487,0.012246552849997983,"{38: 6, 57: 2, 73: 3, 13: 5, 8: 24}","[8, 13, 38, 57, 73]",824135386572733,Sr6La2Ta3Al5O24
SrAl7Tl5Si5O24,mp-1173192,1.7671,0.49752622,0.1261164691825405,"{38: 1, 13: 7, 81: 5, 14: 5, 8: 24}","[8, 13, 14, 38, 81]",824137145381815,Sr1Al7Tl5Si5O24
La8Al7GaO24,mp-997585,3.458,7.75307286,0.01924553576785648,"{57: 8, 13: 7, 31: 1, 8: 24}","[8, 13, 31, 57]",824137311578,La8Al7Ga1O24
La8Al7InO24,mp-997589,3.3008000000000006,7.78724166,0.05986526312499407,"{57: 8, 13: 7, 49: 1, 8: 24}","[8, 13, 49, 57]",824137491578,La8Al7In1O24
La7ScAl8O24,mp-997587,2.5344999999999995,7.76307532,0.06636236717187316,"{57: 7, 21: 1, 13: 8, 8: 24}","[8, 13, 21, 57]",824138211577,La7Sc1Al8O24
Na8Al6Si6O25,mp-1173749,1.8672999999999997,2.0226567,0.044575469194440664,"{11: 8, 13: 6, 14: 6, 8: 25}","[8, 11, 13, 14]",825118136146,Na8Al6Si6O25
Ca5Ti3NbAl(SiO5)5,mp-720340,2.9144000000000005,2.75699355,0.007288855385414905,"{20: 5, 22: 3, 41: 1, 13: 1, 14: 5, 8: 25}","[8, 13, 14, 20, 22, 41]",825131145205223411,Ca5Ti3Nb1Al1Si5O25
Sr7Al12O25,mp-685242,1.2284000000000002,3.78150013,0.10823103855587757,"{38: 7, 13: 12, 8: 25}","[8, 13, 38]",8251312387,Sr7Al12O25
Sr4Al14O25,mp-5512,3.9458999999999995,7.06544526,0.002253967034899773,"{38: 4, 13: 14, 8: 25}","[8, 13, 38]",8251314384,Sr4Al14O25
Ca6TiAl5Si6(O5F)5,mp-695616,2.8637999999999995,3.2186979,0.0255196347395934,"{20: 6, 22: 1, 13: 5, 14: 6, 8: 25, 9: 5}","[8, 9, 13, 14, 20, 22]",82595135146206221,Ca6Ti1Al5Si6O25F5
K6Na3Ti2Al2Si8Cl3O26,mp-1223736,3.2034,0.80128116,0.005076078399963713,"{19: 6, 11: 3, 22: 2, 13: 2, 14: 8, 17: 3, 8: 26}","[8, 11, 13, 14, 17, 19, 22]",826113132148173196222,K6Na3Ti2Al2Si8Cl3O26
Al10(Bi2O9)3,mp-1334368,0.0,3.59125437,0.23252461654334944,"{13: 10, 83: 6, 8: 27}","[8, 13, 83]",8271310836,Al10Bi6O27
CaAl12Si4O27,mp-560993,5.236199999999999,5.67597514,0.04456471738639145,"{20: 1, 13: 12, 14: 4, 8: 27}","[8, 13, 14, 20]",8271312144201,Ca1Al12Si4O27
Ta6Al8O27F,mp-1218123,0.0,3.38027115,0.062411250872754565,"{73: 6, 13: 8, 8: 27, 9: 1}","[8, 9, 13, 73]",82791138736,Ta6Al8O27F1
Na2Al3As9O28,mp-1221481,1.9093,1.37004645,0.007232498883223748,"{11: 2, 13: 3, 33: 9, 8: 28}","[8, 11, 13, 33]",828112133339,Na2Al3As9O28
Na4AlCr3(P2O7)4,mp-1221260,3.1435999999999997,1.85421128,0.0035157623106059077,"{11: 4, 13: 1, 24: 3, 15: 8, 8: 28}","[8, 11, 13, 15, 24]",828114131158243,Na4Al1Cr3P8O28
Na4Al3Cr(P2O7)4,mp-1221255,3.5769999999999995,2.14217681,0.00830550170454547,"{11: 4, 13: 3, 24: 1, 15: 8, 8: 28}","[8, 11, 13, 15, 24]",828114133158241,Na4Al3Cr1P8O28
Na8Al12SO28,mp-1210313,0.0,-0.88449757,0.14218690342300633,"{11: 8, 13: 12, 16: 1, 8: 28}","[8, 11, 13, 16]",8281181312161,Na8Al12S1O28
Ca8MgAl6Si5O28,mp-744914,2.9092,3.4212484,0.3940639738020524,"{20: 8, 12: 1, 13: 6, 14: 5, 8: 28}","[8, 12, 13, 14, 20]",828121136145208,Ca8Mg1Al6Si5O28
Ca4Mn5Al(Si3O14)2,mp-1227877,0.0,2.39659223,0.11409463213153703,"{20: 4, 25: 5, 13: 1, 14: 6, 8: 28}","[8, 13, 14, 20, 25]",828131146204255,Ca4Mn5Al1Si6O28
K2AlMo3(P2O7)4,mp-1223985,0.1513,2.40875369,0.004195250952450991,"{19: 2, 13: 1, 42: 3, 15: 8, 8: 28}","[8, 13, 15, 19, 42]",828131158192423,K2Al1Mo3P8O28
Al2Se3O28,mp-1229334,0.0,-2.37666226,0.6921791453030304,"{13: 2, 34: 3, 8: 28}","[8, 13, 34]",828132343,Al2Se3O28
Ti13Al4Si2(SbO14)2,mp-1044158,0.0,7.48398509,0.3614691206122256,"{22: 13, 13: 4, 14: 2, 51: 2, 8: 28}","[8, 13, 14, 22, 51]",8281341422213512,Ti13Al4Si2Sb2O28
Al4V13Si2(SbO14)2,mp-1256235,0.5661000000000005,5.72945062,0.2004417638392617,"{13: 4, 23: 13, 14: 2, 51: 2, 8: 28}","[8, 13, 14, 23, 51]",8281341422313512,Al4V13Si2Sb2O28
Al4Cr13Si2(SbO14)2,mp-1044864,0.6445999999999996,5.16091936,0.14744147408162966,"{13: 4, 24: 13, 14: 2, 51: 2, 8: 28}","[8, 13, 14, 24, 51]",8281341422413512,Al4Cr13Si2Sb2O28
Al4Co13Si2(SbO14)2,mp-1044552,1.8638000000000003,4.00002762,0.01761656455782301,"{13: 4, 27: 13, 14: 2, 51: 2, 8: 28}","[8, 13, 14, 27, 51]",8281341422713512,Al4Co13Si2Sb2O28
Al4Si2Sn13(SbO14)2,mp-1044109,1.1445999999999996,5.58042733,0.16713490193877512,"{13: 4, 14: 2, 50: 13, 51: 2, 8: 28}","[8, 13, 14, 50, 51]",8281341425013512,Al4Si2Sn13Sb2O28
CaAl(OF2)2,mp-1182082,0.252,-0.56204532,0.43513985626894147,"{20: 1, 13: 1, 8: 2, 9: 4}","[8, 9, 13, 20]",8294131201,Ca1Al1O2F4
SrAl(OF2)2,mp-1199082,0.07999999999999985,-1.04474588,0.39925431210227647,"{38: 1, 13: 1, 8: 2, 9: 4}","[8, 9, 13, 38]",8294131381,Sr1Al1O2F4
Sr15Al6(OF24)2,mp-1218962,1.0846,-0.79220097,0.06132822394366233,"{38: 15, 13: 6, 8: 2, 9: 48}","[8, 9, 13, 38]",829481363815,Sr15Al6O2F48
MgAlO2F5,mp-1189240,0.3958999999999999,-2.15324461,0.5341762255555551,"{12: 1, 13: 1, 8: 2, 9: 5}","[8, 9, 12, 13]",8295121131,Mg1Al1O2F5
AlHg2O2F5,mp-1182875,0.0,0.25100855,0.2584875837500018,"{13: 1, 80: 2, 8: 2, 9: 5}","[8, 9, 13, 80]",8295131802,Al1Hg2O2F5
AlHg3(OF3)2,mp-1095623,0.0,-0.31256307,0.021814748645835103,"{13: 1, 80: 3, 8: 2, 9: 6}","[8, 9, 13, 80]",8296131803,Al1Hg3O2F6
CaAl2(OF3)2,mp-734097,0.5736,-0.66885229,0.27984671048210075,"{20: 1, 13: 2, 8: 2, 9: 6}","[8, 9, 13, 20]",8296132201,Ca1Al2O2F6
MgAl2(OF4)2,mp-1104738,0.7397,-0.49228097,0.3636516349999983,"{12: 1, 13: 2, 8: 2, 9: 8}","[8, 9, 12, 13]",8298121132,Mg1Al2O2F8
Ca6Ti5AlSi6O29F,mp-693358,2.4854000000000003,2.93049032,0.007180758593740677,"{20: 6, 22: 5, 13: 1, 14: 6, 8: 29, 9: 1}","[8, 9, 13, 14, 20, 22]",82991131146206225,Ca6Ti5Al1Si6O29F1
K2Al2O2F9,mp-1223763,0.18999999999999995,-2.47648571,0.2805254789999987,"{19: 2, 13: 2, 8: 2, 9: 9}","[8, 9, 13, 19]",8299132192,K2Al2O2F9
Cs2Na6Al6Ge7O30,mp-1226410,0.2764,0.23780822,0.06800397316844364,"{55: 2, 11: 6, 13: 6, 32: 7, 8: 30}","[8, 11, 13, 32, 55]",830116136327552,Cs2Na6Al6Ge7O30
SrMg2Al6(Si3O10)3,mp-677497,3.8360000000000003,2.05442914,0.033678951423615544,"{38: 1, 12: 2, 13: 6, 14: 9, 8: 30}","[8, 12, 13, 14, 38]",830122136149381,Sr1Mg2Al6Si9O30
Al19CrO30,mp-757340,3.6543,6.06577269,0.00410019444999854,"{13: 19, 24: 1, 8: 30}","[8, 13, 24]",8301319241,Al19Cr1O30
SrCa2Al6(SiO5)6,mp-1218728,0.013700000000000045,2.57715305,0.26946640441075953,"{38: 1, 20: 2, 13: 6, 14: 6, 8: 30}","[8, 13, 14, 20, 38]",830136146202381,Sr1Ca2Al6Si6O30
NaAlO3,mp-1186097,0.0,2.1737824,0.21784033799999847,"{11: 1, 13: 1, 8: 3}","[8, 11, 13]",83111131,Na1Al1O3
Ca2Al4Si8O31,mp-1228237,0.059299999999999964,-0.38036235,0.4638280745033727,"{20: 2, 13: 4, 14: 8, 8: 31}","[8, 13, 14, 20]",831134148202,Ca2Al4Si8O31
MgAlO3,mp-1185841,0.0,4.38610214,0.4459026910909092,"{12: 1, 13: 1, 8: 3}","[8, 12, 13]",83121131,Mg1Al1O3
AlO3,mp-2646975,2.3217,2.73932617,0.45538776698863703,"{13: 1, 8: 3}","[8, 13]",83131,Al1O3
AlSiO3,mp-1183132,0.0,9.2358413,1.0382708893333277,"{13: 1, 14: 1, 8: 3}","[8, 13, 14]",83131141,Al1Si1O3
KAlO3,mp-1184936,0.0,1.98282348,0.2883469903680558,"{19: 1, 13: 1, 8: 3}","[8, 13, 19]",83131191,K1Al1O3
ScAlO3,mp-4471,4.591900000000001,4.99994749,0.02802021737499949,"{21: 1, 13: 1, 8: 3}","[8, 13, 21]",83131211,Sc1Al1O3
TiAlO3,mp-774520,0.0,7.92215858,0.06604736950000145,"{22: 1, 13: 1, 8: 3}","[8, 13, 22]",83131221,Ti1Al1O3
AlVO3,mp-1178549,1.569,5.59268805,0.01981587062498491,"{13: 1, 23: 1, 8: 3}","[8, 13, 23]",83131231,Al1V1O3
AlCrO3,mp-1345463,1.8028999999999993,5.93868915,0.1762854609999991,"{13: 1, 24: 1, 8: 3}","[8, 13, 24]",83131241,Al1Cr1O3
MnAlO3,mp-774250,1.2511,4.73552803,0.05965485794318148,"{25: 1, 13: 1, 8: 3}","[8, 13, 25]",83131251,Mn1Al1O3
AlCoO3,mp-1178576,2.5603000000000007,4.76768901,0.06170013381817885,"{13: 1, 27: 1, 8: 3}","[8, 13, 27]",83131271,Al1Co1O3
AlGaO3,mp-772898,3.2132,3.78105754,0.027670599999999546,"{13: 1, 31: 1, 8: 3}","[8, 13, 31]",83131311,Al1Ga1O3
RbAlO3,mp-975427,0.0,2.0356591,0.4014505845555556,"{37: 1, 13: 1, 8: 3}","[8, 13, 37]",83131371,Rb1Al1O3
SrAlO3,mp-978862,0.0,3.74838094,0.05084952225000183,"{38: 1, 13: 1, 8: 3}","[8, 13, 38]",83131381,Sr1Al1O3
ZrAlO3,mp-972066,0.0,8.6510505,0.5159898236,"{40: 1, 13: 1, 8: 3}","[8, 13, 40]",83131401,Zr1Al1O3
AlMoO3,mp-1373731,1.4177,6.32710102,0.17625915524999947,"{13: 1, 42: 1, 8: 3}","[8, 13, 42]",83131421,Al1Mo1O3
AlRhO3,mp-1178547,1.7659000000000002,5.89727411,0.0432350841363629,"{13: 1, 45: 1, 8: 3}","[8, 13, 45]",83131451,Al1Rh1O3
AlPdO3,mp-1178574,0.0,5.51865551,0.15443915827273358,"{13: 1, 46: 1, 8: 3}","[8, 13, 46]",83131461,Al1Pd1O3
AlAgO3,mp-1253488,0.06220000000000003,1.8908272,0.19385093709091006,"{13: 1, 47: 1, 8: 3}","[8, 13, 47]",83131471,Al1Ag1O3
AlInO3,mp-754157,2.162,5.81007947,0.03466006749999995,"{13: 1, 49: 1, 8: 3}","[8, 13, 49]",83131491,Al1In1O3
AlSnO3,mp-1340379,2.0322000000000005,7.5483106,0.2354362421250027,"{13: 1, 50: 1, 8: 3}","[8, 13, 50]",83131501,Al1Sn1O3
AlSbO3,mp-1261047,3.9107000000000003,6.20010163,0.06185240349999965,"{13: 1, 51: 1, 8: 3}","[8, 13, 51]",83131511,Al1Sb1O3
EuAlO3,mp-21455,0.0,4.43160413,0.11148201399999813,"{63: 1, 13: 1, 8: 3}","[8, 13, 63]",83131631,Eu1Al1O3
GdAlO3,mp-5223,3.2382,4.37351046,0.008384388899985495,"{64: 1, 13: 1, 8: 3}","[8, 13, 64]",83131641,Gd1Al1O3