formula,material_id,band_gap,efermi,energy_above_hull,comp_atoms,sorted_keys_comp_atoms,comp_number,new_formula
Na4Al3Si3H3O14,mp-1173789,0.9357000000000001,0.33554758,0.15185310546294062,"{11: 4, 13: 3, 14: 3, 1: 3, 8: 14}","[1, 8, 11, 13, 14]",13814114133143,Na4Al3Si3H3O14
Th2Al8Si2Au5,mp-1208229,0.0,7.07158102,0.021168847647059508,"{90: 2, 13: 8, 14: 2, 79: 5}","[13, 14, 79, 90]",138142795902,Th2Al8Si2Au5
Al8Cr4Si3,mp-1214842,0.0,8.43605255,0.07945226077777612,"{13: 8, 24: 4, 14: 3}","[13, 14, 24]",138143244,Al8Cr4Si3
Al4P3(HO5)3,mp-706709,5.5706,2.69107561,0.03260379300002114,"{13: 4, 15: 3, 1: 3, 8: 15}","[1, 8, 13, 15]",13815134153,Al4P3H3O15
Al8Zn3CdS16,mp-1229020,2.4821,4.03935374,0.010569692678570775,"{13: 8, 30: 3, 48: 1, 16: 16}","[13, 16, 30, 48]",1381616303481,Al8Zn3Cd1S16
Ca(MnAl2)4,mp-10878,0.0,6.79621396,0.01940824076923331,"{20: 1, 25: 4, 13: 8}","[13, 20, 25]",138201254,Ca1Mn4Al8
Sr3CaAl8,mp-1218404,0.0,4.91349511,0.02202365624999736,"{38: 3, 20: 1, 13: 8}","[13, 20, 38]",138201383,Sr3Ca1Al8
Ca3GdAl8,mp-1228401,0.0,5.32436608,0.004033340416667031,"{20: 3, 64: 1, 13: 8}","[13, 20, 64]",138203641,Ca3Gd1Al8
La3ScAl8,mp-1223059,0.0,7.67902818,0.02766178833333477,"{57: 3, 21: 1, 13: 8}","[13, 21, 57]",138211573,La3Sc1Al8
Al8V5,mp-1214872,0.0,7.35402424,0.052408436538462055,"{13: 8, 23: 5}","[13, 23]",138235,Al8V5
La(Al2Cr)4,mp-1104839,0.0,7.62791446,0.045094647282056144,"{57: 1, 13: 8, 24: 4}","[13, 24, 57]",138244571,La1Al8Cr4
Ce(Al2Cr)4,mp-1104474,0.0,7.55352825,0.01835291853845966,"{58: 1, 13: 8, 24: 4}","[13, 24, 58]",138244581,Ce1Al8Cr4
Pr(Al2Cr)4,mp-1104490,0.0,6.94088011,0.04061702969230474,"{59: 1, 13: 8, 24: 4}","[13, 24, 59]",138244591,Pr1Al8Cr4
Nd(Al2Cr)4,mp-1104537,0.0,6.92727534,0.03466210892307231,"{60: 1, 13: 8, 24: 4}","[13, 24, 60]",138244601,Nd1Al8Cr4
Sm(Al2Cr)4,mp-1104931,0.0,6.82694732,0.025875300461534856,"{62: 1, 13: 8, 24: 4}","[13, 24, 62]",138244621,Sm1Al8Cr4
Gd(Al2Cr)4,mp-21195,0.0,6.89772663,0.018355994846153578,"{64: 1, 13: 8, 24: 4}","[13, 24, 64]",138244641,Gd1Al8Cr4
Tb(Al2Cr)4,mp-1104540,0.0,6.97242138,0.021942653871797724,"{65: 1, 13: 8, 24: 4}","[13, 24, 65]",138244651,Tb1Al8Cr4
Dy(Al2Cr)4,mp-985207,0.0,6.92628051,0.011644790461541987,"{66: 1, 13: 8, 24: 4}","[13, 24, 66]",138244661,Dy1Al8Cr4
Ho(Al2Cr)4,mp-1103976,0.0,6.94854246,0.011268637512817925,"{67: 1, 13: 8, 24: 4}","[13, 24, 67]",138244671,Ho1Al8Cr4
Er(Al2Cr)4,mp-1104146,0.0,6.98071298,0.013762839403848481,"{68: 1, 13: 8, 24: 4}","[13, 24, 68]",138244681,Er1Al8Cr4
Tm(Al2Cr)4,mp-972121,0.0,6.93861802,0.008038198923074447,"{69: 1, 13: 8, 24: 4}","[13, 24, 69]",138244691,Tm1Al8Cr4
Lu(Al2Cr)4,mp-1104319,0.0,6.98578393,0.006424900461535543,"{71: 1, 13: 8, 24: 4}","[13, 24, 71]",138244711,Lu1Al8Cr4
Th(Al2Cr)4,mp-31411,0.0,7.56940405,0.011820383923071276,"{90: 1, 13: 8, 24: 4}","[13, 24, 90]",138244901,Th1Al8Cr4
U(Al2Cr)4,mp-5544,0.0,8.16359791,0.04616894246020653,"{92: 1, 13: 8, 24: 4}","[13, 24, 92]",138244921,U1Al8Cr4
Np(Al2Cr)4,mp-1220104,0.0,8.5754084,0.09297641984615446,"{93: 1, 13: 8, 24: 4}","[13, 24, 93]",138244931,Np1Al8Cr4
Al8Cr5,mp-19954,0.0,7.53295294,0.08061745315384528,"{13: 8, 24: 5}","[13, 24]",138245,Al8Cr5
La(MnAl2)4,mp-1103819,0.0,7.47816379,0.012348660769233355,"{57: 1, 25: 4, 13: 8}","[13, 25, 57]",138254571,La1Mn4Al8
Pr(MnAl2)4,mp-1104994,0.0,6.67839501,0.007279743461541699,"{59: 1, 25: 4, 13: 8}","[13, 25, 59]",138254591,Pr1Mn4Al8
Nd(MnAl2)4,mp-1104134,0.0,6.73472213,0.002981358461540573,"{60: 1, 25: 4, 13: 8}","[13, 25, 60]",138254601,Nd1Mn4Al8
Sm(MnAl2)4,mp-972569,0.0,7.21009746,0.02129599500000179,"{62: 1, 25: 4, 13: 8}","[13, 25, 62]",138254621,Sm1Mn4Al8
Th(MnAl2)4,mp-1104243,0.0,7.84056454,0.006763956923077963,"{90: 1, 25: 4, 13: 8}","[13, 25, 90]",138254901,Th1Mn4Al8
U(MnAl2)4,mp-20704,0.0,7.98507767,0.022314586730771246,"{92: 1, 25: 4, 13: 8}","[13, 25, 92]",138254921,U1Mn4Al8
Mn5Al8,mp-1194040,0.0,7.70855104,0.07759116884615391,"{25: 5, 13: 8}","[13, 25]",138255,Mn5Al8
Al(HO)3,mp-27540,5.0975,1.17228598,0.021218486428598027,"{13: 1, 1: 3, 8: 3}","[1, 8, 13]",1383131,Al1H3O3
LaU3Al8,mp-1223022,0.0,9.32087294,0.05803100520833482,"{57: 1, 92: 3, 13: 8}","[13, 57, 92]",138571923,La1U3Al8
La3UAl8,mp-1223075,0.0,8.38036965,0.06630656979166716,"{57: 3, 92: 1, 13: 8}","[13, 57, 92]",138573921,La3U1Al8
CeU3Al8,mp-1226646,0.0,9.18791194,0.04374871062499963,"{58: 1, 92: 3, 13: 8}","[13, 58, 92]",138581923,Ce1U3Al8
Ce3UAl8,mp-1227021,0.0,8.37259407,0.0260343152083351,"{58: 3, 92: 1, 13: 8}","[13, 58, 92]",138583921,Ce3U1Al8
Al2PH3O7,mp-1193864,5.2448,1.58021097,0.008789914102574237,"{13: 2, 15: 1, 1: 3, 8: 7}","[1, 8, 13, 15]",1387132151,Al2P1H3O7
AlCrMo6(H19O20)2,mp-1201081,3.412,2.07838581,0.018669320813960333,"{13: 1, 24: 1, 42: 6, 1: 38, 8: 40}","[1, 8, 13, 24, 42]",138840131241426,Al1Cr1Mo6H38O40
Al9Cr3Si,mp-1214838,0.0,8.16723522,0.016911092644230408,"{13: 9, 24: 3, 14: 1}","[13, 14, 24]",139141243,Al9Cr3Si1
Ca(MnAl3)3,mp-1227419,0.0,6.94102271,0.034569664615383466,"{20: 1, 25: 3, 13: 9}","[13, 20, 25]",139201253,Ca1Mn3Al9
Ti4(NbAl3)3,mp-1208235,0.0,7.07444378,0.04342175805000181,"{22: 4, 41: 3, 13: 9}","[13, 22, 41]",139224413,Ti4Nb3Al9
Mn4Al9,mp-1212295,0.0,7.43313532,0.11158701794871728,"{25: 4, 13: 9}","[13, 25]",139254,Mn4Al9
Nd2(Al3Co)3,mp-640880,0.0,6.19714211,0.008593174642854251,"{60: 2, 13: 9, 27: 3}","[13, 27, 60]",139273602,Nd2Al9Co3
U2(Al3Co)3,mp-641651,0.0,8.74726739,0.04998292369047519,"{92: 2, 13: 9, 27: 3}","[13, 27, 92]",139273922,U2Al9Co3
Tb2ZrAl9,mp-1217690,0.0,6.63439939,0.02057332833333092,"{65: 2, 40: 1, 13: 9}","[13, 40, 65]",139401652,Tb2Zr1Al9
U2(Al3Rh)3,mp-1207964,0.0,8.65840448,0.007691056309525379,"{92: 2, 13: 9, 45: 3}","[13, 45, 92]",139453922,U2Al9Rh3
Tb2(Al3Pd)3,mp-1208555,0.0,7.22214761,0.000220269742857937,"{65: 2, 13: 9, 46: 3}","[13, 46, 65]",139463652,Tb2Al9Pd3
Dy2(Al3Pd)3,mp-1213071,0.0,7.23441251,0.0010037311714299335,"{66: 2, 13: 9, 46: 3}","[13, 46, 66]",139463662,Dy2Al9Pd3
Ho2(Al3Pd)3,mp-1212359,0.0,7.35223794,0.0035947163214284927,"{67: 2, 13: 9, 46: 3}","[13, 46, 67]",139463672,Ho2Al9Pd3
Er2(Al3Pd)3,mp-1212854,0.0,7.13158725,0.003451865328569781,"{68: 2, 13: 9, 46: 3}","[13, 46, 68]",139463682,Er2Al9Pd3
Tm2(Al3Pd)3,mp-1207996,0.0,7.30909209,0.006308765464286381,"{69: 2, 13: 9, 46: 3}","[13, 46, 69]",139463692,Tm2Al9Pd3
Tb2HfAl9,mp-1217682,0.0,6.67703989,0.018466286666667386,"{65: 2, 72: 1, 13: 9}","[13, 65, 72]",139652721,Tb2Hf1Al9
Th2AlH4,mp-24083,0.0,6.81720259,0.017310846122445156,"{90: 2, 13: 1, 1: 4}","[1, 13, 90]",14131902,Th2Al1H4
K3Al5P8(H21O25)2,mp-1198719,5.0504,4.82047275,0.007648319089508249,"{19: 3, 13: 5, 15: 8, 1: 42, 8: 50}","[1, 8, 13, 15, 19]",142850135158193,K3Al5P8H42O50
Ca8Be5Al3Si18(HO14)4,mp-1227798,0.40000000000000013,1.80169022,0.014279756192376425,"{20: 8, 4: 5, 13: 3, 14: 18, 1: 4, 8: 56}","[1, 4, 8, 13, 14, 20]",14458561331418208,Ca8Be5Al3Si18H4O56
AlH4NF4,mp-696815,6.8114,-1.29817992,0.0,"{13: 1, 1: 4, 7: 1, 9: 4}","[1, 7, 9, 13]",147194131,Al1H4N1F4
Rb2Al(H2N)2,mp-1210712,0.0,1.42083132,0.5324678845138902,"{37: 2, 13: 1, 1: 4, 7: 2}","[1, 7, 13, 37]",1472131372,Rb2Al1H4N2
CaAl2Si2(H2O5)2,mp-24603,5.0625,3.03915218,0.020064457105291922,"{20: 1, 13: 2, 14: 2, 1: 4, 8: 10}","[1, 8, 13, 14, 20]",14810132142201,Ca1Al2Si2H4O10
Al2P2H4O11,mp-706302,0.3152,-0.38718716,0.16904959653510954,"{13: 2, 15: 2, 1: 4, 8: 11}","[1, 8, 13, 15]",14811132152,Al2P2H4O11
KAl2P2H4O11,mp-1256014,0.5065000000000001,1.33607437,0.07367496663257089,"{19: 1, 13: 2, 15: 2, 1: 4, 8: 11}","[1, 8, 13, 15, 19]",14811132152191,K1Al2P2H4O11
NaAl3P2(HO3)4,mp-1220886,5.8652999999999995,8.14247911,0.008962725808075334,"{11: 1, 13: 3, 15: 2, 1: 4, 8: 12}","[1, 8, 11, 13, 15]",14812111133152,Na1Al3P2H4O12
CaAl2Si3(HO3)4,mp-1194858,4.895700000000001,-0.11097058,0.0076621114394033185,"{20: 1, 13: 2, 14: 3, 1: 4, 8: 12}","[1, 8, 13, 14, 20]",14812132143201,Ca1Al2Si3H4O12
CaAl2Si4(H2O7)2,mp-706640,0.10980000000000001,-0.37934312,0.2802723541333325,"{20: 1, 13: 2, 14: 4, 1: 4, 8: 14}","[1, 8, 13, 14, 20]",14814132144201,Ca1Al2Si4H4O14
CaAl2Si6(HO4)4,mp-1214101,2.4811,1.76860096,0.3601023659195457,"{20: 1, 13: 2, 14: 6, 1: 4, 8: 16}","[1, 8, 13, 14, 20]",14816132146201,Ca1Al2Si6H4O16
NaMgAl3Si8(HO6)4,mp-1094103,4.7203,1.56616694,0.029508334512207135,"{11: 1, 12: 1, 13: 3, 14: 8, 1: 4, 8: 24}","[1, 8, 11, 12, 13, 14]",14824111121133148,Na1Mg1Al3Si8H4O24
KNaAl6Si6(HO6)4,mp-1197973,4.736600000000001,2.18920948,0.014347977261906841,"{19: 1, 11: 1, 13: 6, 14: 6, 1: 4, 8: 24}","[1, 8, 11, 13, 14, 19]",14824111136146191,K1Na1Al6Si6H4O24
MgAlH4O2F5,mp-24142,5.837,-0.7996544,0.009292253461524957,"{12: 1, 13: 1, 1: 4, 8: 2, 9: 5}","[1, 8, 9, 12, 13]",148295121131,Mg1Al1H4O2F5
AlZnH4O2F5,mp-23768,5.0839,-1.22555816,0.002854734230768763,"{13: 1, 30: 1, 1: 4, 8: 2, 9: 5}","[1, 8, 9, 13, 30]",148295131301,Al1Zn1H4O2F5
Na4Mg11AlSi12(HO10)4,mp-1221236,0.0,8.01400348,0.05159028471424332,"{11: 4, 12: 11, 13: 1, 14: 12, 1: 4, 8: 40}","[1, 8, 11, 12, 13, 14]",1484011412111311412,Na4Mg11Al1Si12H4O40
Na2AlH4ClO4,mp-643248,4.5161999999999995,-0.7571591,0.010262260208336649,"{11: 2, 13: 1, 1: 4, 17: 1, 8: 4}","[1, 8, 11, 13, 17]",1484112131171,Na2Al1H4Cl1O4
MgAl2H4Pb2(O2F3)2,mp-1234634,1.0779000000000005,4.50469723,0.17828512780700922,"{12: 1, 13: 2, 1: 4, 82: 2, 8: 4, 9: 6}","[1, 8, 9, 12, 13, 82]",148496121132822,Mg1Al2H4Pb2O4F6
CaAl2H4Pb2(O2F3)2,mp-1233986,1.1089000000000002,4.11373728,0.14060052307018012,"{20: 1, 13: 2, 1: 4, 82: 2, 8: 4, 9: 6}","[1, 8, 9, 13, 20, 82]",148496132201822,Ca1Al2H4Pb2O4F6
AlP(H2O3)2,mp-24045,5.4239,1.35001059,0.02706969486112687,"{13: 1, 15: 1, 1: 4, 8: 6}","[1, 8, 13, 15]",1486131151,Al1P1H4O6
AlAs(H2O3)2,mp-542678,3.6411999999999995,0.8070379,0.012592816354166203,"{13: 1, 33: 1, 1: 4, 8: 6}","[1, 8, 13, 33]",1486131331,Al1As1H4O6
MnAlPH4O7,mp-1211169,3.6275,5.53717807,0.14540887692460647,"{25: 1, 13: 1, 15: 1, 1: 4, 8: 7}","[1, 8, 13, 15, 25]",1487131151251,Mn1Al1P1H4O7
AlH4(SeO4)2,mp-699431,0.0,0.07653374,0.0507792971666472,"{13: 1, 1: 4, 34: 2, 8: 8}","[1, 8, 13, 34]",1488131342,Al1H4Se2O8
Rb9Al(HO2)4,mp-1203218,1.4514,0.58540846,0.014717571818179565,"{37: 9, 13: 1, 1: 4, 8: 8}","[1, 8, 13, 37]",1488131379,Rb9Al1H4O8
CaAl2Si(HO2)4,mp-643941,4.655200000000001,2.53754681,0.020765256041666014,"{20: 1, 13: 2, 14: 1, 1: 4, 8: 8}","[1, 8, 13, 14, 20]",1488132141201,Ca1Al2Si1H4O8
AlP2H4O8F,mp-1229117,5.7046,5.83937977,0.006187868680551212,"{13: 1, 15: 2, 1: 4, 8: 8, 9: 1}","[1, 8, 9, 13, 15]",148891131152,Al1P2H4O8F1
KAlP2H4O9,mp-734394,5.2367,0.52009857,0.012199378872534972,"{19: 1, 13: 1, 15: 2, 1: 4, 8: 9}","[1, 8, 13, 15, 19]",1489131152191,K1Al1P2H4O9
Al2Si2H4O9,mp-721216,4.9329,1.35704168,0.018035774754898704,"{13: 2, 14: 2, 1: 4, 8: 9}","[1, 8, 13, 14]",1489132142,Al2Si2H4O9
Al4H50S7O52,mp-1229278,1.6362,2.72623619,0.043507688661484245,"{13: 4, 1: 50, 16: 7, 8: 52}","[1, 8, 13, 16]",150852134167,Al4H50S7O52
MgAlH5,mp-1104429,3.4207,4.37795817,0.017472341428572236,"{12: 1, 13: 1, 1: 5}","[1, 12, 13]",15121131,Mg1Al1H5
BeAlH5,mp-23719,2.4698,-0.3704722,0.02111659261904819,"{4: 1, 13: 1, 1: 5}","[1, 4, 13]",1541131,Be1Al1H5
KAl2P2H5O11,mp-541870,5.3956,1.18496916,0.008033219603184705,"{19: 1, 13: 2, 15: 2, 1: 5, 8: 11}","[1, 8, 13, 15, 19]",15811132152191,K1Al2P2H5O11
NaCa2Al2P2H5O11F4,mp-707176,5.4845999999999995,1.56707062,0.0031475360494557236,"{11: 1, 20: 2, 13: 2, 15: 2, 1: 5, 8: 11, 9: 4}","[1, 8, 9, 11, 13, 15, 20]",1581194111132152202,Na1Ca2Al2P2H5O11F4
CsAlAs3H5O12,mp-1201174,3.4114,0.23773089,0.008011203636368869,"{55: 1, 13: 1, 33: 3, 1: 5, 8: 12}","[1, 8, 13, 33, 55]",15812131333551,Cs1Al1As3H5O12
CaMnAl4SiP3(HO4)5,mp-1199709,4.886700000000001,3.28598712,0.017441588465076485,"{20: 1, 25: 1, 13: 4, 14: 1, 15: 3, 1: 5, 8: 20}","[1, 8, 13, 14, 15, 20, 25]",15820134141153201251,Ca1Mn1Al4Si1P3H5O20
AlP2H5O9,mp-721876,5.5286,0.71961658,0.018245869019628103,"{13: 1, 15: 2, 1: 5, 8: 9}","[1, 8, 13, 15]",1589131152,Al1P2H5O9
KNa2AlH6,mp-1205325,2.509,0.0544611,0.016431599249999707,"{19: 1, 11: 2, 13: 1, 1: 6}","[1, 11, 13, 19]",16112131191,K1Na2Al1H6
AlH6,mp-1214861,0.0,-1.63416544,1.0087018985714282,"{13: 1, 1: 6}","[1, 13]",16131,Al1H6
Cs2AlGaH6,mp-989648,0.8501000000000001,1.98493252,0.08918820508333525,"{55: 2, 13: 1, 31: 1, 1: 6}","[1, 13, 31, 55]",16131311552,Cs2Al1Ga1H6
Rb2AlInH6,mp-989528,0.1400999999999999,2.64643819,0.07341539384375029,"{37: 2, 13: 1, 49: 1, 1: 6}","[1, 13, 37, 49]",16131372491,Rb2Al1In1H6
Rb2AlTlH6,mp-989539,0.7191999999999998,2.17016495,0.03990534504166643,"{37: 2, 13: 1, 81: 1, 1: 6}","[1, 13, 37, 81]",16131372811,Rb2Al1Tl1H6
Al2P2H6NO11,mp-1215089,0.0,0.3971625,0.33513337984848235,"{13: 2, 15: 2, 1: 6, 7: 1, 8: 11}","[1, 7, 8, 13, 15]",1671811132152,Al2P2H6N1O11
AlH6N2Cl3,mp-740718,5.0498,-1.07255117,0.0,"{13: 1, 1: 6, 7: 2, 17: 3}","[1, 7, 13, 17]",1672131173,Al1H6N2Cl3
AlH6N2F3,mp-1228986,5.8134999999999994,-1.59497949,0.0,"{13: 1, 1: 6, 7: 2, 9: 3}","[1, 7, 9, 13]",167293131,Al1H6N2F3
Al3P2H6O11,mp-1215114,0.9378,0.91794497,0.33846494649622727,"{13: 3, 15: 2, 1: 6, 8: 11}","[1, 8, 13, 15]",16811133152,Al3P2H6O11
AlP3(HO2)6,mp-556596,5.4786,-0.14932845,0.01378417219697603,"{13: 1, 15: 3, 1: 6, 8: 12}","[1, 8, 13, 15]",16812131153,Al1P3H6O12
Na2Al2Si3H6O13,mp-1199031,4.4745,0.13118268,0.046686374519222085,"{11: 2, 13: 2, 14: 3, 1: 6, 8: 13}","[1, 8, 11, 13, 14]",16813112132143,Na2Al2Si3H6O13
CaAl2Si3H6O13,mp-707746,5.2357000000000005,0.04897713,0.005378485166671609,"{20: 1, 13: 2, 14: 3, 1: 6, 8: 13}","[1, 8, 13, 14, 20]",16813132143201,Ca1Al2Si3H6O13
Na2CaAl10(H3O10)2,mp-1210794,0.0,-1.29728672,0.8614654644551258,"{11: 2, 20: 1, 13: 10, 1: 6, 8: 20}","[1, 8, 11, 13, 20]",168201121310201,Na2Ca1Al10H6O20
Ca2Al2Si6Sn(H3O11)2,mp-1198749,4.275,5.48815802,0.002164173888927756,"{20: 2, 13: 2, 14: 6, 50: 1, 1: 6, 8: 22}","[1, 8, 13, 14, 20, 50]",16822132146202501,Ca2Al2Si6Sn1H6O22
AlH6ClO4,mp-1190676,5.1309000000000005,-1.35975666,0.010594394305551091,"{13: 1, 1: 6, 17: 1, 8: 4}","[1, 8, 13, 17]",1684131171,Al1H6Cl1O4
Na7Al12Si12H6ClO48,mp-695601,3.6089,-0.76486291,0.11566473703489777,"{11: 7, 13: 12, 14: 12, 1: 6, 17: 1, 8: 48}","[1, 8, 11, 13, 14, 17]",1684811713121412171,Na7Al12Si12H6Cl1O48
Ca3Al2H6S(OF)8,mp-23872,5.7404,0.13403016,0.001117299404773675,"{20: 3, 13: 2, 1: 6, 16: 1, 8: 8, 9: 8}","[1, 8, 9, 13, 16, 20]",168898132161203,Ca3Al2H6S1O8F8
Al3P3H7O12,mp-1215156,2.9172,-1.7577565,0.49699600985000814,"{13: 3, 15: 3, 1: 7, 8: 12}","[1, 8, 13, 15]",17812133153,Al3P3H7O12
SrAl3P2(HO2)7,mp-42458,4.9878,2.50786935,0.040425470864191126,"{38: 1, 13: 3, 15: 2, 1: 7, 8: 14}","[1, 8, 13, 15, 38]",17814133152381,Sr1Al3P2H7O14
Mg(AlH4)2,mp-23709,4.3638,-1.95149881,0.04155896818181892,"{12: 1, 13: 2, 1: 8}","[1, 12, 13]",18121132,Mg1Al2H8
Ca(AlH4)2,mp-1198688,4.7209,2.81720154,0.023796863409093483,"{20: 1, 13: 2, 1: 8}","[1, 13, 20]",18132201,Ca1Al2H8
Al2Si3H8(NO5)2,mp-706243,4.576099999999999,0.30721714,0.0,"{13: 2, 14: 3, 1: 8, 7: 2, 8: 10}","[1, 7, 8, 13, 14]",1872810132143,Al2Si3H8N2O10
AlH8N2O2F5,mp-1200764,6.0133,4.89593516,0.17771062117288672,"{13: 1, 1: 8, 7: 2, 8: 2, 9: 5}","[1, 7, 8, 9, 13]",18728295131,Al1H8N2O2F5
Al2Si2H8N2O9,mp-1199231,0.9652000000000001,1.15284061,0.2006610220652174,"{13: 2, 14: 2, 1: 8, 7: 2, 8: 9}","[1, 7, 8, 13, 14]",187289132142,Al2Si2H8N2O9
NaAlH8(NF3)2,mp-1189460,6.496600000000001,-1.82544632,0.013352186851852466,"{11: 1, 13: 1, 1: 8, 7: 2, 9: 6}","[1, 7, 9, 11, 13]",187296111131,Na1Al1H8N2F6
NaAl(H2N)4,mp-1251411,0.3712,2.64805913,0.5550950637500014,"{11: 1, 13: 1, 1: 8, 7: 4}","[1, 7, 11, 13]",1874111131,Na1Al1H8N4
KAl(H2N)4,mp-696221,0.22009999999999996,1.23451044,0.46637343821428345,"{19: 1, 13: 1, 1: 8, 7: 4}","[1, 7, 13, 19]",1874131191,K1Al1H8N4
RbAl(H2N)4,mp-1193778,2.6557,1.96932094,0.0,"{37: 1, 13: 1, 1: 8, 7: 4}","[1, 7, 13, 37]",1874131371,Rb1Al1H8N4
CsAl(H2N)4,mp-634446,2.9105,0.70045585,0.0,"{55: 1, 13: 1, 1: 8, 7: 4}","[1, 7, 13, 55]",1874131551,Cs1Al1H8N4
KAl2P2H8O12F,mp-698033,4.9791,0.67396763,0.008704648646718383,"{19: 1, 13: 2, 15: 2, 1: 8, 8: 12, 9: 1}","[1, 8, 9, 13, 15, 19]",1881291132152191,K1Al2P2H8O12F1
Ca2AlH8S2Cl(O6F)2,mp-643446,5.583799999999999,-0.07214922,0.0009580136755804602,"{20: 2, 13: 1, 1: 8, 16: 2, 17: 1, 8: 12, 9: 2}","[1, 8, 9, 13, 16, 17, 20]",1881292131162171202,Ca2Al1H8S2Cl1O12F2
Al3P2(H4O7)2,mp-1196246,0.013100000000000112,1.18209854,0.055634290819318366,"{13: 3, 15: 2, 1: 8, 8: 14}","[1, 8, 13, 15]",18814133152,Al3P2H8O14
Na4Al3Si7(HO3)8,mp-1221340,0.0,5.34947334,0.04903703582426999,"{11: 4, 13: 3, 14: 7, 1: 8, 8: 24}","[1, 8, 11, 13, 14]",18824114133147,Na4Al3Si7H8O24
Mn9Al2Si8(HO4)8,mp-707875,1.7298999999999998,4.14988682,0.0019124356497171036,"{25: 9, 13: 2, 14: 8, 1: 8, 8: 32}","[1, 8, 13, 14, 25]",18832132148259,Mn9Al2Si8H8O32
Mg7TiAl6Si8(H4O19)2,mp-1222471,2.5705999999999998,2.94022514,0.04833615012189085,"{12: 7, 22: 1, 13: 6, 14: 8, 1: 8, 8: 38}","[1, 8, 12, 13, 14, 22]",18838127136148221,Mg7Ti1Al6Si8H8O38
K3NaAl12Si12(HO6)8,mp-1203739,4.8271,2.23245332,0.016927738154767447,"{19: 3, 11: 1, 13: 12, 14: 12, 1: 8, 8: 48}","[1, 8, 11, 13, 14, 19]",1884811113121412193,K3Na1Al12Si12H8O48
KNa3Al12Si12(HO6)8,mp-1205072,4.6937,2.3637698,0.017661972023822692,"{19: 1, 11: 3, 13: 12, 14: 12, 1: 8, 8: 48}","[1, 8, 11, 13, 14, 19]",1884811313121412191,K1Na3Al12Si12H8O48
NaAl2H8(ClO2)4,mp-1211139,0.0472999999999999,-1.03179041,1.2504867219429316,"{11: 1, 13: 2, 1: 8, 17: 4, 8: 8}","[1, 8, 11, 13, 17]",1888111132174,Na1Al2H8Cl4O8
Na5Al(HO)8,mp-1197684,3.2472,-0.14004362,0.022595151477273312,"{11: 5, 13: 1, 1: 8, 8: 8}","[1, 8, 11, 13]",1888115131,Na5Al1H8O8
Al2P2H9NO11,mp-23819,5.2978000000000005,1.11388361,0.012008039995245134,"{13: 2, 15: 2, 1: 9, 7: 1, 8: 11}","[1, 7, 8, 13, 15]",1971811132152,Al2P2H9N1O11
KAl2P2H9O13,mp-1197829,4.8459,0.65223973,0.01290753006172185,"{19: 1, 13: 2, 15: 2, 1: 9, 8: 13}","[1, 8, 13, 15, 19]",19813132152191,K1Al2P2H9O13
Mg16BeAl12,mp-1185722,0.0,4.97007381,0.04286723775862189,"{12: 16, 4: 1, 13: 12}","[4, 12, 13]",4112161312,Mg16Be1Al12
La3BeAlS7,mp-1192025,2.1074,5.59805162,0.05928397633332949,"{57: 3, 4: 1, 13: 1, 16: 7}","[4, 13, 16, 57]",41131167573,La3Be1Al1S7
BeAlCo2,mp-1096166,0.0,-2.8643123,2.9996287725,"{4: 1, 13: 1, 27: 2}","[4, 13, 27]",41131272,Be1Al1Co2
BeAlPd2,mp-1093684,0.3228,-3.67142177,2.3029795125000003,"{4: 1, 13: 1, 46: 2}","[4, 13, 46]",41131462,Be1Al1Pd2
BeAlPt2,mp-1097646,1.4695999999999998,-4.3755749,2.398018102999998,"{4: 1, 13: 1, 78: 2}","[4, 13, 78]",41131782,Be1Al1Pt2
BeAl3,mp-1183412,0.0,7.24350478,0.15958069624999993,"{4: 1, 13: 3}","[4, 13]",41133,Be1Al3
LaBeAl3,mp-1222880,0.0,7.30459657,0.11020062603846448,"{57: 1, 4: 1, 13: 3}","[4, 13, 57]",41133571,La1Be1Al3
CeBeAl3,mp-1226619,0.0,7.14891459,0.024206002115389147,"{58: 1, 4: 1, 13: 3}","[4, 13, 58]",41133581,Ce1Be1Al3
Be12Al8Si24O73,mp-1227693,0.48870000000000013,1.59855931,0.03985684880105822,"{4: 12, 13: 8, 14: 24, 8: 73}","[4, 8, 13, 14]",4128731381424,Be12Al8Si24O73
BeAlSiN3,mp-1227412,5.0289,6.45358808,0.03511214458333356,"{4: 1, 13: 1, 14: 1, 7: 3}","[4, 7, 13, 14]",4173131141,Be1Al1Si1N3
BeAl6O10,mp-560974,5.4595,5.43207753,0.0010587416911773673,"{4: 1, 13: 6, 8: 10}","[4, 8, 13]",41810136,Be1Al6O10
Na8BeAl4Si7(ClO12)2,mp-42583,3.9831,0.25975322,0.053208421521742544,"{11: 8, 4: 1, 13: 4, 14: 7, 17: 2, 8: 24}","[4, 8, 11, 13, 14, 17]",41824118134147172,Na8Be1Al4Si7Cl2O24
Na8BeAl4Si7(BrO12)2,mp-43188,4.0672,1.23195646,0.04141746909420618,"{11: 8, 4: 1, 13: 4, 14: 7, 35: 2, 8: 24}","[4, 8, 11, 13, 14, 35]",41824118134147352,Na8Be1Al4Si7Br2O24
BeAlSiO5,mp-727932,0.42479999999999984,2.99999926,0.15768973380681217,"{4: 1, 13: 1, 14: 1, 8: 5}","[4, 8, 13, 14]",4185131141,Be1Al1Si1O5
MgBeAl4O8,mp-554364,5.2368,4.49187474,0.046230240476202944,"{12: 1, 4: 1, 13: 4, 8: 8}","[4, 8, 12, 13]",4188121134,Mg1Be1Al4O8
Ca4Be2Al2Si9O28,mp-1214270,0.5991,1.87516102,0.04313320494613038,"{20: 4, 4: 2, 13: 2, 14: 9, 8: 28}","[4, 8, 13, 14, 20]",42828132149204,Ca4Be2Al2Si9O28