formula,material_id,band_gap,efermi,energy_above_hull,comp_atoms,sorted_keys_comp_atoms,comp_number,new_formula
Al2Te2Cl7,mp-540629,1.4057,-0.38057874,0.002678862954560657,"{13: 2, 52: 2, 17: 7}","[13, 17, 52]",132177522,Al2Te2Cl7
Ti(AlCl4)2,mp-570951,0.055199999999999694,2.52603487,0.033320663219695845,"{22: 1, 13: 2, 17: 8}","[13, 17, 22]",132178221,Ti1Al2Cl8
Al2CrCl8,mp-607399,0.8876,0.5795786,0.005058484545452657,"{13: 2, 24: 1, 17: 8}","[13, 17, 24]",132178241,Al2Cr1Cl8
Al2CoCl8,mp-540759,0.34319999999999995,-0.50244155,0.06767529636363534,"{13: 2, 27: 1, 17: 8}","[13, 17, 27]",132178271,Al2Co1Cl8
Al2Bi7Ru(BrCl4)2,mp-1197319,1.185,1.79583057,0.041577863034088836,"{13: 2, 83: 7, 44: 1, 35: 2, 17: 8}","[13, 17, 35, 44, 83]",132178352441837,Al2Bi7Ru1Br2Cl8
Al2PdCl8,mp-27452,1.4131,-1.42287723,0.019395530454543675,"{13: 2, 46: 1, 17: 8}","[13, 17, 46]",132178461,Al2Pd1Cl8
Al21Pt5,mp-1215027,0.0,8.26411166,0.30233520079326937,"{13: 21, 78: 5}","[13, 78]",1321785,Al21Pt5
Sm(AlCl4)2,mp-569569,0.1069,3.98744953,0.11121357696969802,"{62: 1, 13: 2, 17: 8}","[13, 17, 62]",132178621,Sm1Al2Cl8
Al2Hg3Cl8,mp-27346,2.4917,-1.17842519,0.0,"{13: 2, 80: 3, 17: 8}","[13, 17, 80]",132178803,Al2Hg3Cl8
Ca(AlSn)2,mp-1147766,0.0,5.61959694,0.08107221249999741,"{20: 1, 13: 2, 50: 2}","[13, 20, 50]",132201502,Ca1Al2Sn2
Ca(AlSb)2,mp-1147656,0.0,6.12900166,0.18101203666666743,"{20: 1, 13: 2, 51: 2}","[13, 20, 51]",132201512,Ca1Al2Sb2
Ca5(AlBi3)2,mp-28088,0.0,4.32997723,0.008484822179484652,"{20: 5, 13: 2, 83: 6}","[13, 20, 83]",132205836,Ca5Al2Bi6
ScAl2Tc,mp-1096570,0.0,-2.53881586,3.1357998087500008,"{21: 1, 13: 2, 43: 1}","[13, 21, 43]",132211431,Sc1Al2Tc1
HoScAl2,mp-1184820,0.0,5.31623744,0.023410804062502066,"{67: 1, 21: 1, 13: 2}","[13, 21, 67]",132211671,Ho1Sc1Al2
ScAl2Os,mp-1096670,0.0,-2.76572398,3.4317668495203497,"{21: 1, 13: 2, 76: 1}","[13, 21, 76]",132211761,Sc1Al2Os1
TiAl2V,mp-1217015,0.0,7.13408409,0.023320597916669072,"{22: 1, 13: 2, 23: 1}","[13, 22, 23]",132221231,Ti1Al2V1
Ti(AlBr4)2,mp-541826,0.0,1.80761224,0.0234076193371191,"{22: 1, 13: 2, 35: 8}","[13, 22, 35]",132221358,Ti1Al2Br8
Mn5Al2V,mp-1221708,0.0,6.94174489,0.03131494051724193,"{25: 5, 13: 2, 23: 1}","[13, 23, 25]",132231255,Mn5Al2V1
Al2VIr,mp-1096466,0.0,-2.89504972,3.2091776816666666,"{13: 2, 23: 1, 77: 1}","[13, 23, 77]",132231771,Al2V1Ir1
Mn3Al2V3,mp-1221807,0.0,6.51209826,0.054815444374998634,"{25: 3, 13: 2, 23: 3}","[13, 23, 25]",132233253,Mn3Al2V3
Al2CrTc,mp-1097254,0.0,-2.45528624,3.0044786714285703,"{13: 2, 24: 1, 43: 1}","[13, 24, 43]",132241431,Al2Cr1Tc1
Al2CrIr,mp-1096638,0.0,-2.73058161,2.955827976250003,"{13: 2, 24: 1, 77: 1}","[13, 24, 77]",132241771,Al2Cr1Ir1
Al22Mo5,mp-568153,0.0,8.79306722,0.007330721481483948,"{13: 22, 42: 5}","[13, 42]",1322425,Al22Mo5
MnAl2Co,mp-1221642,0.0,7.85794269,0.005151139999999721,"{25: 1, 13: 2, 27: 1}","[13, 25, 27]",132251271,Mn1Al2Co1
MnAl2Tc,mp-1185976,0.0,8.17737484,0.019719858214288344,"{25: 1, 13: 2, 43: 1}","[13, 25, 43]",132251431,Mn1Al2Tc1
MnAl2Ir,mp-1093810,0.0,-2.86101971,2.991474810000001,"{25: 1, 13: 2, 77: 1}","[13, 25, 77]",132251771,Mn1Al2Ir1
ThMn3Al2,mp-1217328,0.0,6.91505075,0.025329557701146754,"{90: 1, 25: 3, 13: 2}","[13, 25, 90]",132253901,Th1Mn3Al2
La3Nd3Al22,mp-1223083,0.0,7.07759023,0.007365471785712785,"{57: 3, 60: 3, 13: 22}","[13, 57, 60]",1322573603,La3Nd3Al22
Al2CoTc,mp-1093958,0.010800000000000143,-2.66087491,3.1868296482142853,"{13: 2, 27: 1, 43: 1}","[13, 27, 43]",132271431,Al2Co1Tc1
Al2CoRh,mp-1095887,0.07019999999999982,-2.69208294,3.022010937500001,"{13: 2, 27: 1, 45: 1}","[13, 27, 45]",132271451,Al2Co1Rh1
Ce2Al2Co15,mp-16484,0.0,6.55359164,0.052273865263155805,"{58: 2, 13: 2, 27: 15}","[13, 27, 58]",1322715582,Ce2Al2Co15
Pr2Al2Co15,mp-1188126,0.0,5.49618764,0.044594826413254296,"{59: 2, 13: 2, 27: 15}","[13, 27, 59]",1322715592,Pr2Al2Co15
ThAl2Co3,mp-1217301,0.0,7.19645006,0.12006157000000073,"{90: 1, 13: 2, 27: 3}","[13, 27, 90]",132273901,Th1Al2Co3
Al2Zn,mp-1206713,0.0,6.0709305,0.02457867833333438,"{13: 2, 30: 1}","[13, 30]",132301,Al2Zn1
Ce(AlGe)2,mp-7101,0.0,6.77779675,0.012401225499997892,"{58: 1, 13: 2, 32: 2}","[13, 32, 58]",132322581,Ce1Al2Ge2
Lu(AlGe)2,mp-7158,0.0,6.11403534,0.0006577139999999204,"{71: 1, 13: 2, 32: 2}","[13, 32, 71]",132322711,Lu1Al2Ge2
Al23V4,mp-30335,0.0,7.69502157,0.02086618962962916,"{13: 23, 23: 4}","[13, 23]",1323234,Al23V4
U3Al2Ge3,mp-1207666,0.0,8.36442332,0.03245856828124971,"{92: 3, 13: 2, 32: 3}","[13, 32, 92]",132323923,U3Al2Ge3
Er6Al2Ge7,mp-1225632,0.0,4.20153036,0.013265697333331161,"{68: 6, 13: 2, 32: 7}","[13, 32, 68]",132327686,Er6Al2Ge7
Al2HgSe4,mp-3038,1.4253999999999998,1.64730415,0.0,"{13: 2, 80: 1, 34: 4}","[13, 34, 80]",132344801,Al2Hg1Se4
Al2Hg5Se8,mp-685952,0.22960000000000003,1.60137248,0.02501981933333397,"{13: 2, 80: 5, 34: 8}","[13, 34, 80]",132348805,Al2Hg5Se8
Ta13Al23,mp-1217883,0.0,7.44298919,0.05228515149629942,"{73: 13, 13: 23}","[13, 73]",13237313,Ta13Al23
Sr(AlPb)2,mp-20872,0.0,5.50418905,0.1860948000000029,"{38: 1, 13: 2, 82: 2}","[13, 38, 82]",132381822,Sr1Al2Pb2
Sr3Al2,mp-1204001,0.0,2.55295331,0.09768517375925967,"{38: 3, 13: 2}","[13, 38]",132383,Sr3Al2
Sr3(AlIn2)2,mp-1218678,0.0,5.15756276,0.04386208111110923,"{38: 3, 13: 2, 49: 4}","[13, 38, 49]",132383494,Sr3Al2In4
Zr3Al2,mp-13470,0.0,4.8781088,0.03617644129999675,"{40: 3, 13: 2}","[13, 40]",132403,Zr3Al2
Nb3Al2Mo3,mp-1220636,0.0,6.53991158,0.02455129890000407,"{41: 3, 13: 2, 42: 3}","[13, 41, 42]",132413423,Nb3Al2Mo3
Al2Mo3,mp-1198386,0.0,7.97017002,0.3378504838214269,"{13: 2, 42: 3}","[13, 42]",132423,Al2Mo3
Al2TcRh,mp-1093720,0.019299999999999873,-3.36174354,3.2768213782142848,"{13: 2, 43: 1, 45: 1}","[13, 43, 45]",132431451,Al2Tc1Rh1
Al2TcPd,mp-1183135,0.0,8.43517174,0.002635897380947938,"{13: 2, 43: 1, 46: 1}","[13, 43, 46]",132431461,Al2Tc1Pd1
Al2TcIr,mp-1096117,0.5482,-2.98173286,3.387636538125001,"{13: 2, 43: 1, 77: 1}","[13, 43, 77]",132431771,Al2Tc1Ir1
Al2TcPt,mp-1093622,0.8066,-2.8856954,2.9120806637500003,"{13: 2, 43: 1, 78: 1}","[13, 43, 78]",132431781,Al2Tc1Pt1
Al2TcAu,mp-1097381,0.6785000000000001,-2.8381409,2.3663261400000017,"{13: 2, 43: 1, 79: 1}","[13, 43, 79]",132431791,Al2Tc1Au1
Al2OsRu,mp-1255731,0.0,0.08286434,2.1314266318750015,"{13: 2, 76: 1, 44: 1}","[13, 44, 76]",132441761,Al2Os1Ru1
Ce5Al2Ru3,mp-865967,0.0,7.91154751,0.009765282902780115,"{58: 5, 13: 2, 44: 3}","[13, 44, 58]",132443585,Ce5Al2Ru3
Al2Pd,mp-16522,0.0,6.58840814,0.03568099574073891,"{13: 2, 46: 1}","[13, 46]",132461,Al2Pd1
Ce2Al2PdPt,mp-1226826,0.0,7.51770488,0.020679272361111778,"{58: 2, 13: 2, 46: 1, 78: 1}","[13, 46, 58, 78]",132461582781,Ce2Al2Pd1Pt1
Al2OsPd,mp-1248716,0.38039999999999985,-3.77370423,2.9530058237500008,"{13: 2, 76: 1, 46: 1}","[13, 46, 76]",132461761,Al2Os1Pd1
Al2PdPt,mp-1097168,1.0162999999999998,-2.96934192,2.2110096493750007,"{13: 2, 46: 1, 78: 1}","[13, 46, 78]",132461781,Al2Pd1Pt1
Ce(AlPd)2,mp-1078340,0.0,6.61609877,0.020249424333332655,"{58: 1, 13: 2, 46: 2}","[13, 46, 58]",132462581,Ce1Al2Pd2
UAl2Pd5,mp-569698,0.0,7.75661083,0.015561709687499814,"{92: 1, 13: 2, 46: 5}","[13, 46, 92]",132465921,U1Al2Pd5
NpAl2Pd5,mp-569227,0.0,7.97880976,0.0047759568749974335,"{93: 1, 13: 2, 46: 5}","[13, 46, 93]",132465931,Np1Al2Pd5
PuAl2Pd5,mp-1091385,0.0,7.6883563,0.2324227980208322,"{94: 1, 13: 2, 46: 5}","[13, 46, 94]",132465941,Pu1Al2Pd5
EuAl2Ag3,mp-1225217,0.0,4.20044048,0.038777927777776,"{63: 1, 13: 2, 47: 3}","[13, 47, 63]",132473631,Eu1Al2Ag3
Al2Sn,mp-1206714,0.0,5.92918342,0.3159268983333341,"{13: 2, 50: 1}","[13, 50]",132501,Al2Sn1
Al2HgTe4,mp-7910,1.1108000000000002,3.22883458,0.0,"{13: 2, 80: 1, 52: 4}","[13, 52, 80]",132524801,Al2Hg1Te4
La3(AlI)2,mp-29987,0.0,6.7767435,0.01015032214285494,"{57: 3, 13: 2, 53: 2}","[13, 53, 57]",132532573,La3Al2I2
Ce3(AlI)2,mp-636773,0.0,6.73691797,0.04792969023809501,"{58: 3, 13: 2, 53: 2}","[13, 53, 58]",132532583,Ce3Al2I2
CeAl2Pt,mp-1079160,0.0,7.69892369,0.013869444062503788,"{58: 1, 13: 2, 78: 1}","[13, 58, 78]",132581781,Ce1Al2Pt1
CeAl2Pt3,mp-7225,0.0,8.13771323,0.019776428333331708,"{58: 1, 13: 2, 78: 3}","[13, 58, 78]",132581783,Ce1Al2Pt3
CeTh3Al2,mp-1226717,0.0,7.25989444,0.0350239052380914,"{58: 1, 90: 3, 13: 2}","[13, 58, 90]",132581903,Ce1Th3Al2
PmSmAl2,mp-1186641,0.0,4.46719124,0.03121614531249861,"{61: 1, 62: 1, 13: 2}","[13, 61, 62]",132611621,Pm1Sm1Al2
PmGdAl2,mp-1186619,0.0,4.52686045,0.021026969375000704,"{61: 1, 64: 1, 13: 2}","[13, 61, 64]",132611641,Pm1Gd1Al2
PmDyAl2,mp-1186555,0.0,4.66661169,0.02844815062499606,"{61: 1, 66: 1, 13: 2}","[13, 61, 66]",132611661,Pm1Dy1Al2
PmHoAl2,mp-1186588,0.0,4.63657385,0.027548516145831314,"{61: 1, 67: 1, 13: 2}","[13, 61, 67]",132611671,Pm1Ho1Al2
PmErAl2,mp-1186559,0.0,4.66522652,0.027150740833331355,"{61: 1, 68: 1, 13: 2}","[13, 61, 68]",132611681,Pm1Er1Al2
PmTmAl2,mp-1186663,0.0,4.58220896,0.026600849583331865,"{61: 1, 69: 1, 13: 2}","[13, 61, 69]",132611691,Pm1Tm1Al2
PmLuAl2,mp-1186604,0.0,4.65994132,0.024871883958333285,"{61: 1, 71: 1, 13: 2}","[13, 61, 71]",132611711,Pm1Lu1Al2
Tb3Al2,mp-980938,0.0,4.08813124,0.02419714924999994,"{65: 3, 13: 2}","[13, 65]",132653,Tb3Al2
DyErAl2,mp-1183795,0.0,4.77947438,0.02191206093750253,"{66: 1, 68: 1, 13: 2}","[13, 66, 68]",132661681,Dy1Er1Al2
Dy3Al2,mp-571624,0.0,4.03666411,0.02173645649999756,"{66: 3, 13: 2}","[13, 66]",132663,Dy3Al2
HoErAl2,mp-972984,0.0,4.76409657,0.02072918218750175,"{67: 1, 68: 1, 13: 2}","[13, 67, 68]",132671681,Ho1Er1Al2
HoTmAl2,mp-1184827,0.0,4.75167904,0.020897128437500356,"{67: 1, 69: 1, 13: 2}","[13, 67, 69]",132671691,Ho1Tm1Al2
HoLuAl2,mp-1184824,0.0,4.75065212,0.021888696249998674,"{67: 1, 71: 1, 13: 2}","[13, 67, 71]",132671711,Ho1Lu1Al2
Ho3Al2,mp-1106135,0.0,3.96680289,0.01853226875000047,"{67: 3, 13: 2}","[13, 67]",132673,Ho3Al2
Er3Al2,mp-31181,0.0,4.01459981,0.01694660949999971,"{68: 3, 13: 2}","[13, 68]",132683,Er3Al2
Hf3Al2,mp-8462,0.0,5.42897207,0.03970273833332527,"{72: 3, 13: 2}","[13, 72]",132723,Hf3Al2
Al27V,mp-1215157,0.0,1.70474797,1.0864055607142857,"{13: 27, 23: 1}","[13, 23]",1327231,Al27V1
Mn8(Al9Zn)3,mp-1211131,0.0,7.10954594,0.08418453502023748,"{25: 8, 13: 27, 30: 3}","[13, 25, 30]",1327258303,Mn8Al27Zn3
Al2W,mp-12524,0.0,7.36161348,0.09311756111111436,"{13: 2, 74: 1}","[13, 74]",132741,Al2W1
Al2OsPt,mp-1093553,0.19229999999999992,-3.23403501,3.078517663124998,"{13: 2, 76: 1, 78: 1}","[13, 76, 78]",132761781,Al2Os1Pt1
U(AlAu)2,mp-1080079,0.0,7.95734719,0.022888824333328728,"{92: 1, 13: 2, 79: 2}","[13, 79, 92]",132792921,U1Al2Au2
Th3Al2,mp-2378,0.0,6.77144367,0.05601219099999355,"{90: 3, 13: 2}","[13, 90]",132903,Th3Al2
Al3SiMo12,mp-1229023,0.0,8.60693163,0.00810408937499929,"{13: 3, 14: 1, 42: 12}","[13, 14, 42]",1331414212,Al3Si1Mo12
Al3SiPd4,mp-1228909,0.0,7.12030451,0.0052026130208329135,"{13: 3, 14: 1, 46: 4}","[13, 14, 46]",133141464,Al3Si1Pd4
EuAl3Si,mp-1225249,0.0,6.07728232,0.028563792999998228,"{63: 1, 13: 3, 14: 1}","[13, 14, 63]",133141631,Eu1Al3Si1
Tb6Al3Si,mp-17652,0.0,4.11737626,0.036868190999996386,"{65: 6, 13: 3, 14: 1}","[13, 14, 65]",133141656,Tb6Al3Si1
Er6Al3Si,mp-1213348,0.03469999999999995,4.00375314,0.03569396966666716,"{68: 6, 13: 3, 14: 1}","[13, 14, 68]",133141686,Er6Al3Si1
U2Al3Si,mp-1216582,0.0,10.44370376,0.034925137083334334,"{92: 2, 13: 3, 14: 1}","[13, 14, 92]",133141922,U2Al3Si1
Nb10(AlSi)3,mp-1220751,0.0,6.3025045,0.05186868571250258,"{41: 10, 13: 3, 14: 3}","[13, 14, 41]",1331434110,Nb10Al3Si3
Hf10(AlSi)3,mp-1224425,0.0,5.7117912,0.07538383812500626,"{72: 10, 13: 3, 14: 3}","[13, 14, 72]",1331437210,Hf10Al3Si3
Al3Co3Si4,mp-1214851,0.0,8.44005578,0.040414634678571204,"{13: 3, 27: 3, 14: 4}","[13, 14, 27]",133144273,Al3Co3Si4
Ti20(AlSi3)3,mp-1217242,0.0,6.9509999,0.02532528734374928,"{22: 20, 13: 3, 14: 9}","[13, 14, 22]",1331492220,Ti20Al3Si9
Al3Cr20Si9,mp-1228632,0.0,8.50917584,0.1095788885312512,"{13: 3, 24: 20, 14: 9}","[13, 14, 24]",1331492420,Al3Cr20Si9
Al3P,mp-1183180,0.0,8.37511955,0.43507714249999996,"{13: 3, 15: 1}","[13, 15]",133151,Al3P1
Al3(MoS2)8,mp-1228605,0.0,7.19140947,0.09474662055555427,"{13: 3, 42: 8, 16: 16}","[13, 16, 42]",1331616428,Al3Mo8S16
Tb(AlCl4)3,mp-29844,4.2153,-1.68782846,0.002201815416665198,"{65: 1, 13: 3, 17: 12}","[13, 17, 65]",1331712651,Tb1Al3Cl12
Dy(AlCl4)3,mp-28714,4.2606,-1.67222253,0.0030513895833319538,"{66: 1, 13: 3, 17: 12}","[13, 17, 66]",1331712661,Dy1Al3Cl12
Al3Bi5Cl12,mp-646102,1.8215999999999999,0.55789432,0.005966732522727725,"{13: 3, 83: 5, 17: 12}","[13, 17, 83]",1331712835,Al3Bi5Cl12
TiAl3Ge,mp-1217033,0.0,7.14209003,0.1720407229999985,"{22: 1, 13: 3, 32: 1}","[13, 22, 32]",133221321,Ti1Al3Ge1
Ti2Al3,mp-1208324,0.0,6.47124543,0.3241961100000008,"{22: 2, 13: 3}","[13, 22]",133222,Ti2Al3
Zr2Al3Cr,mp-1215491,0.0,6.26529273,0.06547847083333558,"{40: 2, 13: 3, 24: 1}","[13, 24, 40]",133241402,Zr2Al3Cr1
Al3ZnCr8,mp-1228973,0.0,7.04174499,0.016436879999998766,"{13: 3, 30: 1, 24: 8}","[13, 24, 30]",133248301,Al3Zn1Cr8
U2MnAl3,mp-1216810,0.0,10.38390263,0.06885451791666863,"{92: 2, 25: 1, 13: 3}","[13, 25, 92]",133251922,U2Mn1Al3
Mn2Al3,mp-1180309,0.0,8.46706544,0.028598418500000555,"{25: 2, 13: 3}","[13, 25]",133252,Mn2Al3
Zr2Al3Co,mp-1215510,0.0,6.20582236,0.008885999352942875,"{40: 2, 13: 3, 27: 1}","[13, 27, 40]",133271402,Zr2Al3Co1
U3Al3CoRu2,mp-1216771,0.0,9.73947076,0.02003205111110873,"{92: 3, 13: 3, 27: 1, 44: 2}","[13, 27, 44, 92]",133271442923,U3Al3Co1Ru2
U3Al3CoRh2,mp-1216888,0.0,9.44086721,0.1427172811111106,"{92: 3, 13: 3, 27: 1, 45: 2}","[13, 27, 45, 92]",133271452923,U3Al3Co1Rh2
Pr2Al3Co14,mp-1106291,0.0,5.63505586,0.07450868198830207,"{59: 2, 13: 3, 27: 14}","[13, 27, 59]",1332714592,Pr2Al3Co14
Ho2Al3Co14,mp-1205177,0.0,5.61314465,0.06778369533493311,"{67: 2, 13: 3, 27: 14}","[13, 27, 67]",1332714672,Ho2Al3Co14
Tb2Al3Co,mp-1217686,0.0,5.64220111,0.03825354916666601,"{65: 2, 13: 3, 27: 1}","[13, 27, 65]",133271652,Tb2Al3Co1
Dy2Al3Co,mp-1225300,0.0,5.58335945,0.032005919333332855,"{66: 2, 13: 3, 27: 1}","[13, 27, 66]",133271662,Dy2Al3Co1
Hf2Al3Co,mp-1224377,0.0,6.63292034,0.007234053992533518,"{72: 2, 13: 3, 27: 1}","[13, 27, 72]",133271722,Hf2Al3Co1
Al3Zn,mp-983585,0.0,6.54673486,0.036298491250000176,"{13: 3, 30: 1}","[13, 30]",133301,Al3Zn1
Al3Ga,mp-983594,0.0,6.56629003,0.043444177500000514,"{13: 3, 31: 1}","[13, 31]",133311,Al3Ga1
Nb12Al3Ga,mp-1220742,0.0,5.41374115,0.04778538909375385,"{41: 12, 13: 3, 31: 1}","[13, 31, 41]",1333114112,Nb12Al3Ga1
La2Al3GaPd4,mp-1223371,0.0,6.67862572,0.0028058277499987128,"{57: 2, 13: 3, 31: 1, 46: 4}","[13, 31, 46, 57]",133311464572,La2Al3Ga1Pd4
Ce2Al3GaPd4,mp-1226834,0.0,6.22778291,0.0390989811666671,"{58: 2, 13: 3, 31: 1, 46: 4}","[13, 31, 46, 58]",133311464582,Ce2Al3Ga1Pd4
Nd2Al3Ga,mp-1220320,0.0,5.4311244,0.024462314166667554,"{60: 2, 13: 3, 31: 1}","[13, 31, 60]",133311602,Nd2Al3Ga1
Eu2Al3Ga,mp-1225452,0.0,4.79020169,0.006921729999998405,"{63: 2, 13: 3, 31: 1}","[13, 31, 63]",133311632,Eu2Al3Ga1
Er2Al3Ga,mp-1225037,0.0,5.45824606,0.016951385833330335,"{68: 2, 13: 3, 31: 1}","[13, 31, 68]",133311682,Er2Al3Ga1
U2Al3Ga,mp-1216716,0.0,9.23049738,0.028110728541669516,"{92: 2, 13: 3, 31: 1}","[13, 31, 92]",133311922,U2Al3Ga1
Nb2(AlGa)3,mp-1220675,0.0,6.5756538,0.009516227500000696,"{41: 2, 13: 3, 31: 3}","[13, 31, 41]",133313412,Nb2Al3Ga3
Al3Ge,mp-1183195,0.0,7.62709644,0.09748668375000058,"{13: 3, 32: 1}","[13, 32]",133321,Al3Ge1
Sr2Al3Ge,mp-1218857,0.0,3.84762687,0.051193961666667676,"{38: 2, 13: 3, 32: 1}","[13, 32, 38]",133321382,Sr2Al3Ge1
Nb12Al3Ge,mp-1220748,0.0,5.46628659,0.04797526122916551,"{41: 12, 13: 3, 32: 1}","[13, 32, 41]",1333214112,Nb12Al3Ge1
Al3GePd4,mp-1228473,0.0,7.32262699,0.01732734375000078,"{13: 3, 32: 1, 46: 4}","[13, 32, 46]",133321464,Al3Ge1Pd4
La2Al3Ge,mp-1223244,0.0,6.88839322,0.026455595833333234,"{57: 2, 13: 3, 32: 1}","[13, 32, 57]",133321572,La2Al3Ge1
Nd2Al3Ge,mp-1220330,0.0,4.96241005,0.006892424166665023,"{60: 2, 13: 3, 32: 1}","[13, 32, 60]",133321602,Nd2Al3Ge1
Al3GeW2,mp-1228562,0.0,7.39208485,0.005376621944446214,"{13: 3, 32: 1, 74: 2}","[13, 32, 74]",133321742,Al3Ge1W2
La2Al3Ge4,mp-669456,0.0,8.04198423,0.03867919861110991,"{57: 2, 13: 3, 32: 4}","[13, 32, 57]",133324572,La2Al3Ge4
Pr2Al3Ge4,mp-1189097,0.0,6.55647416,0.05315538629629657,"{59: 2, 13: 3, 32: 4}","[13, 32, 59]",133324592,Pr2Al3Ge4
Nd2Al3Ge4,mp-1179976,0.0,6.49619664,0.019125410694446288,"{60: 2, 13: 3, 32: 4}","[13, 32, 60]",133324602,Nd2Al3Ge4
Sm2Al3Ge4,mp-1190248,0.0,6.50976056,0.007728266481483281,"{62: 2, 13: 3, 32: 4}","[13, 32, 62]",133324622,Sm2Al3Ge4
Gd2Al3Ge4,mp-1190462,0.0,6.6585437,0.010706065000001708,"{64: 2, 13: 3, 32: 4}","[13, 32, 64]",133324642,Gd2Al3Ge4
Tb2Al3Ge4,mp-1105661,0.0,6.68976712,0.011568709166668967,"{65: 2, 13: 3, 32: 4}","[13, 32, 65]",133324652,Tb2Al3Ge4
Dy2Al3Ge4,mp-1189494,0.0,6.64771415,0.02522279777777925,"{66: 2, 13: 3, 32: 4}","[13, 32, 66]",133324662,Dy2Al3Ge4
Ho2Al3Ge4,mp-1188696,0.0,6.65913636,0.016377869444446524,"{67: 2, 13: 3, 32: 4}","[13, 32, 67]",133324672,Ho2Al3Ge4
Er2Al3Ge4,mp-1188179,0.0,6.74536921,0.019741109444445293,"{68: 2, 13: 3, 32: 4}","[13, 32, 68]",133324682,Er2Al3Ge4
Ho8(AlGe3)3,mp-1224112,0.0,4.30223624,0.008056876249998624,"{67: 8, 13: 3, 32: 9}","[13, 32, 67]",133329678,Ho8Al3Ge9
Al3As,mp-1183129,0.0,7.26475869,0.36364852500000033,"{13: 3, 33: 1}","[13, 33]",133331,Al3As1
Al3(MoSe2)4,mp-1247901,0.024100000000000232,-3.98457861,2.6494898924666668,"{13: 3, 42: 4, 34: 8}","[13, 34, 42]",133348424,Al3Mo4Se8
Al3Bi5Br12,mp-645282,1.5953,0.23888213,0.008143164124995383,"{13: 3, 83: 5, 35: 12}","[13, 35, 83]",1333512835,Al3Bi5Br12
Al3Te3Br,mp-1214871,1.8972000000000002,4.66070057,0.1551067947023803,"{13: 3, 52: 3, 35: 1}","[13, 35, 52]",133351523,Al3Te3Br1
Sr2Al3In,mp-1218865,0.0,5.02539718,0.012600441250000927,"{38: 2, 13: 3, 49: 1}","[13, 38, 49]",133382491,Sr2Al3In1
Zr2Al3,mp-1482,0.0,5.79503639,0.007218464399997515,"{40: 2, 13: 3}","[13, 40]",133402,Zr2Al3
Zr4NbAl3,mp-1215372,0.0,4.99072039,0.07555042562499992,"{40: 4, 41: 1, 13: 3}","[13, 40, 41]",133404411,Zr4Nb1Al3
Zr5Al3,mp-16724,0.0,4.83426078,0.022739610249995934,"{40: 5, 13: 3}","[13, 40]",133405,Zr5Al3
Nb12Al3In,mp-1220944,0.0,5.73034927,0.044235223000001156,"{41: 12, 13: 3, 49: 1}","[13, 41, 49]",1334112491,Nb12Al3In1
Al3Tc,mp-867347,0.0,8.87174483,0.05980408690475869,"{13: 3, 43: 1}","[13, 43]",133431,Al3Tc1
Al3Tc2,mp-1070275,0.0,6.94361889,0.22666661428571366,"{13: 3, 43: 2}","[13, 43]",133432,Al3Tc2
Al3Ru,mp-1188814,0.0,8.90762418,0.17701125891666614,"{13: 3, 44: 1}","[13, 44]",133441,Al3Ru1
Ce2Al3Ru,mp-1226835,0.0,8.33476084,0.0165570277469147,"{58: 2, 13: 3, 44: 1}","[13, 44, 58]",133441582,Ce2Al3Ru1
Al3Pd,mp-1183127,0.0,7.840798,0.16157716312500092,"{13: 3, 46: 1}","[13, 46]",133461,Al3Pd1
CeAl3Pd,mp-1226634,0.0,6.89082065,0.07429680566666441,"{58: 1, 13: 3, 46: 1}","[13, 46, 58]",133461581,Ce1Al3Pd1
Ce3Al3Pd2Pt,mp-1229297,0.0,7.56372373,0.026610253981482757,"{58: 3, 13: 3, 46: 2, 78: 1}","[13, 46, 58, 78]",133462583781,Ce3Al3Pd2Pt1
UAl3Pd2,mp-4561,0.0,8.04004536,0.07963144729166771,"{92: 1, 13: 3, 46: 2}","[13, 46, 92]",133462921,U1Al3Pd2
NpAl3Pd2,mp-1206258,0.0,8.02290218,0.08400671260416459,"{93: 1, 13: 3, 46: 2}","[13, 46, 93]",133462931,Np1Al3Pd2
PuAl3Pd2,mp-1206289,0.0,7.78639361,0.05173828800926117,"{94: 1, 13: 3, 46: 2}","[13, 46, 94]",133462941,Pu1Al3Pd2
Al3Ag,mp-1183130,0.0,6.86334818,0.0712581868749993,"{13: 3, 47: 1}","[13, 47]",133471,Al3Ag1
Pr2Al3Ag,mp-1219927,0.0,4.53146391,0.012663635000002671,"{59: 2, 13: 3, 47: 1}","[13, 47, 59]",133471592,Pr2Al3Ag1
Eu2Al3Ag,mp-1225429,0.0,4.82818602,0.008629481666670102,"{63: 2, 13: 3, 47: 1}","[13, 47, 63]",133471632,Eu2Al3Ag1
TbAl3Ag,mp-1217573,0.0,5.49270183,0.00034698086666384853,"{65: 1, 13: 3, 47: 1}","[13, 47, 65]",133471651,Tb1Al3Ag1
Hf2Al3Ag,mp-1224324,0.0,6.27580119,0.0017221758333256787,"{72: 2, 13: 3, 47: 1}","[13, 47, 72]",133471722,Hf2Al3Ag1
Al3Cd,mp-1183140,0.0,5.84731972,0.13682523750000009,"{13: 3, 48: 1}","[13, 48]",133481,Al3Cd1
Al3Sn,mp-1183131,0.0,7.71430673,0.1583538662499997,"{13: 3, 50: 1}","[13, 50]",133501,Al3Sn1