formula,material_id,band_gap,efermi,energy_above_hull,comp_atoms,sorted_keys_comp_atoms,comp_number,new_formula
La2Al3Sn,mp-1223225,0.0,7.05834041,0.009637529861109329,"{57: 2, 13: 3, 50: 1}","[13, 50, 57]",133501572,La2Al3Sn1
Ce2Al3Sn,mp-1226862,0.0,7.04629934,0.0787380513749989,"{58: 2, 13: 3, 50: 1}","[13, 50, 58]",133501582,Ce2Al3Sn1
U2(AlSn)3,mp-1216656,0.0,9.51059206,0.019057837968749602,"{92: 2, 13: 3, 50: 3}","[13, 50, 92]",133503922,U2Al3Sn3
Al3Te3I,mp-28693,1.9650999999999996,2.5494511,0.15451558744047578,"{13: 3, 52: 3, 53: 1}","[13, 52, 53]",133523531,Al3Te3I1
Al3Bi5I12,mp-645326,1.2291,1.50085307,0.015197699735002956,"{13: 3, 83: 5, 53: 12}","[13, 53, 83]",1335312835,Al3Bi5I12
CeAl3Pt,mp-1226648,0.0,7.41367347,0.0883380313333415,"{58: 1, 13: 3, 78: 1}","[13, 58, 78]",133581781,Ce1Al3Pt1
CeAl3Pt2,mp-1025102,0.0,7.7258147,0.0402836735416674,"{58: 1, 13: 3, 78: 2}","[13, 58, 78]",133581782,Ce1Al3Pt2
Tb2Al3Pt,mp-1217683,0.0,6.02740163,0.04303181625000008,"{65: 2, 13: 3, 78: 1}","[13, 65, 78]",133652781,Tb2Al3Pt1
Hf2Al3,mp-846,0.0,6.25264831,0.014650736999996639,"{72: 2, 13: 3}","[13, 72]",133722,Hf2Al3
Hf5Al3,mp-2361,0.0,5.08852915,0.05034572312500174,"{72: 5, 13: 3}","[13, 72]",133725,Hf5Al3
Ta5Al3,mp-1178983,0.0,6.30119868,0.12223127880000106,"{73: 5, 13: 3}","[13, 73]",133735,Ta5Al3
U2Al3Os,mp-10900,0.0,10.14866758,0.07742592645833657,"{92: 2, 13: 3, 76: 1}","[13, 76, 92]",133761922,U2Al3Os1
Al3Os2,mp-16521,0.0,8.99581627,0.007409683000005884,"{13: 3, 76: 2}","[13, 76]",133762,Al3Os2
Al3Pt,mp-1183175,0.0,8.9567917,0.24511516390625232,"{13: 3, 78: 1}","[13, 78]",133781,Al3Pt1
Al3Au,mp-1183189,0.0,7.8922983,0.20330963249999812,"{13: 3, 79: 1}","[13, 79]",133791,Al3Au1
Al3Au8,mp-16480,0.0,6.36765557,0.001997207272729895,"{13: 3, 79: 8}","[13, 79]",133798,Al3Au8
Al3Tl,mp-983584,0.0,6.72460818,0.28470361666666477,"{13: 3, 81: 1}","[13, 81]",133811,Al3Tl1
Sm6Al39V8,mp-1208936,0.0,6.65770146,0.056526727735849214,"{62: 6, 13: 39, 23: 8}","[13, 23, 62]",1339238626,Sm6Al39V8
Tb6Al39V8,mp-1208623,0.0,6.77272758,0.046168495377358454,"{65: 6, 13: 39, 23: 8}","[13, 23, 65]",1339238656,Tb6Al39V8
Sm6Al39Cr8,mp-1209105,0.0,6.96058345,0.00321457328301733,"{62: 6, 13: 39, 24: 8}","[13, 24, 62]",1339248626,Sm6Al39Cr8
NpAl3,mp-977216,0.0,8.8366254,0.018425252500001932,"{93: 1, 13: 3}","[13, 93]",133931,Np1Al3
PuAl3,mp-1186809,0.0,8.51642584,0.0031668368749997455,"{94: 1, 13: 3}","[13, 94]",133941,Pu1Al3
U6Al39Mo8,mp-1208408,0.0,8.48754487,0.04593481429989499,"{92: 6, 13: 39, 42: 8}","[13, 42, 92]",1339428926,U6Al39Mo8
Al41V4,mp-1229052,0.0,7.4383793,0.027362764888888336,"{13: 41, 23: 4}","[13, 23]",1341234,Al41V4
Al4Si,mp-1228120,0.0,8.4564288,0.11491430399999913,"{13: 4, 14: 1}","[13, 14]",134141,Al4Si1
Al4SiPd,mp-1228117,0.0,6.92064561,0.03151742708333316,"{13: 4, 14: 1, 46: 1}","[13, 14, 46]",134141461,Al4Si1Pd1
Al4Si19,mp-1203554,0.0,3.48380051,0.2909089582608697,"{13: 4, 14: 19}","[13, 14]",1341419,Al4Si19
Mn3(Al2Si)2,mp-1221843,0.0,8.73018309,0.03984707787698216,"{25: 3, 13: 4, 14: 2}","[13, 14, 25]",134142253,Mn3Al4Si2
Ce2Al41Mo3,mp-1227005,0.0,8.12513636,0.008755843866460111,"{58: 2, 13: 41, 42: 3}","[13, 42, 58]",1341423582,Ce2Al41Mo3
Al4Si2Mo3,mp-1228192,0.0,8.67153208,0.043173193999999526,"{13: 4, 14: 2, 42: 3}","[13, 14, 42]",134142423,Al4Si2Mo3
La3(Al2Si3)2,mp-1211155,0.0,7.74793187,1.6373076920928042e-05,"{57: 3, 13: 4, 14: 6}","[13, 14, 57]",134146573,La3Al4Si6
Ce3(Al2Si3)2,mp-29113,0.0,7.66968188,0.02367918346153708,"{58: 3, 13: 4, 14: 6}","[13, 14, 58]",134146583,Ce3Al4Si6
Pr3(Al2Si3)2,mp-571302,0.0,6.17923729,0.0015071630769236677,"{59: 3, 13: 4, 14: 6}","[13, 14, 59]",134146593,Pr3Al4Si6
Al4(BiS4)3,mp-1248289,0.23459999999999992,2.62049093,0.19140351197368588,"{13: 4, 83: 3, 16: 12}","[13, 16, 83]",1341612833,Al4Bi3S12
Al4ZnS7,mp-1096832,3.0068,4.43551649,0.0553536505555563,"{13: 4, 30: 1, 16: 7}","[13, 16, 30]",134167301,Al4Zn1S7
Al4CrS8,mp-1228748,0.0,4.97413905,0.13411958769231003,"{13: 4, 24: 1, 16: 8}","[13, 16, 24]",134168241,Al4Cr1S8
Al4InAgS8,mp-1228698,1.3302999999999994,4.82426206,0.05609045404762192,"{13: 4, 49: 1, 47: 1, 16: 8}","[13, 16, 47, 49]",134168471491,Al4In1Ag1S8
SrCaAl4,mp-1218345,0.0,5.03604648,0.016013822499997943,"{38: 1, 20: 1, 13: 4}","[13, 20, 38]",134201381,Sr1Ca1Al4
CaLaAl4,mp-1227048,0.0,6.84406189,0.02261050500000117,"{20: 1, 57: 1, 13: 4}","[13, 20, 57]",134201571,Ca1La1Al4
CaSmAl4,mp-1227030,0.0,5.64163899,0.019224832499999067,"{20: 1, 62: 1, 13: 4}","[13, 20, 62]",134201621,Ca1Sm1Al4
CaDyAl4,mp-1227230,0.0,5.74481113,0.023222162499999754,"{20: 1, 66: 1, 13: 4}","[13, 20, 66]",134201661,Ca1Dy1Al4
CaErAl4,mp-1227226,0.0,5.72747419,0.02623938333333342,"{20: 1, 68: 1, 13: 4}","[13, 20, 68]",134201681,Ca1Er1Al4
CeScAl4,mp-1226553,0.0,7.13291976,0.05263847083333317,"{58: 1, 21: 1, 13: 4}","[13, 21, 58]",134211581,Ce1Sc1Al4
Mn11Al4V,mp-1222031,0.0,7.17569678,0.05287502202586225,"{25: 11, 13: 4, 23: 1}","[13, 23, 25]",1342312511,Mn11Al4V1
Mn9Al4V3,mp-1221707,0.0,6.93132682,0.024989250258620643,"{25: 9, 13: 4, 23: 3}","[13, 23, 25]",134233259,Mn9Al4V3
Mn7Al4V5,mp-1221730,0.0,6.75678802,0.03251016093750181,"{25: 7, 13: 4, 23: 5}","[13, 23, 25]",134235257,Mn7Al4V5
PrAl4Co,mp-975726,0.0,6.74075396,0.0032893533333258063,"{59: 1, 13: 4, 27: 1}","[13, 27, 59]",134271591,Pr1Al4Co1
UAl4Co,mp-30914,0.0,8.98770154,0.02994597083333872,"{92: 1, 13: 4, 27: 1}","[13, 27, 92]",134271921,U1Al4Co1
Ce3Al4Co3,mp-1214447,0.0,7.83213125,0.0009281422500011516,"{58: 3, 13: 4, 27: 3}","[13, 27, 58]",134273583,Ce3Al4Co3
Al4GaSb5,mp-1228691,0.9859999999999998,4.25588941,0.009260069000003313,"{13: 4, 31: 1, 51: 5}","[13, 31, 51]",134311515,Al4Ga1Sb5
Dy10Al4Ge11,mp-1226088,0.0,4.33541842,0.014062417799998173,"{66: 10, 13: 4, 32: 11}","[13, 32, 66]",13432116610,Dy10Al4Ge11
Lu10Al4Ge11,mp-1222866,0.0,5.27230849,0.004075862571430555,"{71: 10, 13: 4, 32: 11}","[13, 32, 71]",13432117110,Lu10Al4Ge11
GdAl4Ge2Au,mp-672244,0.0,4.43030059,0.15715069999999987,"{64: 1, 13: 4, 32: 2, 79: 1}","[13, 32, 64, 79]",134322641791,Gd1Al4Ge2Au1
Al4Ge2W3,mp-1228701,0.0,7.85780875,0.008993593555558732,"{13: 4, 32: 2, 74: 3}","[13, 32, 74]",134322743,Al4Ge2W3
U6Al43V4,mp-1208482,0.0,8.51461549,0.00393068873820468,"{92: 6, 13: 43, 23: 4}","[13, 23, 92]",1343234926,U6Al43V4
Nd6Al43Cr4,mp-1205140,0.0,7.1205328,0.005112323246853734,"{60: 6, 13: 43, 24: 4}","[13, 24, 60]",1343244606,Nd6Al43Cr4
Pr5Al4(AgGe2)2,mp-1219897,0.0,4.32105182,0.05509531833332826,"{59: 5, 13: 4, 47: 2, 32: 4}","[13, 32, 47, 59]",134324472595,Pr5Al4Ag2Ge4
Ho6Mn4Al43,mp-1212458,0.0,7.36963842,0.015719995974843748,"{67: 6, 25: 4, 13: 43}","[13, 25, 67]",1343254676,Ho6Mn4Al43
Er6Mn4Al43,mp-1213481,0.0,7.25193834,0.01829219342767363,"{68: 6, 25: 4, 13: 43}","[13, 25, 68]",1343254686,Er6Mn4Al43
Tm6Mn4Al43,mp-1208268,0.0,7.44101554,0.016829594182391716,"{69: 6, 25: 4, 13: 43}","[13, 25, 69]",1343254696,Tm6Mn4Al43
Al4(BiSe4)3,mp-1264321,0.04689999999999994,2.268304,0.16596438552631643,"{13: 4, 83: 3, 34: 12}","[13, 34, 83]",1343412833,Al4Bi3Se12
Nd6Nb4Al43,mp-1210336,0.0,6.95113057,0.015463996415093106,"{60: 6, 41: 4, 13: 43}","[13, 41, 60]",1343414606,Nd6Nb4Al43
Tb6Nb4Al43,mp-1208499,0.023100000000000342,7.0193979,0.002265237641509543,"{65: 6, 41: 4, 13: 43}","[13, 41, 65]",1343414656,Tb6Nb4Al43
Dy6Nb4Al43,mp-1213257,0.033500000000000085,7.02101744,0.0015374166981132475,"{66: 6, 41: 4, 13: 43}","[13, 41, 66]",1343414666,Dy6Nb4Al43
Ho6Nb4Al43,mp-1212405,0.014499999999999957,7.05155171,0.0011490761320747112,"{67: 6, 41: 4, 13: 43}","[13, 41, 67]",1343414676,Ho6Nb4Al43
Er6Nb4Al43,mp-1213435,0.0,7.07051697,0.0009171910377343551,"{68: 6, 41: 4, 13: 43}","[13, 41, 68]",1343414686,Er6Nb4Al43
Nd6Ta4Al43,mp-1210290,0.0,7.01271405,0.006081783301887356,"{60: 6, 73: 4, 13: 43}","[13, 60, 73]",1343606734,Nd6Ta4Al43
Nd6Al43W4,mp-1196069,0.0,7.25921294,0.0021409893396171498,"{60: 6, 13: 43, 74: 4}","[13, 60, 74]",1343606744,Nd6Al43W4
Gd6Ta4Al43,mp-680956,0.0,7.66638084,0.03429848650943512,"{64: 6, 73: 4, 13: 43}","[13, 64, 73]",1343646734,Gd6Ta4Al43
Sr11Al4In3,mp-642031,0.0,2.88377046,0.0028261527469140013,"{38: 11, 13: 4, 49: 3}","[13, 38, 49]",1343811493,Sr11Al4In3
Sr11Al4Sn3,mp-571154,0.0,3.27587999,0.001154658940331288,"{38: 11, 13: 4, 50: 3}","[13, 38, 50]",1343811503,Sr11Al4Sn3
ZrUAl4,mp-1215187,0.0,8.0760217,0.14169886729166592,"{40: 1, 92: 1, 13: 4}","[13, 40, 92]",134401921,Zr1U1Al4
Zr5Al4,mp-570774,0.0,5.30646894,0.06264073966666217,"{40: 5, 13: 4}","[13, 40]",134405,Zr5Al4
Al4Mo,mp-30180,0.0,7.60367216,0.022488266833331494,"{13: 4, 42: 1}","[13, 42]",134421,Al4Mo1
Er(Al2Mo)2,mp-1025358,0.0,7.04431984,0.0046401943537368595,"{68: 1, 13: 4, 42: 2}","[13, 42, 68]",134422681,Er1Al4Mo2
Al4InAgTe8,mp-1228728,0.3960999999999997,4.17845715,0.010837554464284693,"{13: 4, 49: 1, 47: 1, 52: 8}","[13, 47, 49, 52]",134471491528,Al4In1Ag1Te8
Al45V7,mp-567919,0.0,7.59558654,0.015895317307692558,"{13: 45, 23: 7}","[13, 23]",1345237,Al45V7
La8Al4I7,mp-658046,0.0,6.7666536,0.0006447442105246282,"{57: 8, 13: 4, 53: 7}","[13, 53, 57]",134537578,La8Al4I7
LaAl4,mp-21109,0.0,7.6217986,0.006269143999999116,"{57: 1, 13: 4}","[13, 57]",134571,La1Al4
LaCeAl4,mp-1222920,0.0,8.10389802,0.01860939083333335,"{57: 1, 58: 1, 13: 4}","[13, 57, 58]",134571581,La1Ce1Al4
LaPrAl4,mp-1222762,0.0,7.03069758,0.0028324424999990327,"{57: 1, 59: 1, 13: 4}","[13, 57, 59]",134571591,La1Pr1Al4
LaNdAl4,mp-1222785,0.0,7.00434213,0.005106325833333258,"{57: 1, 60: 1, 13: 4}","[13, 57, 60]",134571601,La1Nd1Al4
LaGdAl4,mp-1223045,0.0,7.05571876,0.0177901874999975,"{57: 1, 64: 1, 13: 4}","[13, 57, 64]",134571641,La1Gd1Al4
LaErAl4,mp-1222875,0.0,7.05894954,0.028781594999999882,"{57: 1, 68: 1, 13: 4}","[13, 57, 68]",134571681,La1Er1Al4
LaLuAl4,mp-1222788,0.0,7.03889868,0.039461049999999886,"{57: 1, 71: 1, 13: 4}","[13, 57, 71]",134571711,La1Lu1Al4
LaUAl4,mp-1222799,0.0,8.77614751,0.12443538458333236,"{57: 1, 92: 1, 13: 4}","[13, 57, 92]",134571921,La1U1Al4
CeAl4,mp-2289,0.0,7.35902881,0.02880991533333166,"{58: 1, 13: 4}","[13, 58]",134581,Ce1Al4
CePrAl4,mp-1226498,0.0,6.88851667,0.020755378333332075,"{58: 1, 59: 1, 13: 4}","[13, 58, 59]",134581591,Ce1Pr1Al4
CeNdAl4,mp-1226518,0.0,6.92350703,0.020836154166667953,"{58: 1, 60: 1, 13: 4}","[13, 58, 60]",134581601,Ce1Nd1Al4
CeLuAl4,mp-1226499,0.0,6.86187992,0.039212635833333565,"{58: 1, 71: 1, 13: 4}","[13, 58, 71]",134581711,Ce1Lu1Al4
PrAl4,mp-1103934,0.0,6.35722457,0.04192833666666651,"{59: 1, 13: 4}","[13, 59]",134591,Pr1Al4
PrNdAl4,mp-1219707,0.0,5.78950524,0.00035849833333401193,"{59: 1, 60: 1, 13: 4}","[13, 59, 60]",134591601,Pr1Nd1Al4
PrGdAl4,mp-1220015,0.0,6.12023793,0.010601984166665801,"{59: 1, 64: 1, 13: 4}","[13, 59, 64]",134591641,Pr1Gd1Al4
PrDyAl4,mp-1219953,0.0,5.83487474,0.013485025833331221,"{59: 1, 66: 1, 13: 4}","[13, 59, 66]",134591661,Pr1Dy1Al4
PrHoAl4,mp-1219911,0.0,5.81354327,0.016825847499999824,"{59: 1, 67: 1, 13: 4}","[13, 59, 67]",134591671,Pr1Ho1Al4
NdAl4,mp-1834,0.0,6.27338496,0.05913440599999831,"{60: 1, 13: 4}","[13, 60]",134601,Nd1Al4
NdHoAl4,mp-1220051,0.0,5.78356702,0.01237845583333197,"{60: 1, 67: 1, 13: 4}","[13, 60, 67]",134601671,Nd1Ho1Al4
SmAl4,mp-1079897,0.0,6.29041301,0.018592352999997175,"{62: 1, 13: 4}","[13, 62]",134621,Sm1Al4
SmUAl4,mp-1219010,0.0,7.55773278,0.12223022041666454,"{62: 1, 92: 1, 13: 4}","[13, 62, 92]",134621921,Sm1U1Al4
GdDyAl4,mp-1224645,0.0,5.90250702,0.0027485666666677844,"{64: 1, 66: 1, 13: 4}","[13, 64, 66]",134641661,Gd1Dy1Al4
GdLuAl4,mp-1224606,0.0,5.97977636,0.007289675833335174,"{64: 1, 71: 1, 13: 4}","[13, 64, 71]",134641711,Gd1Lu1Al4
GdUAl4,mp-1224554,0.0,7.61098792,0.10684535041666621,"{64: 1, 92: 1, 13: 4}","[13, 64, 92]",134641921,Gd1U1Al4
TbAl4,mp-1079618,0.0,6.48563411,0.014643189999997475,"{65: 1, 13: 4}","[13, 65]",134651,Tb1Al4
TbDyAl4,mp-1217558,0.0,5.85221236,0.0003375204166662371,"{65: 1, 66: 1, 13: 4}","[13, 65, 66]",134651661,Tb1Dy1Al4
TbHoAl4,mp-1217470,0.0,5.82362133,0.0006881866666663683,"{65: 1, 67: 1, 13: 4}","[13, 65, 67]",134651671,Tb1Ho1Al4
DyHoAl4,mp-1225500,0.0,5.81838489,0.00013447833333302128,"{66: 1, 67: 1, 13: 4}","[13, 66, 67]",134661671,Dy1Ho1Al4
DyErAl4,mp-1225265,0.0,5.84619658,0.0006123116666678641,"{66: 1, 68: 1, 13: 4}","[13, 66, 68]",134661681,Dy1Er1Al4
DyUAl4,mp-1225531,0.0,7.58062452,0.11360460708333164,"{66: 1, 92: 1, 13: 4}","[13, 66, 92]",134661921,Dy1U1Al4
Ta11Al4,mp-1217804,0.0,6.11291352,0.022964813733324263,"{73: 11, 13: 4}","[13, 73]",1347311,Ta11Al4
Al4W,mp-30336,0.0,7.4344636,0.020917083733333897,"{13: 4, 74: 1}","[13, 74]",134741,Al4W1
Al8P8H34N7O36F5,mp-1267554,5.0876,5.80401665,0.012452469674455457,"{13: 8, 15: 8, 1: 34, 7: 7, 8: 36, 9: 5}","[1, 7, 8, 9, 13, 15]",1347783695138158,Al8P8H34N7O36F5
UAl4,mp-574122,0.0,8.37540077,0.0015938559999959523,"{92: 1, 13: 4}","[13, 92]",134921,U1Al4
Ca4Al51Cr7,mp-30174,0.0,7.21187027,0.0003604342607612665,"{20: 4, 13: 51, 24: 7}","[13, 20, 24]",1351204247,Ca4Al51Cr7
La4Al51W7,mp-1211475,0.0,7.59398823,0.015252271827950636,"{57: 4, 13: 51, 74: 7}","[13, 57, 74]",1351574747,La4Al51W7
Al5(BiS4)3,mp-1248520,0.03080000000000016,4.11563117,0.12377812687500889,"{13: 5, 83: 3, 16: 12}","[13, 16, 83]",1351612833,Al5Bi3S12
Er9Al5S21,mp-1226348,2.3135,6.30754743,0.00838048840476091,"{68: 9, 13: 5, 16: 21}","[13, 16, 68]",1351621689,Er9Al5S21
Al5S8,mp-1228158,0.0,4.53352542,0.08005848239182711,"{13: 5, 16: 8}","[13, 16]",135168,Al5S8
Al5AgS8,mp-1228170,1.5406000000000004,4.95251822,0.02991849059524654,"{13: 5, 47: 1, 16: 8}","[13, 16, 47]",135168471,Al5Ag1S8
Ti3Al5,mp-1217092,0.0,7.36170887,0.015235836874998299,"{22: 3, 13: 5}","[13, 22]",135223,Ti3Al5
La6Mn9Al5,mp-1211667,0.0,7.22464637,0.03865459705603591,"{57: 6, 25: 9, 13: 5}","[13, 25, 57]",135259576,La6Mn9Al5
Nb4Al5Co3,mp-1220527,0.0,6.79723353,0.13241068849999937,"{41: 4, 13: 5, 27: 3}","[13, 27, 41]",135273414,Nb4Al5Co3
Tb2Al5Ge2,mp-1208532,0.0,5.804609,0.06731977111110687,"{65: 2, 13: 5, 32: 2}","[13, 32, 65]",135322652,Tb2Al5Ge2
Al5(BiSe4)3,mp-1336703,0.0,2.03795348,0.14435748100000723,"{13: 5, 83: 3, 34: 12}","[13, 34, 83]",1353412833,Al5Bi3Se12
Tb9Al5Se21,mp-1217771,1.6628000000000003,4.91017329,0.00673137853571415,"{65: 9, 13: 5, 34: 21}","[13, 34, 65]",1353421659,Tb9Al5Se21
Dy9Al5Se21,mp-1226050,1.5427000000000004,4.96369553,0.015751582499998307,"{66: 9, 13: 5, 34: 21}","[13, 34, 66]",1353421669,Dy9Al5Se21
Ho9Al5Se21,mp-1224705,1.6635,3.47579698,0.031888811428572694,"{67: 9, 13: 5, 34: 21}","[13, 34, 67]",1353421679,Ho9Al5Se21
Al5Se8,mp-1228165,0.0,3.57683525,0.043122360102163526,"{13: 5, 34: 8}","[13, 34]",135348,Al5Se8
La10Al5I8,mp-1211500,0.0,6.67107795,0.00665636793478086,"{57: 10, 13: 5, 53: 8}","[13, 53, 57]",1355385710,La10Al5I8
SmAl5,mp-1190357,0.0,6.42008295,0.048397642083333636,"{62: 1, 13: 5}","[13, 62]",135621,Sm1Al5
Al5Re24,mp-1192984,0.0,7.52667223,0.06102760517241279,"{13: 5, 75: 24}","[13, 75]",1357524,Al5Re24
Al6Bi24Cl23,mp-686476,0.0,1.0848931,0.11360540533020114,"{13: 6, 83: 24, 17: 23}","[13, 17, 83]",13617238324,Al6Bi24Cl23
Ca10(Al2Ge3)3,mp-570487,0.0,3.9245814,0.00033473800000471954,"{20: 10, 13: 6, 32: 9}","[13, 20, 32]",1362010329,Ca10Al6Ge9
Ca(Al3Te5)2,mp-676724,0.8812999999999995,3.28180147,0.21099766286764776,"{20: 1, 13: 6, 52: 10}","[13, 20, 52]",1362015210,Ca1Al6Te10
Gd(AlCr)6,mp-1225943,0.0,6.27544482,0.5304190428461499,"{64: 1, 13: 6, 24: 6}","[13, 24, 64]",136246641,Gd1Al6Cr6
Dy(AlCr)6,mp-1225667,0.0,6.6339779,0.10138616769230957,"{66: 1, 13: 6, 24: 6}","[13, 24, 66]",136246661,Dy1Al6Cr6
Er(AlCr)6,mp-1225098,0.0,6.65354738,0.09715093884615733,"{68: 1, 13: 6, 24: 6}","[13, 24, 68]",136246681,Er1Al6Cr6
Tm(AlCr)6,mp-1216674,0.0,6.60436356,0.09251885307692298,"{69: 1, 13: 6, 24: 6}","[13, 24, 69]",136246691,Tm1Al6Cr6
Lu(AlCr)6,mp-1222373,0.0,6.63406657,0.08877299461538257,"{71: 1, 13: 6, 24: 6}","[13, 24, 71]",136246711,Lu1Al6Cr6
Zr(MnAl)6,mp-1215711,0.0,6.96453357,0.02591070387573957,"{40: 1, 25: 6, 13: 6}","[13, 25, 40]",136256401,Zr1Mn6Al6
Tb(MnAl)6,mp-1217834,0.0,6.66717145,0.04588298301060689,"{65: 1, 25: 6, 13: 6}","[13, 25, 65]",136256651,Tb1Mn6Al6
Dy(MnAl)6,mp-1225398,0.0,6.67677021,0.0426994960875291,"{66: 1, 25: 6, 13: 6}","[13, 25, 66]",136256661,Dy1Mn6Al6
Ho(MnAl)6,mp-1224066,0.0,6.56717271,0.038914101856760475,"{67: 1, 25: 6, 13: 6}","[13, 25, 67]",136256671,Ho1Mn6Al6
Er(MnAl)6,mp-1225086,0.0,6.66166998,0.03564776416445259,"{68: 1, 25: 6, 13: 6}","[13, 25, 68]",136256681,Er1Mn6Al6
Tm(MnAl)6,mp-1216785,0.0,6.67588632,0.03279310301060612,"{69: 1, 25: 6, 13: 6}","[13, 25, 69]",136256691,Tm1Mn6Al6
Lu(MnAl)6,mp-1222375,0.0,6.59860099,0.028561964933683903,"{71: 1, 25: 6, 13: 6}","[13, 25, 71]",136256711,Lu1Mn6Al6
Al6GeW,mp-1214809,0.0,8.00195621,0.01958621937500027,"{13: 6, 32: 1, 74: 1}","[13, 32, 74]",136321741,Al6Ge1W1
Al6Ge5,mp-1190320,0.4901,5.67136276,0.04388412090908922,"{13: 6, 32: 5}","[13, 32]",136325,Al6Ge5
ZrNbAl6,mp-1215216,0.0,7.20135661,0.023704568750000377,"{40: 1, 41: 1, 13: 6}","[13, 40, 41]",136401411,Zr1Nb1Al6
ZrAl6Mo,mp-1215336,0.0,7.91161153,0.02366922125000137,"{40: 1, 13: 6, 42: 1}","[13, 40, 42]",136401421,Zr1Al6Mo1
ZrUAl6,mp-1215183,0.0,8.00422731,0.009064432187500415,"{40: 1, 92: 1, 13: 6}","[13, 40, 92]",136401921,Zr1U1Al6
NbAl6Mo,mp-1220329,0.0,8.45120925,0.02669873750000029,"{41: 1, 13: 6, 42: 1}","[13, 41, 42]",136411421,Nb1Al6Mo1
Al6Tc,mp-16718,0.0,7.83768076,0.01602835678571246,"{13: 6, 43: 1}","[13, 43]",136431,Al6Tc1
U2Al6Pd3Pt,mp-1216589,0.0,8.31247585,0.08140387697916651,"{92: 2, 13: 6, 46: 3, 78: 1}","[13, 46, 78, 92]",136463781922,U2Al6Pd3Pt1
LaPrAl6,mp-1222789,0.0,6.26800211,0.0012489574999996478,"{57: 1, 59: 1, 13: 6}","[13, 57, 59]",136571591,La1Pr1Al6
LaNdAl6,mp-1222797,0.0,6.27896784,0.002688379374999883,"{57: 1, 60: 1, 13: 6}","[13, 57, 60]",136571601,La1Nd1Al6
PrNdAl6,mp-1219721,0.0,5.53069489,0.0003446431249987114,"{59: 1, 60: 1, 13: 6}","[13, 59, 60]",136591601,Pr1Nd1Al6
GdErAl6,mp-1225066,0.0,5.9949275,0.002084764583331733,"{64: 1, 68: 1, 13: 6}","[13, 64, 68]",136641681,Gd1Er1Al6
Al6Re,mp-16528,0.0,7.7877043,0.00833126496138803,"{13: 6, 75: 1}","[13, 75]",136751,Al6Re1
ThUAl6,mp-1217341,0.0,7.91968793,0.03339373281249891,"{90: 1, 92: 1, 13: 6}","[13, 90, 92]",136901921,Th1U1Al6
AlH3NCl3,mp-759356,5.1434,-1.58269089,0.0,"{13: 1, 1: 3, 7: 1, 17: 3}","[1, 7, 13, 17]",1371131173,Al1H3N1Cl3
Sm12Al7Si,mp-1209154,0.0,3.81553642,0.020002882687499834,"{62: 12, 13: 7, 14: 1}","[13, 14, 62]",1371416212,Sm12Al7Si1
Tb12Al7Si,mp-1208605,0.0,3.95613716,0.01012698012500124,"{65: 12, 13: 7, 14: 1}","[13, 14, 65]",1371416512,Tb12Al7Si1
Dy12Al7Si,mp-1213130,0.0,3.92750517,0.009065743979167706,"{66: 12, 13: 7, 14: 1}","[13, 14, 66]",1371416612,Dy12Al7Si1
Ho12Al7Si,mp-1212467,0.0,3.86652128,0.008737315562498793,"{67: 12, 13: 7, 14: 1}","[13, 14, 67]",1371416712,Ho12Al7Si1
UMn5Al7,mp-1216854,0.0,8.01394567,0.06293981903846291,"{92: 1, 25: 5, 13: 7}","[13, 25, 92]",137255921,U1Mn5Al7
Pr7Al7Co6,mp-5711,0.0,5.13942255,0.047691499500000845,"{59: 7, 13: 7, 27: 6}","[13, 27, 59]",137276597,Pr7Al7Co6
Nd7Al7Co6,mp-4983,0.0,5.06830704,0.024762203500003466,"{60: 7, 13: 7, 27: 6}","[13, 27, 60]",137276607,Nd7Al7Co6
Sr2Al7Ge,mp-1218856,0.0,5.5945119,0.018498155000000516,"{38: 2, 13: 7, 32: 1}","[13, 32, 38]",137321382,Sr2Al7Ge1
Sr8Al7,mp-11224,0.0,2.77572235,0.008683811691359011,"{38: 8, 13: 7}","[13, 38]",137388,Sr8Al7
Al7Te10,mp-14506,1.3602000000000003,3.80309897,0.0014135020098038353,"{13: 7, 52: 10}","[13, 52]",1375210,Al7Te10
Cs2Al7Tl,mp-1226175,0.0,4.29837267,0.18638769608046246,"{55: 2, 13: 7, 81: 1}","[13, 55, 81]",137552811,Cs2Al7Tl1
CeAl7Au3,mp-11031,0.0,7.31572506,0.002025036818196213,"{58: 1, 13: 7, 79: 3}","[13, 58, 79]",137581793,Ce1Al7Au3
Th2Al7,mp-30334,0.0,7.3811996,0.021998454999994976,"{90: 2, 13: 7}","[13, 90]",137902,Th2Al7
Al3Si2H3O10,mp-24601,5.476000000000001,3.40673871,0.06423422560185088,"{13: 3, 14: 2, 1: 3, 8: 10}","[1, 8, 13, 14]",13810133142,Al3Si2H3O10
Al2Si3(HO4)3,mp-734142,0.0,-0.46984266,0.21621075917045385,"{13: 2, 14: 3, 1: 3, 8: 12}","[1, 8, 13, 14]",13812132143,Al2Si3H3O12