formula,material_id,band_gap,efermi,energy_above_hull,comp_atoms,sorted_keys_comp_atoms,comp_number,new_formula
Pr4AlSi5(NO)7,mp-1173412,3.1192,4.66203603,0.009397544107136113,"{59: 4, 13: 1, 14: 5, 7: 7, 8: 7}","[7, 8, 13, 14, 59]",7787131145594,Pr4Al1Si5N7O7
Nd4AlSi5(NO)7,mp-1249065,0.8365,6.00787693,0.473783866083334,"{60: 4, 13: 1, 14: 5, 7: 7, 8: 7}","[7, 8, 13, 14, 60]",7787131145604,Nd4Al1Si5N7O7
Sm4AlSi5(NO)7,mp-1173490,1.3209999999999997,6.52575036,0.5892739839207266,"{62: 4, 13: 1, 14: 5, 7: 7, 8: 7}","[7, 8, 13, 14, 62]",7787131145624,Sm4Al1Si5N7O7
Ca5Al2(SiN4)2,mp-866314,2.7947999999999995,4.88996778,0.0,"{20: 5, 13: 2, 14: 2, 7: 8}","[7, 13, 14, 20]",78132142205,Ca5Al2Si2N8
SrAl4Si2N8O,mp-1208675,0.0,2.92899094,0.47619661421875126,"{38: 1, 13: 4, 14: 2, 7: 8, 8: 1}","[7, 8, 13, 14, 38]",7881134142381,Sr1Al4Si2N8O1
LaAl2Si5N9O,mp-677482,2.0951999999999993,6.50606292,0.15065588772220728,"{57: 1, 13: 2, 14: 5, 7: 9, 8: 1}","[7, 8, 13, 14, 57]",7981132145571,La1Al2Si5N9O1
NaAlCr2O10,mp-1193153,0.0,-1.11199488,0.30997578655032587,"{11: 1, 13: 1, 24: 2, 8: 10}","[8, 11, 13, 24]",810111131242,Na1Al1Cr2O10
Na2Al2Si3O10,mp-1020141,4.4513,1.21487612,0.044022108933809534,"{11: 2, 13: 2, 14: 3, 8: 10}","[8, 11, 13, 14]",810112132143,Na2Al2Si3O10
MgAl2(PO5)2,mp-1194286,0.1615000000000002,2.40373021,0.14611290831649804,"{12: 1, 13: 2, 15: 2, 8: 10}","[8, 12, 13, 15]",810121132152,Mg1Al2P2O10
MgTi2Al4O10,mp-2229104,0.0,7.6093668,0.14154874705882392,"{12: 1, 22: 2, 13: 4, 8: 10}","[8, 12, 13, 22]",810121134222,Mg1Ti2Al4O10
MgAl4Cr2O10,mp-2229131,2.5691999999999995,4.96069279,0.13347818999997862,"{12: 1, 13: 4, 24: 2, 8: 10}","[8, 12, 13, 24]",810121134242,Mg1Al4Cr2O10
MgAl6O10,mp-530216,3.4029,9.09293024,0.03069459691176757,"{12: 1, 13: 6, 8: 10}","[8, 12, 13]",810121136,Mg1Al6O10
CaMg2TiAl2SiO10,mp-534863,3.2501999999999995,3.74779791,0.014424110097998266,"{20: 1, 12: 2, 22: 1, 13: 2, 14: 1, 8: 10}","[8, 12, 13, 14, 20, 22]",810122132141201221,Ca1Mg2Ti1Al2Si1O10
Al(Si2O5)2,mp-731836,0.0,-0.04245601,0.1046268881414143,"{13: 1, 14: 4, 8: 10}","[8, 13, 14]",810131144,Al1Si4O10
RbAlV(PO5)2,mp-1203689,0.5551999999999999,1.35341187,0.11526627620138985,"{37: 1, 13: 1, 23: 1, 15: 2, 8: 10}","[8, 13, 15, 23, 37]",810131152231371,Rb1Al1V1P2O10
CsAlV(PO5)2,mp-1204757,0.6073999999999999,1.57920045,0.10639588832638314,"{55: 1, 13: 1, 23: 1, 15: 2, 8: 10}","[8, 13, 15, 23, 55]",810131152231551,Cs1Al1V1P2O10
AlP3O10,mp-1203148,0.0,0.06753622,0.1363727655357163,"{13: 1, 15: 3, 8: 10}","[8, 13, 15]",810131153,Al1P3O10
AlSO10,mp-1183023,0.2066,-0.48618979,0.3489747977904063,"{13: 1, 16: 1, 8: 10}","[8, 13, 16]",810131161,Al1S1O10
KAlCr2O10,mp-1104925,0.0,-1.59095954,0.29191654672889467,"{19: 1, 13: 1, 24: 2, 8: 10}","[8, 13, 19, 24]",810131191242,K1Al1Cr2O10
Ca4Mn3AlO10,mp-1247677,0.0,3.52214564,0.07410886207340805,"{20: 4, 25: 3, 13: 1, 8: 10}","[8, 13, 20, 25]",810131204253,Ca4Mn3Al1O10
AlSeO10,mp-1238905,0.0,-1.36805408,0.5334699183459621,"{13: 1, 34: 1, 8: 10}","[8, 13, 34]",810131341,Al1Se1O10
CaAl2(SiO5)2,mp-1194309,0.0,2.41022909,0.2743950462828284,"{20: 1, 13: 2, 14: 2, 8: 10}","[8, 13, 14, 20]",810132142201,Ca1Al2Si2O10
MnAl2(SiO5)2,mp-1204710,0.0,2.2664497,0.20596862739393718,"{25: 1, 13: 2, 14: 2, 8: 10}","[8, 13, 14, 25]",810132142251,Mn1Al2Si2O10
SrAl2(SiO5)2,mp-1194392,0.0,2.16541003,0.31216192599999903,"{38: 1, 13: 2, 14: 2, 8: 10}","[8, 13, 14, 38]",810132142381,Sr1Al2Si2O10
Al2Si2PbO10,mp-1200775,0.0,3.33636775,0.31644906794949446,"{13: 2, 14: 2, 82: 1, 8: 10}","[8, 13, 14, 82]",810132142821,Al2Si2Pb1O10
K2Al2Si3O10,mp-1019744,4.3747,0.51677031,0.017998480955881746,"{19: 2, 13: 2, 14: 3, 8: 10}","[8, 13, 14, 19]",810132143192,K2Al2Si3O10
CaAl2Si3O10,mp-1195158,4.541499999999999,0.72777724,0.07281266916666773,"{20: 1, 13: 2, 14: 3, 8: 10}","[8, 13, 14, 20]",810132143201,Ca1Al2Si3O10
CaAl2Si3W3O10,mp-1214322,0.17569999999999997,4.03458347,0.9598553185087724,"{20: 1, 13: 2, 14: 3, 74: 3, 8: 10}","[8, 13, 14, 20, 74]",810132143201743,Ca1Al2Si3W3O10
Rb2Al2Si3O10,mp-975622,4.6713000000000005,0.42851631,0.008803021764709484,"{37: 2, 13: 2, 14: 3, 8: 10}","[8, 13, 14, 37]",810132143372,Rb2Al2Si3O10
Cs2Al2Si3O10,mp-1201495,4.5359,0.60954379,0.011030749852943167,"{55: 2, 13: 2, 14: 3, 8: 10}","[8, 13, 14, 55]",810132143552,Cs2Al2Si3O10
Al3(SiO5)2,mp-1193561,0.0,3.25513267,0.26430824864646585,"{13: 3, 14: 2, 8: 10}","[8, 13, 14]",810133142,Al3Si2O10
Ca4Al3O10,mp-675084,0.0,2.15988082,0.4642126668067217,"{20: 4, 13: 3, 8: 10}","[8, 13, 20]",810133204,Ca4Al3O10
Ca3Al4CoO10,mp-1199096,2.6372999999999998,3.10088126,0.008636610946955336,"{20: 3, 13: 4, 27: 1, 8: 10}","[8, 13, 20, 27]",810134203271,Ca3Al4Co1O10
Ca3Al4ZnO10,mp-557955,3.5446999999999997,2.20328908,0.004186903345964055,"{20: 3, 13: 4, 30: 1, 8: 10}","[8, 13, 20, 30]",810134203301,Ca3Al4Zn1O10
CsMg12Al25Si29O108,mp-695172,4.346,5.63892712,0.022092586834293826,"{55: 1, 12: 12, 13: 25, 14: 29, 8: 108}","[8, 12, 13, 14, 55]",8108121213251429551,Cs1Mg12Al25Si29O108
KMgMn2AlGe3(O5F)2,mp-1223590,1.9956,1.25751995,0.00326835499524325,"{19: 1, 12: 1, 25: 2, 13: 1, 32: 3, 8: 10, 9: 2}","[8, 9, 12, 13, 19, 25, 32]",81092121131191252323,K1Mg1Mn2Al1Ge3O10F2
NaAl3Si3O11,mp-1220919,3.5332999999999997,5.47180133,0.03912524295136244,"{11: 1, 13: 3, 14: 3, 8: 11}","[8, 11, 13, 14]",811111133143,Na1Al3Si3O11
AlP2O11,mp-1193181,0.0,-1.27756657,0.6907817233333358,"{13: 1, 15: 2, 8: 11}","[8, 13, 15]",811131152,Al1P2O11
AlPb3SO11,mp-1199988,0.0,3.17511768,0.2694466819365493,"{13: 1, 82: 3, 16: 1, 8: 11}","[8, 13, 16, 82]",811131161823,Al1Pb3S1O11
Ca4Mn3AlO11,mp-1247717,0.07410000000000005,3.46844649,0.0713376751002448,"{20: 4, 25: 3, 13: 1, 8: 11}","[8, 13, 20, 25]",811131204253,Ca4Mn3Al1O11
AlBi3Sb2O11,mp-1229110,2.6904999999999992,8.43239519,0.004794054485302013,"{13: 1, 83: 3, 51: 2, 8: 11}","[8, 13, 51, 83]",811131512833,Al1Bi3Sb2O11
Al2Si2O11,mp-1103571,0.0,-1.02314411,0.6163159521161612,"{13: 2, 14: 2, 8: 11}","[8, 13, 14]",811132142,Al2Si2O11
Al2Si4O11,mp-707135,4.1738,1.91272711,0.03682090397058957,"{13: 2, 14: 4, 8: 11}","[8, 13, 14]",811132144,Al2Si4O11
KAl2Si4O11,mp-1211755,0.0,6.9399907,0.1546035031481532,"{19: 1, 13: 2, 14: 4, 8: 11}","[8, 13, 14, 19]",811132144191,K1Al2Si4O11
KAl2P2O11,mp-1212272,0.4393,1.47337608,0.3665673443844719,"{19: 1, 13: 2, 15: 2, 8: 11}","[8, 13, 15, 19]",811132152191,K1Al2P2O11
Ca4Mn2Al2O11,mp-1227726,0.0,3.69382244,0.06260788581454069,"{20: 4, 25: 2, 13: 2, 8: 11}","[8, 13, 20, 25]",811132204252,Ca4Mn2Al2O11
Al2Te4O11,mp-1214880,2.7781,3.64141446,0.0072741549999930655,"{13: 2, 52: 4, 8: 11}","[8, 13, 52]",811132524,Al2Te4O11
CaAl4Si2O11,mp-1226904,5.1049999999999995,10.82370887,0.0987496533333232,"{20: 1, 13: 4, 14: 2, 8: 11}","[8, 13, 14, 20]",811134142201,Ca1Al4Si2O11
Sr2Al6O11,mp-30906,4.124,7.2324953,0.004651721973703893,"{38: 2, 13: 6, 8: 11}","[8, 13, 38]",811136382,Sr2Al6O11
Mg16Al12O,mp-1185684,0.0,4.57333094,0.10098173551724132,"{12: 16, 13: 12, 8: 1}","[8, 12, 13]",8112161312,Mg16Al12O1
AlO,mp-8023,0.0,9.11876504,1.3033435358333332,"{13: 1, 8: 1}","[8, 13]",81131,Al1O1
KAlCl2O,mp-1223704,4.302,-0.30136065,0.06709805500000066,"{19: 1, 13: 1, 17: 2, 8: 1}","[8, 13, 17, 19]",81131172191,K1Al1Cl2O1
KAlO,mp-35893,0.17779999999999951,4.6172352,0.27074023993750007,"{19: 1, 13: 1, 8: 1}","[8, 13, 19]",81131191,K1Al1O1
AlIO,mp-1214837,1.6932,3.2319329,0.057825267500000166,"{13: 1, 53: 1, 8: 1}","[8, 13, 53]",81131531,Al1I1O1
Ce3AlO,mp-1206367,0.0,8.07802166,0.026469115500000306,"{58: 3, 13: 1, 8: 1}","[8, 13, 58]",81131583,Ce3Al1O1
Al2O,mp-1245215,0.0,2.34576167,0.18351364111111135,"{13: 2, 8: 1}","[8, 13]",81132,Al2O1
K4Al2O,mp-1211680,0.0,0.9224932,0.8606496100803573,"{19: 4, 13: 2, 8: 1}","[8, 13, 19]",81132194,K4Al2O1
Sr10Al4Si6O,mp-556496,0.0,3.28860722,0.004795520595238134,"{38: 10, 13: 4, 14: 6, 8: 1}","[8, 13, 14, 38]",811341463810,Sr10Al4Si6O1
Zr10Al6O,mp-1215954,0.0,5.10677857,0.01796313279411965,"{40: 10, 13: 6, 8: 1}","[8, 13, 40]",811364010,Zr10Al6O1
KMg3AlSi3O11F,mp-1223599,0.0018000000000000238,1.86040532,0.05078103939063272,"{19: 1, 12: 3, 13: 1, 14: 3, 8: 11, 9: 1}","[8, 9, 12, 13, 14, 19]",81191123131143191,K1Mg3Al1Si3O11F1
Al2P2O11F,mp-653569,0.0,-0.66292062,0.4887283705208292,"{13: 2, 15: 2, 8: 11, 9: 1}","[8, 9, 13, 15]",81191132152,Al2P2O11F1
NaCa2Al2As2O11F4,mp-1180232,0.0,0.77726196,0.2502008737844328,"{11: 1, 20: 2, 13: 2, 33: 2, 8: 11, 9: 4}","[8, 9, 11, 13, 20, 33]",81194111132202332,Na1Ca2Al2As2O11F4
NaCaMgAl(SiO3)4,mp-1221089,5.0296,3.13889008,0.01853742478124243,"{11: 1, 20: 1, 12: 1, 13: 1, 14: 4, 8: 12}","[8, 11, 12, 13, 14, 20]",812111121131144201,Na1Ca1Mg1Al1Si4O12
NaMgAl(SO4)3,mp-2714149,5.0195,1.44612829,0.004040551018515082,"{11: 1, 12: 1, 13: 1, 16: 3, 8: 12}","[8, 11, 12, 13, 16]",812111121131163,Na1Mg1Al1S3O12
NaTiAlSi(SO6)2,mp-2712764,2.125,1.67029511,0.056541545694443585,"{11: 1, 22: 1, 13: 1, 14: 1, 16: 2, 8: 12}","[8, 11, 13, 14, 16, 22]",812111131141162221,Na1Ti1Al1Si1S2O12
NaAlSiGe(SO6)2,mp-2712595,2.0764,2.03580502,0.12264037907406866,"{11: 1, 13: 1, 14: 1, 32: 1, 16: 2, 8: 12}","[8, 11, 13, 14, 16, 32]",812111131141162321,Na1Al1Si1Ge1S2O12
NaZrAlSi(SO6)2,mp-2712687,3.8714999999999997,1.34134098,0.06912079638888446,"{11: 1, 40: 1, 13: 1, 14: 1, 16: 2, 8: 12}","[8, 11, 13, 14, 16, 40]",812111131141162401,Na1Zr1Al1Si1S2O12
NaAlSiSn(SO6)2,mp-2712782,2.6864,2.14434087,0.10232698055555378,"{11: 1, 13: 1, 14: 1, 50: 1, 16: 2, 8: 12}","[8, 11, 13, 14, 16, 50]",812111131141162501,Na1Al1Si1Sn1S2O12
NaHfAlSi(SO6)2,mp-2714038,4.5276,1.43781002,0.06091243129629209,"{11: 1, 72: 1, 13: 1, 14: 1, 16: 2, 8: 12}","[8, 11, 13, 14, 16, 72]",812111131141162721,Na1Hf1Al1Si1S2O12
NaScAlP(SO6)2,mp-2714595,4.142,1.35082979,0.04020609356481675,"{11: 1, 21: 1, 13: 1, 15: 1, 16: 2, 8: 12}","[8, 11, 13, 15, 16, 21]",812111131151162211,Na1Sc1Al1P1S2O12
NaAlGaP(SO6)2,mp-2715765,4.0985000000000005,1.75888997,0.03213143120370976,"{11: 1, 13: 1, 31: 1, 15: 1, 16: 2, 8: 12}","[8, 11, 13, 15, 16, 31]",812111131151162311,Na1Al1Ga1P1S2O12
NaAlInP(SO6)2,mp-2714370,3.6801000000000004,1.95081252,0.037533385000001473,"{11: 1, 13: 1, 49: 1, 15: 1, 16: 2, 8: 12}","[8, 11, 13, 15, 16, 49]",812111131151162491,Na1Al1In1P1S2O12
NaLaAlP(SO6)2,mp-2714474,4.0686,1.6220265,0.09385417574073962,"{11: 1, 57: 1, 13: 1, 15: 1, 16: 2, 8: 12}","[8, 11, 13, 15, 16, 57]",812111131151162571,Na1La1Al1P1S2O12
NaTiAlP2SO12,mp-2712660,2.3510999999999997,1.66611084,0.020909768009256702,"{11: 1, 22: 1, 13: 1, 15: 2, 16: 1, 8: 12}","[8, 11, 13, 15, 16, 22]",812111131152161221,Na1Ti1Al1P2S1O12
NaAlGeP2SO12,mp-2712618,2.7220999999999993,1.98357366,0.04008938578703525,"{11: 1, 13: 1, 32: 1, 15: 2, 16: 1, 8: 12}","[8, 11, 13, 15, 16, 32]",812111131152161321,Na1Al1Ge1P2S1O12
NaZrAlP2SO12,mp-2712804,4.2007,1.05409138,0.04452003254628867,"{11: 1, 40: 1, 13: 1, 15: 2, 16: 1, 8: 12}","[8, 11, 13, 15, 16, 40]",812111131152161401,Na1Zr1Al1P2S1O12
NaAlSnP2SO12,mp-2712615,3.3598,2.07117635,0.03596137374999042,"{11: 1, 13: 1, 50: 1, 15: 2, 16: 1, 8: 12}","[8, 11, 13, 15, 16, 50]",812111131152161501,Na1Al1Sn1P2S1O12
NaHfAlP2SO12,mp-2712765,4.923,1.21228104,0.03776878782407067,"{11: 1, 72: 1, 13: 1, 15: 2, 16: 1, 8: 12}","[8, 11, 13, 15, 16, 72]",812111131152161721,Na1Hf1Al1P2S1O12
NaCaAl(SO4)3,mp-2714044,4.4755,0.77381554,0.07754018055555001,"{11: 1, 20: 1, 13: 1, 16: 3, 8: 12}","[8, 11, 13, 16, 20]",812111131163201,Na1Ca1Al1S3O12
NaAlZn(SO4)3,mp-2714062,4.7086,1.24924743,0.026104148182866993,"{11: 1, 13: 1, 30: 1, 16: 3, 8: 12}","[8, 11, 13, 16, 30]",812111131163301,Na1Al1Zn1S3O12
NaAl2P(SO6)2,mp-2714395,5.2589,2.31775723,0.024526964166665444,"{11: 1, 13: 2, 15: 1, 16: 2, 8: 12}","[8, 11, 13, 15, 16]",812111132151162,Na1Al2P1S2O12
NaAl3(SiO4)3,mp-1220946,2.9953,5.61090194,0.19639988925837315,"{11: 1, 13: 3, 14: 3, 8: 12}","[8, 11, 13, 14]",812111133143,Na1Al3Si3O12
NaCaAl3(SiO4)3,mp-677223,3.4730999999999996,-1.41830338,0.0979373766875078,"{11: 1, 20: 1, 13: 3, 14: 3, 8: 12}","[8, 11, 13, 14, 20]",812111133143201,Na1Ca1Al3Si3O12
NaAl3Tl2(SiO4)3,mp-677233,2.9332000000000003,-0.57115075,0.10797103605158842,"{11: 1, 13: 3, 81: 2, 14: 3, 8: 12}","[8, 11, 13, 14, 81]",812111133143812,Na1Al3Tl2Si3O12
Na2MgAlP(SO6)2,mp-2713389,4.5306,2.05681228,0.07064797175438997,"{11: 2, 12: 1, 13: 1, 15: 1, 16: 2, 8: 12}","[8, 11, 12, 13, 15, 16]",812112121131151162,Na2Mg1Al1P1S2O12
Na2NbAlSi(PO6)2,mp-2712583,2.363,1.71896338,0.050423750394720024,"{11: 2, 41: 1, 13: 1, 14: 1, 15: 2, 8: 12}","[8, 11, 13, 14, 15, 41]",812112131141152411,Na2Nb1Al1Si1P2O12
Na2TaAlSi(PO6)2,mp-2712599,3.2444,1.94450066,0.04511456597075636,"{11: 2, 73: 1, 13: 1, 14: 1, 15: 2, 8: 12}","[8, 11, 13, 14, 15, 73]",812112131141152731,Na2Ta1Al1Si1P2O12
Na2ScAlSi(SO6)2,mp-2713283,4.2922,1.71177311,0.0891827827996865,"{11: 2, 21: 1, 13: 1, 14: 1, 16: 2, 8: 12}","[8, 11, 13, 14, 16, 21]",812112131141162211,Na2Sc1Al1Si1S2O12
Na2AlGaSi(SO6)2,mp-2713544,3.7169999999999996,2.09395028,0.09952417092836985,"{11: 2, 13: 1, 31: 1, 14: 1, 16: 2, 8: 12}","[8, 11, 13, 14, 16, 31]",812112131141162311,Na2Al1Ga1Si1S2O12
Na2AlInSi(SO6)2,mp-2713569,3.2819999999999996,2.23088139,0.09353861116227424,"{11: 2, 13: 1, 49: 1, 14: 1, 16: 2, 8: 12}","[8, 11, 13, 14, 16, 49]",812112131141162491,Na2Al1In1Si1S2O12
Na2LaAlSi(SO6)2,mp-2713643,4.1033,2.0850027,0.1363248282236782,"{11: 2, 57: 1, 13: 1, 14: 1, 16: 2, 8: 12}","[8, 11, 13, 14, 16, 57]",812112131141162571,Na2La1Al1Si1S2O12
Na2NbAlSi2SO12,mp-2712776,2.4475,1.64154861,0.12266401736843768,"{11: 2, 41: 1, 13: 1, 14: 2, 16: 1, 8: 12}","[8, 11, 13, 14, 16, 41]",812112131142161411,Na2Nb1Al1Si2S1O12
Na2TaAlSi2SO12,mp-2712553,3.1738999999999997,1.76875894,0.11964776925435494,"{11: 2, 73: 1, 13: 1, 14: 2, 16: 1, 8: 12}","[8, 11, 13, 14, 16, 73]",812112131142161731,Na2Ta1Al1Si2S1O12
Na2CaAlP(SO6)2,mp-2713155,3.8299999999999996,1.44009509,0.1402644555263146,"{11: 2, 20: 1, 13: 1, 15: 1, 16: 2, 8: 12}","[8, 11, 13, 15, 16, 20]",812112131151162201,Na2Ca1Al1P1S2O12
Na2AlZnP(SO6)2,mp-2713471,4.2188,1.81948721,0.08582472493420923,"{11: 2, 13: 1, 30: 1, 15: 1, 16: 2, 8: 12}","[8, 11, 13, 15, 16, 30]",812112131151162301,Na2Al1Zn1P1S2O12
Na2ScAlP2SO12,mp-2713296,4.3307,1.89801743,0.049156914824568076,"{11: 2, 21: 1, 13: 1, 15: 2, 16: 1, 8: 12}","[8, 11, 13, 15, 16, 21]",812112131152161211,Na2Sc1Al1P2S1O12
Na2AlGaP2SO12,mp-2713329,4.2966,2.12873037,0.07265133798245582,"{11: 2, 13: 1, 31: 1, 15: 2, 16: 1, 8: 12}","[8, 11, 13, 15, 16, 31]",812112131152161311,Na2Al1Ga1P2S1O12
Na2AlInP2SO12,mp-2713612,3.7753,2.11846642,0.05794179798245569,"{11: 2, 13: 1, 49: 1, 15: 2, 16: 1, 8: 12}","[8, 11, 13, 15, 16, 49]",812112131152161491,Na2Al1In1P2S1O12
Na2LaAlP2SO12,mp-2713263,4.4528,2.04058761,0.11705874570175112,"{11: 2, 57: 1, 13: 1, 15: 2, 16: 1, 8: 12}","[8, 11, 13, 15, 16, 57]",812112131152161571,Na2La1Al1P2S1O12
Na2TiAl(PO4)3,mp-2713563,2.5249,1.89841292,0.01683878746139733,"{11: 2, 22: 1, 13: 1, 15: 3, 8: 12}","[8, 11, 13, 15, 22]",812112131153221,Na2Ti1Al1P3O12
Na2AlGe(PO4)3,mp-2713680,2.9903000000000004,2.29284313,0.03845300324561318,"{11: 2, 13: 1, 32: 1, 15: 3, 8: 12}","[8, 11, 13, 15, 32]",812112131153321,Na2Al1Ge1P3O12
Na2ZrAl(PO4)3,mp-2713598,4.4254999999999995,1.49634407,0.03597206384321261,"{11: 2, 40: 1, 13: 1, 15: 3, 8: 12}","[8, 11, 13, 15, 40]",812112131153401,Na2Zr1Al1P3O12
Na2AlSn(PO4)3,mp-2713717,3.5294,2.27958049,0.026882573929809084,"{11: 2, 13: 1, 50: 1, 15: 3, 8: 12}","[8, 11, 13, 15, 50]",812112131153501,Na2Al1Sn1P3O12
Na2HfAl(PO4)3,mp-2713315,4.941000000000001,1.59604642,0.028591473974791448,"{11: 2, 72: 1, 13: 1, 15: 3, 8: 12}","[8, 11, 13, 15, 72]",812112131153721,Na2Hf1Al1P3O12
Na2Al2Si(SO6)2,mp-2713629,4.4963,2.65679453,0.092046673713444,"{11: 2, 13: 2, 14: 1, 16: 2, 8: 12}","[8, 11, 13, 14, 16]",812112132141162,Na2Al2Si1S2O12
Na2Al2(SiO4)3,mp-1196695,0.5721,-0.26457997,0.21819586378289113,"{11: 2, 13: 2, 14: 3, 8: 12}","[8, 11, 13, 14]",812112132143,Na2Al2Si3O12
Na2Al2P2SO12,mp-2713603,5.0354,2.46273749,0.06815195631578774,"{11: 2, 13: 2, 15: 2, 16: 1, 8: 12}","[8, 11, 13, 15, 16]",812112132152161,Na2Al2P2S1O12
Na2Al2(GeO4)3,mp-1221522,0.31889999999999996,-1.07840773,0.24459736544258082,"{11: 2, 13: 2, 32: 3, 8: 12}","[8, 11, 13, 32]",812112132323,Na2Al2Ge3O12
Rb2Na2Al3(SiO4)3,mp-1209704,0.0,5.82712294,0.06850268714489083,"{37: 2, 11: 2, 13: 3, 14: 3, 8: 12}","[8, 11, 13, 14, 37]",812112133143372,Rb2Na2Al3Si3O12
Rb2Na2Al3(GeO4)3,mp-1209752,0.0,4.510314,0.04112563275482373,"{37: 2, 11: 2, 13: 3, 32: 3, 8: 12}","[8, 11, 13, 32, 37]",812112133323372,Rb2Na2Al3Ge3O12
Na3MgAlSi(SO6)2,mp-2712593,3.8314000000000004,2.5732961,0.12882377335832995,"{11: 3, 12: 1, 13: 1, 14: 1, 16: 2, 8: 12}","[8, 11, 12, 13, 14, 16]",812113121131141162,Na3Mg1Al1Si1S2O12
Na3MgAlP2SO12,mp-2712560,4.5641,2.27769921,0.060308633624986285,"{11: 3, 12: 1, 13: 1, 15: 2, 16: 1, 8: 12}","[8, 11, 12, 13, 15, 16]",812113121131152161,Na3Mg1Al1P2S1O12
Na3TiAlSi(PO6)2,mp-2715405,2.4981000000000004,2.30345385,0.04480399066944507,"{11: 3, 22: 1, 13: 1, 14: 1, 15: 2, 8: 12}","[8, 11, 13, 14, 15, 22]",812113131141152221,Na3Ti1Al1Si1P2O12
Na3AlSiGe(PO6)2,mp-2715233,2.8619999999999997,2.57913249,0.07729843952777582,"{11: 3, 13: 1, 14: 1, 32: 1, 15: 2, 8: 12}","[8, 11, 13, 14, 15, 32]",812113131141152321,Na3Al1Si1Ge1P2O12
Na3ZrAlSi(PO6)2,mp-2715498,4.2522,1.98729563,0.0555386235625015,"{11: 3, 40: 1, 13: 1, 14: 1, 15: 2, 8: 12}","[8, 11, 13, 14, 15, 40]",812113131141152401,Na3Zr1Al1Si1P2O12
Na3AlSiSn(PO6)2,mp-2715388,3.3057,2.6618255,0.055959702777824916,"{11: 3, 13: 1, 14: 1, 50: 1, 15: 2, 8: 12}","[8, 11, 13, 14, 15, 50]",812113131141152501,Na3Al1Si1Sn1P2O12
Na3HfAlSi(PO6)2,mp-2715477,4.4935,2.03825671,0.052097851187501654,"{11: 3, 72: 1, 13: 1, 14: 1, 15: 2, 8: 12}","[8, 11, 13, 14, 15, 72]",812113131141152721,Na3Hf1Al1Si1P2O12
Na3CaAlSi(SO6)2,mp-2712677,3.0170000000000003,2.07835383,0.18152169281250785,"{11: 3, 20: 1, 13: 1, 14: 1, 16: 2, 8: 12}","[8, 11, 13, 14, 16, 20]",812113131141162201,Na3Ca1Al1Si1S2O12
Na3AlZnSi(SO6)2,mp-2712811,3.5500000000000003,2.4766307,0.1397208678437485,"{11: 3, 13: 1, 30: 1, 14: 1, 16: 2, 8: 12}","[8, 11, 13, 14, 16, 30]",812113131141162301,Na3Al1Zn1Si1S2O12
Na3NbAlSi2PO12,mp-2715510,2.2785,2.2618115,0.06978285076387802,"{11: 3, 41: 1, 13: 1, 14: 2, 15: 1, 8: 12}","[8, 11, 13, 14, 15, 41]",812113131142151411,Na3Nb1Al1Si2P1O12
Na3TaAlSi2PO12,mp-2713269,3.3973000000000004,2.21208821,0.06158456688888769,"{11: 3, 73: 1, 13: 1, 14: 2, 15: 1, 8: 12}","[8, 11, 13, 14, 15, 73]",812113131142151731,Na3Ta1Al1Si2P1O12
Na3TiAlSi2SO12,mp-2714372,2.5300000000000002,2.48162711,0.10611415257291945,"{11: 3, 22: 1, 13: 1, 14: 2, 16: 1, 8: 12}","[8, 11, 13, 14, 16, 22]",812113131142161221,Na3Ti1Al1Si2S1O12
Na3AlSi2GeSO12,mp-2714333,2.3293999999999997,2.68267867,0.15039728753124937,"{11: 3, 13: 1, 14: 2, 32: 1, 16: 1, 8: 12}","[8, 11, 13, 14, 16, 32]",812113131142161321,Na3Al1Si2Ge1S1O12
Na3ZrAlSi2SO12,mp-2714373,3.9720999999999993,2.18031837,0.12477764822916004,"{11: 3, 40: 1, 13: 1, 14: 2, 16: 1, 8: 12}","[8, 11, 13, 14, 16, 40]",812113131142161401,Na3Zr1Al1Si2S1O12
Na3AlSi2SnSO12,mp-2714562,2.6313999999999997,2.91660304,0.14379731544791508,"{11: 3, 13: 1, 14: 2, 50: 1, 16: 1, 8: 12}","[8, 11, 13, 14, 16, 50]",812113131142161501,Na3Al1Si2Sn1S1O12
Na3HfAlSi2SO12,mp-2714534,4.0715,2.29150389,0.11296113606249936,"{11: 3, 72: 1, 13: 1, 14: 2, 16: 1, 8: 12}","[8, 11, 13, 14, 16, 72]",812113131142161721,Na3Hf1Al1Si2S1O12
Na3CaAlP2SO12,mp-2712549,4.0161999999999995,1.59579928,0.11313084132292239,"{11: 3, 20: 1, 13: 1, 15: 2, 16: 1, 8: 12}","[8, 11, 13, 15, 16, 20]",812113131152161201,Na3Ca1Al1P2S1O12
Na3AlZnP2SO12,mp-2712812,4.0920000000000005,2.22895668,0.09758412929166305,"{11: 3, 13: 1, 30: 1, 15: 2, 16: 1, 8: 12}","[8, 11, 13, 15, 16, 30]",812113131152161301,Na3Al1Zn1P2S1O12
Na3ScAl(PO4)3,mp-2715422,4.5188,2.02730219,0.01820502048438044,"{11: 3, 21: 1, 13: 1, 15: 3, 8: 12}","[8, 11, 13, 15, 21]",812113131153211,Na3Sc1Al1P3O12