formula,material_id,band_gap,efermi,energy_above_hull,comp_atoms,sorted_keys_comp_atoms,comp_number,new_formula
Na14Al4Ga4Si7S5O48,mp-2715613,3.2221,2.9185957,0.1344074303023426,"{11: 14, 13: 4, 31: 4, 14: 7, 16: 5, 8: 48}","[8, 11, 13, 14, 16, 31]",8481114134147165314,Na14Al4Ga4Si7S5O48
Na14Al4In4Si7S5O48,mp-2715548,2.6232999999999995,3.24534859,0.12872261139989494,"{11: 14, 13: 4, 49: 4, 14: 7, 16: 5, 8: 48}","[8, 11, 13, 14, 16, 49]",8481114134147165494,Na14Al4In4Si7S5O48
Na14La4Al4Si7S5O48,mp-2715631,3.1904,3.16507581,0.15001945410568673,"{11: 14, 57: 4, 13: 4, 14: 7, 16: 5, 8: 48}","[8, 11, 13, 14, 16, 57]",8481114134147165574,Na14La4Al4Si7S5O48
Na14Ti4Al4Si9(SO16)3,mp-2715107,2.0274000000000005,2.71081802,0.09045759208586901,"{11: 14, 22: 4, 13: 4, 14: 9, 16: 3, 8: 48}","[8, 11, 13, 14, 16, 22]",8481114134149163224,Na14Ti4Al4Si9S3O48
Na14Al4Si9Ge4(SO16)3,mp-2715195,2.6359999999999997,3.04710557,0.12000534936229723,"{11: 14, 13: 4, 14: 9, 32: 4, 16: 3, 8: 48}","[8, 11, 13, 14, 16, 32]",8481114134149163324,Na14Al4Si9Ge4S3O48
Na14Zr4Al4Si9(SO16)3,mp-2714690,3.3433999999999995,2.40402482,0.09531802699186365,"{11: 14, 40: 4, 13: 4, 14: 9, 16: 3, 8: 48}","[8, 11, 13, 14, 16, 40]",8481114134149163404,Na14Zr4Al4Si9S3O48
Na14Al4Si9Sn4(SO16)3,mp-2715127,2.4356999999999998,3.14665141,0.10455694993140252,"{11: 14, 13: 4, 14: 9, 50: 4, 16: 3, 8: 48}","[8, 11, 13, 14, 16, 50]",8481114134149163504,Na14Al4Si9Sn4S3O48
Na14Hf4Al4Si9(SO16)3,mp-2714919,3.7420999999999998,2.62184748,0.09052999205284529,"{11: 14, 72: 4, 13: 4, 14: 9, 16: 3, 8: 48}","[8, 11, 13, 14, 16, 72]",8481114134149163724,Na14Hf4Al4Si9S3O48
Na14Nb2Al6Si9(SO16)3,mp-2714887,1.7597,2.90509585,0.119539294438475,"{11: 14, 41: 2, 13: 6, 14: 9, 16: 3, 8: 48}","[8, 11, 13, 14, 16, 41]",8481114136149163412,Na14Nb2Al6Si9S3O48
Na14Ta2Al6Si9(SO16)3,mp-2714810,2.4537999999999998,3.11329946,0.1152503140116865,"{11: 14, 73: 2, 13: 6, 14: 9, 16: 3, 8: 48}","[8, 11, 13, 14, 16, 73]",8481114136149163732,Na14Ta2Al6Si9S3O48
Na14Al8Si7S5O48,mp-2715647,3.7615999999999996,3.2849073,0.12588643497203122,"{11: 14, 13: 8, 14: 7, 16: 5, 8: 48}","[8, 11, 13, 14, 16]",8481114138147165,Na14Al8Si7S5O48
Na16Al12Si12I3ClO48,mp-1221546,4.234999999999999,0.63640222,0.0023996683152081033,"{11: 16, 13: 12, 14: 12, 53: 3, 17: 1, 8: 48}","[8, 11, 13, 14, 17, 53]",848111613121412171533,Na16Al12Si12I3Cl1O48
Rb9Na2Al11Si13O48,mp-720212,2.4145,-0.22967481,0.11492084593373075,"{37: 9, 11: 2, 13: 11, 14: 13, 8: 48}","[8, 11, 13, 14, 37]",84811213111413379,Rb9Na2Al11Si13O48
Na2Nb6Al2Si7S5O48,mp-2715801,1.864,0.96446946,0.05566455178911234,"{11: 2, 41: 6, 13: 2, 14: 7, 16: 5, 8: 48}","[8, 11, 13, 14, 16, 41]",848112132147165416,Na2Nb6Al2Si7S5O48
Na2Ta6Al2Si7S5O48,mp-2715813,2.5419,1.14622856,0.046756324190486254,"{11: 2, 73: 6, 13: 2, 14: 7, 16: 5, 8: 48}","[8, 11, 13, 14, 16, 73]",848112132147165736,Na2Ta6Al2Si7S5O48
Na2Nb5Al3Si6(SO8)6,mp-2713785,1.5021,1.47121643,0.06693976385205413,"{11: 2, 41: 5, 13: 3, 14: 6, 16: 6, 8: 48}","[8, 11, 13, 14, 16, 41]",848112133146166415,Na2Nb5Al3Si6S6O48
Na2Ta5Al3Si6(SO8)6,mp-2713946,2.173,1.65265856,0.06035870853572867,"{11: 2, 73: 5, 13: 3, 14: 6, 16: 6, 8: 48}","[8, 11, 13, 14, 16, 73]",848112133146166735,Na2Ta5Al3Si6S6O48
Na2Nb5Al3(PO4)12,mp-2713754,1.8831,1.33949945,0.001681448714313305,"{11: 2, 41: 5, 13: 3, 15: 12, 8: 48}","[8, 11, 13, 15, 41]",8481121331512415,Na2Nb5Al3P12O48
Na2Sc4Al4SiS11O48,mp-2714241,3.665,1.91750904,0.04697901869838983,"{11: 2, 21: 4, 13: 4, 14: 1, 16: 11, 8: 48}","[8, 11, 13, 14, 16, 21]",8481121341411611214,Na2Sc4Al4Si1S11O48
Na2Al4Ga4SiS11O48,mp-2714255,1.8960999999999997,3.10916453,0.04549549126190655,"{11: 2, 13: 4, 31: 4, 14: 1, 16: 11, 8: 48}","[8, 11, 13, 14, 16, 31]",8481121341411611314,Na2Al4Ga4Si1S11O48
Na2Al4In4SiS11O48,mp-2714069,2.3280000000000003,2.98989754,0.052301648317439664,"{11: 2, 13: 4, 49: 4, 14: 1, 16: 11, 8: 48}","[8, 11, 13, 14, 16, 49]",8481121341411611494,Na2Al4In4Si1S11O48
Na2La4Al4SiS11O48,mp-2714147,2.9451,2.0709045,0.09407896207936517,"{11: 2, 57: 4, 13: 4, 14: 1, 16: 11, 8: 48}","[8, 11, 13, 14, 16, 57]",8481121341411611574,Na2La4Al4Si1S11O48
Na2Ti4Al4Si3(S3O16)3,mp-2716285,1.1605,1.88842451,0.04799682572618291,"{11: 2, 22: 4, 13: 4, 14: 3, 16: 9, 8: 48}","[8, 11, 13, 14, 16, 22]",848112134143169224,Na2Ti4Al4Si3S9O48
Na2Al4Si3Ge4(S3O16)3,mp-2716388,1.3280999999999996,2.31845768,0.11653484445536577,"{11: 2, 13: 4, 14: 3, 32: 4, 16: 9, 8: 48}","[8, 11, 13, 14, 16, 32]",848112134143169324,Na2Al4Si3Ge4S9O48
Na2Zr4Al4Si3(S3O16)3,mp-2716401,2.7737999999999996,1.49485816,0.05568241752380576,"{11: 2, 40: 4, 13: 4, 14: 3, 16: 9, 8: 48}","[8, 11, 13, 14, 16, 40]",848112134143169404,Na2Zr4Al4Si3S9O48
Na2Al4Si3Sn4(S3O16)3,mp-2716439,1.6993,2.49743756,0.09263850286607322,"{11: 2, 13: 4, 14: 3, 50: 4, 16: 9, 8: 48}","[8, 11, 13, 14, 16, 50]",848112134143169504,Na2Al4Si3Sn4S9O48
Na2Hf4Al4Si3(S3O16)3,mp-2716437,3.3794,1.7485896,0.051592600380948817,"{11: 2, 72: 4, 13: 4, 14: 3, 16: 9, 8: 48}","[8, 11, 13, 14, 16, 72]",848112134143169724,Na2Hf4Al4Si3S9O48
Na2Nb4Al4Si5S7O48,mp-2716187,1.3302,1.75596208,0.07854158777211584,"{11: 2, 41: 4, 13: 4, 14: 5, 16: 7, 8: 48}","[8, 11, 13, 14, 16, 41]",848112134145167414,Na2Nb4Al4Si5S7O48
Na2Ta4Al4Si5S7O48,mp-2716133,1.8533,2.04494748,0.07325876607142767,"{11: 2, 73: 4, 13: 4, 14: 5, 16: 7, 8: 48}","[8, 11, 13, 14, 16, 73]",848112134145167734,Na2Ta4Al4Si5S7O48
Na2Nb2Al6Si3(S3O16)3,mp-2716291,0.8976,2.2071346,0.060663968336733376,"{11: 2, 41: 2, 13: 6, 14: 3, 16: 9, 8: 48}","[8, 11, 13, 14, 16, 41]",848112136143169412,Na2Nb2Al6Si3S9O48
Na2Ta2Al6Si3(S3O16)3,mp-2716282,1.6352000000000002,2.49069693,0.060246499523839425,"{11: 2, 73: 2, 13: 6, 14: 3, 16: 9, 8: 48}","[8, 11, 13, 14, 16, 73]",848112136143169732,Na2Ta2Al6Si3S9O48
Na2Al8SiS11O48,mp-2714245,3.1863000000000006,3.61182985,0.0343292211269981,"{11: 2, 13: 8, 14: 1, 16: 11, 8: 48}","[8, 11, 13, 14, 16]",8481121381411611,Na2Al8Si1S11O48
Na4Al11Si13Ag7O48,mp-695373,1.5011,-0.82864209,0.12692584656626416,"{11: 4, 13: 11, 14: 13, 47: 7, 8: 48}","[8, 11, 13, 14, 47]",84811413111413477,Na4Al11Si13Ag7O48
Na5Ti7Al(PO4)12,mp-677499,0.0,2.91117323,0.002199577535613173,"{11: 5, 22: 7, 13: 1, 15: 12, 8: 48}","[8, 11, 13, 15, 22]",8481151311512227,Na5Ti7Al1P12O48
Na6Mg4Al4SiS11O48,mp-2713714,4.3877999999999995,2.35060421,0.032832753986484775,"{11: 6, 12: 4, 13: 4, 14: 1, 16: 11, 8: 48}","[8, 11, 12, 13, 14, 16]",8481161241341411611,Na6Mg4Al4Si1S11O48
Na6Nb6Al2Si9(SO16)3,mp-2712990,2.147,1.60924973,0.08018363338809475,"{11: 6, 41: 6, 13: 2, 14: 9, 16: 3, 8: 48}","[8, 11, 13, 14, 16, 41]",848116132149163416,Na6Nb6Al2Si9S3O48
Na6Ta6Al2Si9(SO16)3,mp-2712979,2.8116999999999996,1.8621743,0.07218291346848993,"{11: 6, 73: 6, 13: 2, 14: 9, 16: 3, 8: 48}","[8, 11, 13, 14, 16, 73]",848116132149163736,Na6Ta6Al2Si9S3O48
Na6Ca4Al4SiS11O48,mp-2712721,4.0474,1.6491624,0.06800312737237313,"{11: 6, 20: 4, 13: 4, 14: 1, 16: 11, 8: 48}","[8, 11, 13, 14, 16, 20]",8481161341411611204,Na6Ca4Al4Si1S11O48
Na6Al4Zn4SiS11O48,mp-2712630,3.9263000000000003,1.96474214,0.04741140990991077,"{11: 6, 13: 4, 30: 4, 14: 1, 16: 11, 8: 48}","[8, 11, 13, 14, 16, 30]",8481161341411611304,Na6Al4Zn4Si1S11O48
Na6Sc4Al4Si3(S3O16)3,mp-2713834,3.2904,2.12343221,0.07201770414413389,"{11: 6, 21: 4, 13: 4, 14: 3, 16: 9, 8: 48}","[8, 11, 13, 14, 16, 21]",848116134143169214,Na6Sc4Al4Si3S9O48
Na6Al4Ga4Si3(S3O16)3,mp-2713796,2.7375,2.72601311,0.08672883024775224,"{11: 6, 13: 4, 31: 4, 14: 3, 16: 9, 8: 48}","[8, 11, 13, 14, 16, 31]",848116134143169314,Na6Al4Ga4Si3S9O48
Na6Al4In4Si3(S3O16)3,mp-2713774,2.5328000000000004,2.67515789,0.07168603999998968,"{11: 6, 13: 4, 49: 4, 14: 3, 16: 9, 8: 48}","[8, 11, 13, 14, 16, 49]",848116134143169494,Na6Al4In4Si3S9O48
Na6La4Al4Si3(S3O16)3,mp-2713753,3.8865999999999996,1.9587445,0.12541258211711703,"{11: 6, 57: 4, 13: 4, 14: 3, 16: 9, 8: 48}","[8, 11, 13, 14, 16, 57]",848116134143169574,Na6La4Al4Si3S9O48
Na6Ti4Al4Si5S7O48,mp-2716108,1.1757,2.51529808,0.08582940939940276,"{11: 6, 22: 4, 13: 4, 14: 5, 16: 7, 8: 48}","[8, 11, 13, 14, 16, 22]",848116134145167224,Na6Ti4Al4Si5S7O48
Na6Al4Si5Ge4S7O48,mp-2715944,1.2907000000000002,2.88866456,0.1405428256606589,"{11: 6, 13: 4, 14: 5, 32: 4, 16: 7, 8: 48}","[8, 11, 13, 14, 16, 32]",848116134145167324,Na6Al4Si5Ge4S7O48
Na6Zr4Al4Si5S7O48,mp-2715840,2.7107,2.0352115,0.08762003381380978,"{11: 6, 40: 4, 13: 4, 14: 5, 16: 7, 8: 48}","[8, 11, 13, 14, 16, 40]",848116134145167404,Na6Zr4Al4Si5S7O48
Na6Al4Si5Sn4S7O48,mp-2715986,1.8546000000000005,2.85779044,0.1141221018318328,"{11: 6, 13: 4, 14: 5, 50: 4, 16: 7, 8: 48}","[8, 11, 13, 14, 16, 50]",848116134145167504,Na6Al4Si5Sn4S7O48
Na6Hf4Al4Si5S7O48,mp-2716016,3.3307,2.39909094,0.08532403336334671,"{11: 6, 72: 4, 13: 4, 14: 5, 16: 7, 8: 48}","[8, 11, 13, 14, 16, 72]",848116134145167724,Na6Hf4Al4Si5S7O48
Na6Nb4Al4Si7S5O48,mp-2712938,1.5459999999999998,2.10422437,0.09163469896717213,"{11: 6, 41: 4, 13: 4, 14: 7, 16: 5, 8: 48}","[8, 11, 13, 14, 16, 41]",848116134147165414,Na6Nb4Al4Si7S5O48
Na6Ta4Al4Si7S5O48,mp-2713028,2.2015,2.33213045,0.0864555543468466,"{11: 6, 73: 4, 13: 4, 14: 7, 16: 5, 8: 48}","[8, 11, 13, 14, 16, 73]",848116134147165734,Na6Ta4Al4Si7S5O48
Na6Nb3Al5Si6(SO8)6,mp-2716557,1.5143999999999997,2.40962097,0.09660531355851809,"{11: 6, 41: 3, 13: 5, 14: 6, 16: 6, 8: 48}","[8, 11, 13, 14, 16, 41]",848116135146166413,Na6Nb3Al5Si6S6O48
Na6Ta3Al5Si6(SO8)6,mp-2714792,2.1841000000000004,2.61126145,0.09723267692564708,"{11: 6, 73: 3, 13: 5, 14: 6, 16: 6, 8: 48}","[8, 11, 13, 14, 16, 73]",848116135146166733,Na6Ta3Al5Si6S6O48
Na6Nb3Al5(PO4)12,mp-2714737,2.253,1.9816069,0.011652696441440291,"{11: 6, 41: 3, 13: 5, 15: 12, 8: 48}","[8, 11, 13, 15, 41]",8481161351512413,Na6Nb3Al5P12O48
Na6Ta3Al5(PO4)12,mp-2714836,2.9987999999999997,2.01958425,0.010310940563035054,"{11: 6, 73: 3, 13: 5, 15: 12, 8: 48}","[8, 11, 13, 15, 73]",8481161351512733,Na6Ta3Al5P12O48
Na6Nb2Al6Si5S7O48,mp-2715964,1.2165000000000004,2.32559768,0.09899253827323928,"{11: 6, 41: 2, 13: 6, 14: 5, 16: 7, 8: 48}","[8, 11, 13, 14, 16, 41]",848116136145167412,Na6Nb2Al6Si5S7O48
Na6Ta2Al6Si5S7O48,mp-2716095,1.8483999999999998,2.44846796,0.1004284246921685,"{11: 6, 73: 2, 13: 6, 14: 5, 16: 7, 8: 48}","[8, 11, 13, 14, 16, 73]",848116136145167732,Na6Ta2Al6Si5S7O48
Na6Al8Si3(S3O16)3,mp-2713850,3.4505999999999997,3.2092557,0.07575312234233689,"{11: 6, 13: 8, 14: 3, 16: 9, 8: 48}","[8, 11, 13, 14, 16]",848116138143169,Na6Al8Si3S9O48
Na7Al10Si14(AgO16)3,mp-690987,2.5056000000000003,1.50794836,0.11140046121189506,"{11: 7, 13: 10, 14: 14, 47: 3, 8: 48}","[8, 11, 13, 14, 47]",84811713101414473,Na7Al10Si14Ag3O48
Na7Al11Si13(AgO12)4,mp-686232,0.5483,-0.18970834,0.16375747771085436,"{11: 7, 13: 11, 14: 13, 47: 4, 8: 48}","[8, 11, 13, 14, 47]",84811713111413474,Na7Al11Si13Ag4O48
Na8Al11Si13(AgO16)3,mp-677572,0.048600000000000004,-0.27635601,0.11863185984186408,"{11: 8, 13: 11, 14: 13, 47: 3, 8: 48}","[8, 11, 13, 14, 47]",84811813111413473,Na8Al11Si13Ag3O48
Ca3Mg9Al8(SiO4)12,mp-1227888,4.980499999999999,4.21916982,0.03934379169997548,"{20: 3, 12: 9, 13: 8, 14: 12, 8: 48}","[8, 12, 13, 14, 20]",8481291381412203,Ca3Mg9Al8Si12O48
Sr5Al10(Si7O24)2,mp-720112,4.3055,1.51337874,0.028725511580081076,"{38: 5, 13: 10, 14: 14, 8: 48}","[8, 13, 14, 38]",84813101414385,Sr5Al10Si14O48
K2Al11Si13(Ag3O16)3,mp-1248874,1.3746,-0.94316258,0.11899701694778209,"{19: 2, 13: 11, 14: 13, 47: 9, 8: 48}","[8, 13, 14, 19, 47]",84813111413192479,K2Al11Si13Ag9O48
K6Al11Si13Ag5O48,mp-1248154,1.7038,-0.00206863,0.16466226311745924,"{19: 6, 13: 11, 14: 13, 47: 5, 8: 48}","[8, 13, 14, 19, 47]",84813111413196475,K6Al11Si13Ag5O48
Ca2Al11Si13Ag7O48,mp-706809,1.7357,-0.45942427,0.1246050260493714,"{20: 2, 13: 11, 14: 13, 47: 7, 8: 48}","[8, 13, 14, 20, 47]",84813111413202477,Ca2Al11Si13Ag7O48
Ca4Al11Si13(AgO16)3,mp-686702,2.4763,-0.91639493,0.1175500685232036,"{20: 4, 13: 11, 14: 13, 47: 3, 8: 48}","[8, 13, 14, 20, 47]",84813111413204473,Ca4Al11Si13Ag3O48
Ca5Al11TlSi13O48,mp-1254519,2.5947,-1.14635704,0.15328453750000026,"{20: 5, 13: 11, 81: 1, 14: 13, 8: 48}","[8, 13, 14, 20, 81]",84813111413205811,Ca5Al11Tl1Si13O48
Sr5Al11TlSi13O48,mp-1249531,3.1064,-1.15861573,0.13460375467948715,"{38: 5, 13: 11, 81: 1, 14: 13, 8: 48}","[8, 13, 14, 38, 81]",84813111413385811,Sr5Al11Tl1Si13O48
Al11(PO4)12,mp-1183021,0.062000000000000055,-1.29049364,0.057883823274648805,"{13: 11, 15: 12, 8: 48}","[8, 13, 15]",84813111512,Al11P12O48
Al12Si12Ag16S5O48,mp-1248193,0.0,1.77934394,0.09821861676822063,"{13: 12, 14: 12, 47: 16, 16: 5, 8: 48}","[8, 13, 14, 16, 47]",848131214121654716,Al12Si12Ag16S5O48
Ca5Al12Si12(AgO24)2,mp-677550,2.194,-0.57543977,0.12287830985230741,"{20: 5, 13: 12, 14: 12, 47: 2, 8: 48}","[8, 13, 14, 20, 47]",84813121412205472,Ca5Al12Si12Ag2O48
Rb11Al14Si10(AgO16)3,mp-1251571,0.006599999999999939,-0.58717156,0.20255310645348779,"{37: 11, 13: 14, 14: 10, 47: 3, 8: 48}","[8, 13, 14, 37, 47]",848131414103711473,Rb11Al14Si10Ag3O48
TaTi9Al3Zn23O48,mp-695545,1.6626000000000003,2.42755438,0.053204342678563776,"{73: 1, 22: 9, 13: 3, 30: 23, 8: 48}","[8, 13, 22, 30, 73]",8481332293023731,Ta1Ti9Al3Zn23O48
Sr3Al2P(O2F5)2,mp-1199626,0.0,0.41041553,0.03573544802084161,"{38: 3, 13: 2, 15: 1, 8: 4, 9: 10}","[8, 9, 13, 15, 38]",84910132151383,Sr3Al2P1O4F10
NaAlPO4F,mp-8678,5.4354000000000005,2.73825764,0.005428445130214676,"{11: 1, 13: 1, 15: 1, 8: 4, 9: 1}","[8, 9, 11, 13, 15]",8491111131151,Na1Al1P1O4F1
CaAlSiO4F,mp-6873,4.980499999999999,3.19509007,0.02938138093750009,"{20: 1, 13: 1, 14: 1, 8: 4, 9: 1}","[8, 9, 13, 14, 20]",8491131141201,Ca1Al1Si1O4F1
Sr2CaAlO4F,mp-1218862,4.4684,7.12278398,0.03612023085648186,"{38: 2, 20: 1, 13: 1, 8: 4, 9: 1}","[8, 9, 13, 20, 38]",8491131201382,Sr2Ca1Al1O4F1
Sr3AlO4F,mp-15736,4.0489999999999995,2.64843318,0.011006961412040717,"{38: 3, 13: 1, 8: 4, 9: 1}","[8, 9, 13, 38]",8491131383,Sr3Al1O4F1
Al3(O2F)2,mp-1214868,0.0,2.47250281,0.14734058817340134,"{13: 3, 8: 4, 9: 2}","[8, 9, 13]",8492133,Al3O4F2
CaAl2(OF)4,mp-1191489,0.6629999999999999,-0.47644512,0.4074454409641888,"{20: 1, 13: 2, 8: 4, 9: 4}","[8, 9, 13, 20]",8494132201,Ca1Al2O4F4
SrCa4Al10(SiO5)10,mp-1218540,0.0,2.23092649,0.3494197728262671,"{38: 1, 20: 4, 13: 10, 14: 10, 8: 50}","[8, 13, 14, 20, 38]",85013101410204381,Sr1Ca4Al10Si10O50
Ca10Ti8NbAl(SiO5)10,mp-693409,2.8619,2.69972801,0.004114985880205424,"{20: 10, 22: 8, 41: 1, 13: 1, 14: 10, 8: 50}","[8, 13, 14, 20, 22, 41]",85013114102010228411,Ca10Ti8Nb1Al1Si10O50
Ca10TaTi8Al(SiO5)10,mp-1173088,2.7784,5.44139503,0.00240180693746872,"{20: 10, 73: 1, 22: 8, 13: 1, 14: 10, 8: 50}","[8, 13, 14, 20, 22, 73]",85013114102010228731,Ca10Ta1Ti8Al1Si10O50
Ca10Ta3Ti4Al3(SiO5)10,mp-534838,2.8431999999999995,5.53975727,0.006379221420138137,"{20: 10, 73: 3, 22: 4, 13: 3, 14: 10, 8: 50}","[8, 13, 14, 20, 22, 73]",85013314102010224733,Ca10Ta3Ti4Al3Si10O50
NaAlSiO5,mp-1210055,0.0,0.49840666,0.37663151734373645,"{11: 1, 13: 1, 14: 1, 8: 5}","[8, 11, 13, 14]",85111131141,Na1Al1Si1O5
K6Al32O51,mp-863387,2.789300000000001,5.39737873,0.058233527217669945,"{19: 6, 13: 32, 8: 51}","[8, 13, 19]",8511332196,K6Al32O51
LaAl33O51,mp-1178196,2.736999999999999,7.05582734,0.02403960676470529,"{57: 1, 13: 33, 8: 51}","[8, 13, 57]",8511333571,La1Al33O51
MgAl2SiO5,mp-1213240,0.0042999999999997485,4.97703966,0.4751661893333319,"{12: 1, 13: 2, 14: 1, 8: 5}","[8, 12, 13, 14]",85121132141,Mg1Al2Si1O5
Mg2Al2O5,mp-1185757,1.2961999999999998,7.15281794,0.39630543277777086,"{12: 2, 13: 2, 8: 5}","[8, 12, 13]",85122132,Mg2Al2O5
CaAlSiO5,mp-1213985,0.3200000000000003,2.84570239,0.09112786057765376,"{20: 1, 13: 1, 14: 1, 8: 5}","[8, 13, 14, 20]",85131141201,Ca1Al1Si1O5
MnAlSiO5,mp-1210817,1.7544000000000004,2.79650546,0.006617762922452641,"{25: 1, 13: 1, 14: 1, 8: 5}","[8, 13, 14, 25]",85131141251,Mn1Al1Si1O5
AlPO5,mp-1193321,0.06569999999999998,0.31092427,0.307570065833338,"{13: 1, 15: 1, 8: 5}","[8, 13, 15]",85131151,Al1P1O5
KAlPO5,mp-1200491,0.0,1.20407441,0.13475920975851885,"{19: 1, 13: 1, 15: 1, 8: 5}","[8, 13, 15, 19]",85131151191,K1Al1P1O5
Ca2TiAlO5,mp-1253743,0.0,6.64075163,0.03231440970238442,"{20: 2, 22: 1, 13: 1, 8: 5}","[8, 13, 20, 22]",85131202221,Ca2Ti1Al1O5
Ca2AlCrO5,mp-1261316,2.4178000000000006,3.60425647,0.02073933664681782,"{20: 2, 13: 1, 24: 1, 8: 5}","[8, 13, 20, 24]",85131202241,Ca2Al1Cr1O5
Ca2MnAlO5,mp-18907,0.0,3.60421882,0.010572223313478624,"{20: 2, 25: 1, 13: 1, 8: 5}","[8, 13, 20, 25]",85131202251,Ca2Mn1Al1O5
Ca2AlCoO5,mp-1372050,0.0,3.0984978,0.020934685813484677,"{20: 2, 13: 1, 27: 1, 8: 5}","[8, 13, 20, 27]",85131202271,Ca2Al1Co1O5
Ca2AlMoO5,mp-1046989,1.6287000000000003,4.64521942,0.04114124046626788,"{20: 2, 13: 1, 42: 1, 8: 5}","[8, 13, 20, 42]",85131202421,Ca2Al1Mo1O5
Ca2AlAgO5,mp-1258227,0.0,2.50067463,0.10144279011904356,"{20: 2, 13: 1, 47: 1, 8: 5}","[8, 13, 20, 47]",85131202471,Ca2Al1Ag1O5
Ca2AlSnO5,mp-1251151,1.6406,5.40884995,0.14717293113097885,"{20: 2, 13: 1, 50: 1, 8: 5}","[8, 13, 20, 50]",85131202501,Ca2Al1Sn1O5
Ca2AlSbO5,mp-1253097,2.545,6.98451489,0.14388884461904627,"{20: 2, 13: 1, 51: 1, 8: 5}","[8, 13, 20, 51]",85131202511,Ca2Al1Sb1O5
Ca2AlWO5,mp-1261272,0.7542,5.52042234,0.25131111805556383,"{20: 2, 13: 1, 74: 1, 8: 5}","[8, 13, 20, 74]",85131202741,Ca2Al1W1O5
Ca2AlBiO5,mp-1251079,2.4052999999999995,3.86190836,0.13916760470237222,"{20: 2, 13: 1, 83: 1, 8: 5}","[8, 13, 20, 83]",85131202831,Ca2Al1Bi1O5
MnAlBiO5,mp-1210873,0.26949999999999985,5.31297094,0.03205398602273224,"{25: 1, 13: 1, 83: 1, 8: 5}","[8, 13, 25, 83]",85131251831,Mn1Al1Bi1O5
MnAl2SiO5,mp-1213128,0.3445999999999998,4.48010447,0.4574406346743327,"{25: 1, 13: 2, 14: 1, 8: 5}","[8, 13, 14, 25]",85132141251,Mn1Al2Si1O5
Ca2Al2O5,mp-10444,3.5662000000000003,4.15817026,0.022759404127040916,"{20: 2, 13: 2, 8: 5}","[8, 13, 20]",85132202,Ca2Al2O5
TiAl2O5,mp-4930,2.9434,3.7115943,0.015628173437441717,"{22: 1, 13: 2, 8: 5}","[8, 13, 22]",85132221,Ti1Al2O5
Al2CrO5,mp-773505,0.4480999999999993,4.74217107,0.0856834653977181,"{13: 2, 24: 1, 8: 5}","[8, 13, 24]",85132241,Al2Cr1O5
Al2Tc2O5,mp-1183257,0.0,7.59607132,0.7317768669444407,"{13: 2, 43: 2, 8: 5}","[8, 13, 43]",85132432,Al2Tc2O5
Eu2Al2O5,mp-861959,0.0,6.60395394,0.08089640027777811,"{63: 2, 13: 2, 8: 5}","[8, 13, 63]",85132632,Eu2Al2O5
HfAl2O5,mp-2647075,4.9993,3.08314357,0.06500662718744366,"{72: 1, 13: 2, 8: 5}","[8, 13, 72]",85132721,Hf1Al2O5
Sr2La18AlSi11O52,mp-677529,0.22409999999999997,8.91252386,0.007924069955352664,"{38: 2, 57: 18, 13: 1, 14: 11, 8: 52}","[8, 13, 14, 38, 57]",85213114113825718,Sr2La18Al1Si11O52
La20Al3Si9O52,mp-1224621,0.0,9.43220752,0.013716041145835689,"{57: 20, 13: 3, 14: 9, 8: 52}","[8, 13, 14, 57]",8521331495720,La20Al3Si9O52
Ca16MgAl14Si9O56,mp-686347,1.0407000000000002,4.77752251,0.34457374887153325,"{20: 16, 12: 1, 13: 14, 14: 9, 8: 56}","[8, 12, 13, 14, 20]",85612113141492016,Ca16Mg1Al14Si9O56
Mg5Al34O56,mp-530754,0.0,8.07488632,0.12993821878947642,"{12: 5, 13: 34, 8: 56}","[8, 12, 13]",8561251334,Mg5Al34O56
Ca10Mg7Al6Si17O60,mp-677026,4.3438,3.89904727,0.017090591650056552,"{20: 10, 12: 7, 13: 6, 14: 17, 8: 60}","[8, 12, 13, 14, 20]",86012713614172010,Ca10Mg7Al6Si17O60
NaAl(SiO3)2,mp-1020661,4.5443999999999996,-0.36562079,0.013845655437500604,"{11: 1, 13: 1, 14: 2, 8: 6}","[8, 11, 13, 14]",86111131142,Na1Al1Si2O6
Na2Al2S3(Cl4O3)2,mp-648140,2.627,-1.39959412,0.02013547794217807,"{11: 2, 13: 2, 16: 3, 17: 8, 8: 6}","[8, 11, 13, 16, 17]",86112132163178,Na2Al2S3Cl8O6
MgMn2Al2O6,mp-2217878,2.6770000000000005,4.67879443,0.1179869204545474,"{12: 1, 25: 2, 13: 2, 8: 6}","[8, 12, 13, 25]",86121132252,Mg1Mn2Al2O6
MgAl2(CoO3)2,mp-2218061,2.4577,4.95976891,0.1556864156818163,"{12: 1, 13: 2, 27: 2, 8: 6}","[8, 12, 13, 27]",86121132272,Mg1Al2Co2O6
Mg2AlO6,mp-1222192,0.16110000000000024,-3.90404263,0.5033463156060618,"{12: 2, 13: 1, 8: 6}","[8, 12, 13]",86122131,Mg2Al1O6
Al(SiO3)2,mp-726892,2.9224,2.00487736,0.11815550736532465,"{13: 1, 14: 2, 8: 6}","[8, 13, 14]",86131142,Al1Si2O6
KAl(SiO3)2,mp-554433,4.7653,0.49429561,0.003655871875006156,"{19: 1, 13: 1, 14: 2, 8: 6}","[8, 13, 14, 19]",86131142191,K1Al1Si2O6