formula,material_id,band_gap,efermi,energy_above_hull,comp_atoms,sorted_keys_comp_atoms,comp_number,new_formula
Eu2Mn5Al12,mp-1181563,0.0,6.5086278,0.04785879526315728,"{63: 2, 25: 5, 13: 12}","[13, 25, 63]",1312255632,Eu2Mn5Al12
U3(Al3Co)4,mp-1208106,0.0,9.16242894,0.052757406798246365,"{92: 3, 13: 12, 27: 4}","[13, 27, 92]",1312274923,U3Al12Co4
Al(V4Ge)3,mp-1229060,0.0,6.82425268,0.0017849706249979391,"{13: 1, 23: 12, 32: 3}","[13, 23, 32]",1312312323,Al1V12Ge3
AlVCr2,mp-1096125,0.04870000000000019,-2.76220761,3.3007794400000012,"{13: 1, 23: 1, 24: 2}","[13, 23, 24]",131231242,Al1V1Cr2
Al(V4Sn)3,mp-1229114,0.0,7.39639699,0.0035472793750024323,"{13: 1, 23: 12, 50: 3}","[13, 23, 50]",1312312503,Al1V12Sn3
AlVCo,mp-1228974,0.0,7.08816253,0.28330911333333475,"{13: 1, 23: 1, 27: 1}","[13, 23, 27]",131231271,Al1V1Co1
ZrAlV,mp-1215306,0.0,5.63730767,0.048618053888885626,"{40: 1, 13: 1, 23: 1}","[13, 23, 40]",131231401,Zr1Al1V1
AlVRe2,mp-1093903,0.0,-3.20620349,4.1930377737499995,"{13: 1, 23: 1, 75: 2}","[13, 23, 75]",131231752,Al1V1Re2
AlVPt,mp-961668,0.0,5.95798108,0.6046053022222262,"{13: 1, 23: 1, 78: 1}","[13, 23, 78]",131231781,Al1V1Pt1
AlV2,mp-1228006,0.0,7.06396932,0.025035380833333676,"{13: 1, 23: 2}","[13, 23]",131232,Al1V2
MnAlV2,mp-1221624,0.0,6.72078052,0.10004822999999874,"{25: 1, 13: 1, 23: 2}","[13, 23, 25]",131232251,Mn1Al1V2
NbAlV2,mp-1220375,0.0,6.33877448,0.11294613575000056,"{41: 1, 13: 1, 23: 2}","[13, 23, 41]",131232411,Nb1Al1V2
AlV2W,mp-1262938,0.0,-3.04388164,3.8981512950000017,"{13: 1, 23: 2, 74: 1}","[13, 23, 74]",131232741,Al1V2W1
PaAlV2,mp-1186390,0.0,9.27864064,0.016425026250001196,"{91: 1, 13: 1, 23: 2}","[13, 23, 91]",131232911,Pa1Al1V2
Nb3AlV3Sn,mp-1220647,0.0,6.58514677,0.06176199824999884,"{41: 3, 13: 1, 23: 3, 50: 1}","[13, 23, 41, 50]",131233413501,Nb3Al1V3Sn1
AlV6Sn,mp-1228822,0.0,7.10543416,0.0070780700000003804,"{13: 1, 23: 6, 50: 1}","[13, 23, 50]",131236501,Al1V6Sn1
AlV6Sb,mp-1228831,0.0,7.32433123,0.009849447500000608,"{13: 1, 23: 6, 51: 1}","[13, 23, 51]",131236511,Al1V6Sb1
Zr3NbAl12,mp-1215487,0.0,7.27725925,0.026707245000000768,"{40: 3, 41: 1, 13: 12}","[13, 40, 41]",1312403411,Zr3Nb1Al12
AlCrCo2,mp-10883,0.0,7.02384325,0.05759880625000058,"{13: 1, 24: 1, 27: 2}","[13, 24, 27]",131241272,Al1Cr1Co2
AlCrGe,mp-1228945,0.0,8.13166448,0.04457821444444221,"{13: 1, 24: 1, 32: 1}","[13, 24, 32]",131241321,Al1Cr1Ge1
ZrAlCr,mp-1215346,0.0,5.99005304,0.0834556655555545,"{40: 1, 13: 1, 24: 1}","[13, 24, 40]",131241401,Zr1Al1Cr1
NbAlCr,mp-1220482,0.0,6.52145375,0.04571459980000192,"{41: 1, 13: 1, 24: 1}","[13, 24, 41]",131241411,Nb1Al1Cr1
AlCrTc2,mp-1097386,0.4129999999999998,-3.13143179,3.616644975,"{13: 1, 24: 1, 43: 2}","[13, 24, 43]",131241432,Al1Cr1Tc2
HfAlCr,mp-1224466,0.0,6.31335372,0.027059349166666635,"{72: 1, 13: 1, 24: 1}","[13, 24, 72]",131241721,Hf1Al1Cr1
AlCrOs2,mp-1097410,0.14979999999999993,-3.37586475,3.958943221250003,"{13: 1, 24: 1, 76: 2}","[13, 24, 76]",131241762,Al1Cr1Os2
AlCr2,mp-1699,0.0,7.62680443,0.10482433666666502,"{13: 1, 24: 2}","[13, 24]",131242,Al1Cr2
Al12Mo,mp-550,0.0,7.70537358,0.014142691923076711,"{13: 12, 42: 1}","[13, 42]",1312421,Al12Mo1
AlCr2W,mp-1096575,0.2885,-2.70378418,3.8760145574999996,"{13: 1, 24: 2, 74: 1}","[13, 24, 74]",131242741,Al1Cr2W1
ZrAlCr3,mp-1215405,0.0,5.92138497,0.3321479498333346,"{40: 1, 13: 1, 24: 3}","[13, 24, 40]",131243401,Zr1Al1Cr3
Al12Ru,mp-1198296,0.0,7.81623502,0.1324956040384624,"{13: 12, 44: 1}","[13, 44]",1312441,Al12Ru1
NbAlCr4,mp-1220456,0.0,6.6055021,0.11730753406667027,"{41: 1, 13: 1, 24: 4}","[13, 24, 41]",131244411,Nb1Al1Cr4
U3(Al3Ru)4,mp-568842,0.0,9.14929296,0.06201819342104997,"{92: 3, 13: 12, 44: 4}","[13, 44, 92]",1312444923,U3Al12Ru4
Nb3AlCr8,mp-1220664,0.0,6.37400656,0.013907153000008776,"{41: 3, 13: 1, 24: 8}","[13, 24, 41]",131248413,Nb3Al1Cr8
Ta3AlCr8,mp-1218061,0.0,6.5274576,0.017146381250000786,"{73: 3, 13: 1, 24: 8}","[13, 24, 73]",131248733,Ta3Al1Cr8
ZrMnAl,mp-1215277,0.0,5.91818141,0.0073376816666508304,"{40: 1, 25: 1, 13: 1}","[13, 25, 40]",131251401,Zr1Mn1Al1
MnAlTc,mp-631551,0.0,5.37012713,0.7508003286781619,"{25: 1, 13: 1, 43: 1}","[13, 25, 43]",131251431,Mn1Al1Tc1
MnAlPd2,mp-10891,0.0,6.08587675,0.030336939267240126,"{25: 1, 13: 1, 46: 2}","[13, 25, 46]",131251462,Mn1Al1Pd2
CeMnAl,mp-1226628,0.0,7.51185411,0.026391803189656393,"{58: 1, 25: 1, 13: 1}","[13, 25, 58]",131251581,Ce1Mn1Al1
TbMnAl,mp-1217485,0.0,4.9017098,0.05311928818965406,"{65: 1, 25: 1, 13: 1}","[13, 25, 65]",131251651,Tb1Mn1Al1
DyMnAl,mp-1225534,0.0,5.04368523,0.04208326443965493,"{66: 1, 25: 1, 13: 1}","[13, 25, 66]",131251661,Dy1Mn1Al1
HoMnAl,mp-1223751,0.0,4.89926375,0.03135007895833297,"{67: 1, 25: 1, 13: 1}","[13, 25, 67]",131251671,Ho1Mn1Al1
ErMnAl,mp-1225461,0.0,4.89820492,0.02113637847222094,"{68: 1, 25: 1, 13: 1}","[13, 25, 68]",131251681,Er1Mn1Al1
MnAlIr,mp-1221621,0.0,5.74175152,0.4302907706896564,"{25: 1, 13: 1, 77: 1}","[13, 25, 77]",131251771,Mn1Al1Ir1
MnAlPt,mp-10892,0.0,6.77659398,0.05841015318965592,"{25: 1, 13: 1, 78: 1}","[13, 25, 78]",131251781,Mn1Al1Pt1
MnAlPt2,mp-10893,0.0,7.29735609,0.006286891875000755,"{25: 1, 13: 1, 78: 2}","[13, 25, 78]",131251782,Mn1Al1Pt2
ThMnAl,mp-1217310,0.0,7.34008142,0.012906703467431946,"{90: 1, 25: 1, 13: 1}","[13, 25, 90]",131251901,Th1Mn1Al1
UMnAl,mp-1216712,0.0,9.88213004,0.034628013333334096,"{92: 1, 25: 1, 13: 1}","[13, 25, 92]",131251921,U1Mn1Al1
PuMnAl,mp-1219806,0.0,9.03385285,0.2408511845833381,"{94: 1, 25: 1, 13: 1}","[13, 25, 94]",131251941,Pu1Mn1Al1
Mn2AlCo,mp-13079,0.0,6.75159189,0.02683310853448262,"{25: 2, 13: 1, 27: 1}","[13, 25, 27]",131252271,Mn2Al1Co1
Mn2AlMo,mp-1097152,0.4478,-2.5915888,3.413845200272987,"{25: 2, 13: 1, 42: 1}","[13, 25, 42]",131252421,Mn2Al1Mo1
Mn2AlTc,mp-1093791,0.0,-2.86618979,3.1962460420258623,"{25: 2, 13: 1, 43: 1}","[13, 25, 43]",131252431,Mn2Al1Tc1
Mn3Al,mp-973149,0.0,7.31693918,0.06899594353448268,"{25: 3, 13: 1}","[13, 25]",131253,Mn3Al1
Ce2Mn3Al,mp-1226844,0.0,7.46982799,0.05654725978448205,"{58: 2, 25: 3, 13: 1}","[13, 25, 58]",131253582,Ce2Mn3Al1
Tb2Mn3Al,mp-1217692,0.0,4.66418723,0.14219656561781768,"{65: 2, 25: 3, 13: 1}","[13, 25, 65]",131253652,Tb2Mn3Al1
ZrAlCo,mp-1215357,0.0,5.85663171,0.029018709882354443,"{40: 1, 13: 1, 27: 1}","[13, 27, 40]",131271401,Zr1Al1Co1
NbAlCo,mp-1220492,0.0,6.48878937,0.048148003166664566,"{41: 1, 13: 1, 27: 1}","[13, 27, 41]",131271411,Nb1Al1Co1
DyAlCo,mp-1225470,0.0,5.46924616,0.07706745116666447,"{66: 1, 13: 1, 27: 1}","[13, 27, 66]",131271661,Dy1Al1Co1
HoAlCo,mp-1224090,0.0,5.30369696,0.04623763322916741,"{67: 1, 13: 1, 27: 1}","[13, 27, 67]",131271671,Ho1Al1Co1
ErAlCo,mp-1225728,0.0,5.36244471,0.03867806562500142,"{68: 1, 13: 1, 27: 1}","[13, 27, 68]",131271681,Er1Al1Co1
TmAlCo,mp-1216791,0.0,5.18877755,0.012447528809524044,"{69: 1, 13: 1, 27: 1}","[13, 27, 69]",131271691,Tm1Al1Co1
LuAlCo,mp-1222417,0.0,5.26523965,0.022539520000001367,"{71: 1, 13: 1, 27: 1}","[13, 27, 71]",131271711,Lu1Al1Co1
HfAlCo,mp-1224502,0.0,6.2967739,0.05346094910447441,"{72: 1, 13: 1, 27: 1}","[13, 27, 72]",131271721,Hf1Al1Co1
AlCoW,mp-1229047,0.0,7.58164117,0.1912259483333365,"{13: 1, 27: 1, 74: 1}","[13, 27, 74]",131271741,Al1Co1W1
UAlCo,mp-1079367,0.0,9.69207494,0.09675927555555575,"{92: 1, 13: 1, 27: 1}","[13, 27, 92]",131271921,U1Al1Co1
PuAlCo,mp-1079793,0.0,10.49618089,0.1295070700000025,"{94: 1, 13: 1, 27: 1}","[13, 27, 94]",131271941,Pu1Al1Co1
AlZnCo2,mp-1096171,0.0495000000000001,-2.54350155,2.5306118960227266,"{13: 1, 30: 1, 27: 2}","[13, 27, 30]",131272301,Al1Zn1Co2
Ce4AlCo25,mp-1227640,0.0,5.9456644,0.09471211633333088,"{58: 4, 13: 1, 27: 25}","[13, 27, 58]",1312725584,Ce4Al1Co25
Pr4AlCo25,mp-1220652,0.0,4.59473883,0.21534434032098915,"{59: 4, 13: 1, 27: 25}","[13, 27, 59]",1312725594,Pr4Al1Co25
Pr2AlCo2,mp-11928,0.0,4.82618388,0.03702218548148295,"{59: 2, 13: 1, 27: 2}","[13, 27, 59]",131272592,Pr2Al1Co2
Nd2AlCo2,mp-13430,0.0,4.7156852,0.028311869181816718,"{60: 2, 13: 1, 27: 2}","[13, 27, 60]",131272602,Nd2Al1Co2
U2AlCo2,mp-21269,0.0,10.0826512,0.09749112449999586,"{92: 2, 13: 1, 27: 2}","[13, 27, 92]",131272922,U2Al1Co2
AlCo3,mp-1080667,0.0,6.38813064,0.09986871625000049,"{13: 1, 27: 3}","[13, 27]",131273,Al1Co3
Ta17Al12,mp-1194073,0.0,6.66202576,0.11919205754482576,"{73: 17, 13: 12}","[13, 73]",13127317,Ta17Al12
Dy2AlCo3,mp-1225315,0.0,5.11098646,0.04606824944444199,"{66: 2, 13: 1, 27: 3}","[13, 27, 66]",131273662,Dy2Al1Co3
Er2AlCo3,mp-1225069,0.0,5.06850658,0.013394356764702131,"{68: 2, 13: 1, 27: 3}","[13, 27, 68]",131273682,Er2Al1Co3
U2AlCo3,mp-30176,0.0,10.42038125,0.05489802166666635,"{92: 2, 13: 1, 27: 3}","[13, 27, 92]",131273922,U2Al1Co3
AlCo4,mp-1228933,0.0,6.31526745,0.2151203069999994,"{13: 1, 27: 4}","[13, 27]",131274,Al1Co4
Al12W,mp-11227,0.0,7.59578703,0.01520368538461625,"{13: 12, 74: 1}","[13, 74]",1312741,Al12W1
ZrAlCo4,mp-1215333,0.0,6.19486078,0.04381374058823173,"{40: 1, 13: 1, 27: 4}","[13, 27, 40]",131274401,Zr1Al1Co4
NbAlCo4,mp-1220480,0.0,6.329074,0.11033995750000258,"{41: 1, 13: 1, 27: 4}","[13, 27, 41]",131274411,Nb1Al1Co4
LaAlCo4,mp-1222930,0.0,6.77984744,0.0770598822826063,"{57: 1, 13: 1, 27: 4}","[13, 27, 57]",131274571,La1Al1Co4
CeAlCo4,mp-1226649,0.0,6.90336001,0.06518933166666496,"{58: 1, 13: 1, 27: 4}","[13, 27, 58]",131274581,Ce1Al1Co4
PrAlCo4,mp-1219821,0.0,5.18067417,0.06024983854938171,"{59: 1, 13: 1, 27: 4}","[13, 27, 59]",131274591,Pr1Al1Co4
NdAlCo4,mp-1220149,0.0,5.15267162,0.054501076339287025,"{60: 1, 13: 1, 27: 4}","[13, 27, 60]",131274601,Nd1Al1Co4
TbAlCo4,mp-1217565,0.0,5.28965285,0.06711305833332837,"{65: 1, 13: 1, 27: 4}","[13, 27, 65]",131274651,Tb1Al1Co4
DyAlCo4,mp-1225308,0.0,5.17947182,0.06812474833332782,"{66: 1, 13: 1, 27: 4}","[13, 27, 66]",131274661,Dy1Al1Co4
TmAlCo4,mp-1216604,0.0,5.00016351,0.07614351025641142,"{69: 1, 13: 1, 27: 4}","[13, 27, 69]",131274691,Tm1Al1Co4
Zr3AlCo8,mp-1215811,0.0,5.65342926,0.02218376287878865,"{40: 3, 13: 1, 27: 8}","[13, 27, 40]",131278403,Zr3Al1Co8
Nb3AlCo8,mp-1220669,0.0,6.05925668,0.061310391666665964,"{41: 3, 13: 1, 27: 8}","[13, 27, 41]",131278413,Nb3Al1Co8
Ta3AlCo8,mp-1218035,0.0,6.24011683,0.10033742527777534,"{73: 3, 13: 1, 27: 8}","[13, 27, 73]",131278733,Ta3Al1Co8
AlZnPd2,mp-1097561,0.07630000000000026,-3.57862018,1.9406279350000002,"{13: 1, 30: 1, 46: 2}","[13, 30, 46]",131301462,Al1Zn1Pd2
La2AlZn,mp-1223230,0.0,6.85623674,0.02369561187499869,"{57: 2, 13: 1, 30: 1}","[13, 30, 57]",131301572,La2Al1Zn1
Pr2AlZn,mp-1219931,0.0,3.97287898,0.018405943750000375,"{59: 2, 13: 1, 30: 1}","[13, 30, 59]",131301592,Pr2Al1Zn1
Sm2AlZn,mp-972504,0.0,3.52357588,0.0146709390624995,"{62: 2, 13: 1, 30: 1}","[13, 30, 62]",131301622,Sm2Al1Zn1
GdAlZn,mp-1018704,0.0,3.94738065,0.012392700000003032,"{64: 1, 13: 1, 30: 1}","[13, 30, 64]",131301641,Gd1Al1Zn1
Gd2AlZn,mp-1184427,0.0,3.62172548,0.015557190500000928,"{64: 2, 13: 1, 30: 1}","[13, 30, 64]",131301642,Gd2Al1Zn1
Dy2AlZn,mp-865159,0.0,3.72171472,0.001143195312499401,"{66: 2, 13: 1, 30: 1}","[13, 30, 66]",131301662,Dy2Al1Zn1
Ho2AlZn,mp-864674,0.0,3.66038539,0.0009447765624983617,"{67: 2, 13: 1, 30: 1}","[13, 30, 67]",131301672,Ho2Al1Zn1
Er2AlZn,mp-1184084,0.0,3.68457563,0.001545495625002502,"{68: 2, 13: 1, 30: 1}","[13, 30, 68]",131301682,Er2Al1Zn1
TmAlZn,mp-1077423,0.0,4.20496866,0.0002827808333329962,"{69: 1, 13: 1, 30: 1}","[13, 30, 69]",131301691,Tm1Al1Zn1
Tm2AlZn,mp-979012,0.0,3.67303178,0.0038099368749975326,"{69: 2, 13: 1, 30: 1}","[13, 30, 69]",131301692,Tm2Al1Zn1
Lu2AlZn,mp-973538,0.0,3.75513535,0.008248772187499753,"{71: 2, 13: 1, 30: 1}","[13, 30, 71]",131301712,Lu2Al1Zn1
AlZnAu2,mp-1095717,0.0,-3.10320462,1.0884163324999996,"{13: 1, 30: 1, 79: 2}","[13, 30, 79]",131301792,Al1Zn1Au2
AlGaBr4,mp-1214875,2.0756,0.08000908,0.3150870869791653,"{13: 1, 31: 1, 35: 4}","[13, 31, 35]",131311354,Al1Ga1Br4
Nb6AlGa,mp-1220348,0.0,5.24334941,0.049075181687499025,"{41: 6, 13: 1, 31: 1}","[13, 31, 41]",131311416,Nb6Al1Ga1
AlGaRu2,mp-1183218,0.0,7.55028498,0.0047900643750011795,"{13: 1, 31: 1, 44: 2}","[13, 31, 44]",131311442,Al1Ga1Ru2
AlGaPd2,mp-1095917,0.6435999999999997,-3.00278247,1.9476744256249994,"{13: 1, 31: 1, 46: 2}","[13, 31, 46]",131311462,Al1Ga1Pd2
AlInGaSb3,mp-1228917,0.029799999999999827,4.2861616,0.018929923333335097,"{13: 1, 49: 1, 31: 1, 51: 3}","[13, 31, 49, 51]",131311491513,Al1In1Ga1Sb3
AlGaSb2,mp-1228895,0.17270000000000074,4.19745434,0.003723565000001372,"{13: 1, 31: 1, 51: 2}","[13, 31, 51]",131311512,Al1Ga1Sb2
CeAlGa,mp-1226618,0.0,5.98100745,0.03524894749999774,"{58: 1, 13: 1, 31: 1}","[13, 31, 58]",131311581,Ce1Al1Ga1
NdAlGa,mp-1220166,0.0,4.01862977,0.0015605016666668803,"{60: 1, 13: 1, 31: 1}","[13, 31, 60]",131311601,Nd1Al1Ga1
SmAlGa,mp-1219103,0.0,4.6587852,0.004317291666666279,"{62: 1, 13: 1, 31: 1}","[13, 31, 62]",131311621,Sm1Al1Ga1
EuAlGa,mp-1225194,0.0,4.21302504,0.004079555000000568,"{63: 1, 13: 1, 31: 1}","[13, 31, 63]",131311631,Eu1Al1Ga1
GdAlGa,mp-1224663,0.0,4.78951395,0.02412885583333413,"{64: 1, 13: 1, 31: 1}","[13, 31, 64]",131311641,Gd1Al1Ga1
TbAlGa,mp-1217557,0.0,5.1771286,0.02155264833333348,"{65: 1, 13: 1, 31: 1}","[13, 31, 65]",131311651,Tb1Al1Ga1
DyAlGa,mp-1225267,0.0,5.20278368,0.019433035000002263,"{66: 1, 13: 1, 31: 1}","[13, 31, 66]",131311661,Dy1Al1Ga1
HoAlGa,mp-1223788,0.0,5.17736744,0.01006472166666672,"{67: 1, 13: 1, 31: 1}","[13, 31, 67]",131311671,Ho1Al1Ga1
ErAlGa,mp-1225490,0.0,5.19291778,0.013979794999997353,"{68: 1, 13: 1, 31: 1}","[13, 31, 68]",131311681,Er1Al1Ga1
AlGaIr2,mp-1183158,0.0,9.23899861,0.012601042500001824,"{13: 1, 31: 1, 77: 2}","[13, 31, 77]",131311772,Al1Ga1Ir2
KAlH3,mp-1097006,0.0,4.28515989,0.18446226216666695,"{19: 1, 13: 1, 1: 3}","[1, 13, 19]",13131191,K1Al1H3
AlGa3,mp-1183208,0.0,4.58788844,0.12463076500000092,"{13: 1, 31: 3}","[13, 31]",131313,Al1Ga3
Sr2AlGa3,mp-1218855,0.0,2.91927502,0.001553554999999207,"{38: 2, 13: 1, 31: 3}","[13, 31, 38]",131313382,Sr2Al1Ga3
SrAlH3,mp-1068011,0.07439999999999997,0.44588825,0.6990129102857168,"{38: 1, 13: 1, 1: 3}","[1, 13, 38]",13131381,Sr1Al1H3
Al13(CrSi)4,mp-505572,0.0,7.95280743,0.006798542448979816,"{13: 13, 24: 4, 14: 4}","[13, 14, 24]",1313144244,Al13Cr4Si4
Al13(TlS7)3,mp-28790,3.1191,2.9149228,0.0009951981081099959,"{13: 13, 81: 3, 16: 21}","[13, 16, 81]",13131621813,Al13Tl3S21
Nb6AlGe,mp-1220344,0.0,5.73310838,0.04567054470833298,"{41: 6, 13: 1, 32: 1}","[13, 32, 41]",131321416,Nb6Al1Ge1
AlTc2Ge,mp-1096126,0.3147000000000002,-2.97568394,3.20614433375,"{13: 1, 43: 2, 32: 1}","[13, 32, 43]",131321432,Al1Tc2Ge1
Th4AlGe,mp-1217290,0.0,7.20522007,0.008846714999997118,"{90: 4, 13: 1, 32: 1}","[13, 32, 90]",131321904,Th4Al1Ge1
Gd2AlGe2,mp-20816,0.0,4.4197549,0.022623005999998114,"{64: 2, 13: 1, 32: 2}","[13, 32, 64]",131322642,Gd2Al1Ge2
Dy2AlGe2,mp-21382,0.0,5.7859996,0.016589262999996635,"{66: 2, 13: 1, 32: 2}","[13, 32, 66]",131322662,Dy2Al1Ge2
AlGe3,mp-1183203,0.0,6.71525094,0.25098583874999925,"{13: 1, 32: 3}","[13, 32]",131323,Al1Ge3
AlGe3Mo2,mp-1228992,0.0,10.17767808,0.01578841749999782,"{13: 1, 32: 3, 42: 2}","[13, 32, 42]",131323422,Al1Ge3Mo2
La2AlGe3,mp-1223261,0.0,7.5286925,0.026512090909090347,"{57: 2, 13: 1, 32: 3}","[13, 32, 57]",131323572,La2Al1Ge3
Sm2AlGe3,mp-568449,0.0,5.36453495,0.007647503916667908,"{62: 2, 13: 1, 32: 3}","[13, 32, 62]",131323622,Sm2Al1Ge3
Tb2AlGe3,mp-571381,0.0,4.64430134,0.004662292999999096,"{65: 2, 13: 1, 32: 3}","[13, 32, 65]",131323652,Tb2Al1Ge3
Dy2AlGe3,mp-1213267,0.0,4.65687476,0.004466456583333667,"{66: 2, 13: 1, 32: 3}","[13, 32, 66]",131323662,Dy2Al1Ge3
Ho2AlGe3,mp-1212392,0.0,4.6409864,0.004837700694444891,"{67: 2, 13: 1, 32: 3}","[13, 32, 67]",131323672,Ho2Al1Ge3
Er2AlGe3,mp-1212956,0.0,4.64135631,0.0046450984722223865,"{68: 2, 13: 1, 32: 3}","[13, 32, 68]",131323682,Er2Al1Ge3
Tm2AlGe3,mp-1208050,0.0,4.69347077,0.01591105541666593,"{69: 2, 13: 1, 32: 3}","[13, 32, 69]",131323692,Tm2Al1Ge3
Er2AlGe4,mp-1225079,0.0,4.82263185,0.10570589119047646,"{68: 2, 13: 1, 32: 4}","[13, 32, 68]",131324682,Er2Al1Ge4
Hf3AlGe5,mp-1224464,0.0,5.52263185,0.05559370944445163,"{72: 3, 13: 1, 32: 5}","[13, 32, 72]",131325723,Hf3Al1Ge5
Pr2AlGe6,mp-1190006,0.0,5.9401783,0.017513728888893354,"{59: 2, 13: 1, 32: 6}","[13, 32, 59]",131326592,Pr2Al1Ge6
Nd2AlGe6,mp-1188429,0.0,6.01381753,0.005419480416666289,"{60: 2, 13: 1, 32: 6}","[13, 32, 60]",131326602,Nd2Al1Ge6
Sm2AlGe6,mp-1005753,0.0,6.05288514,0.013373011111110777,"{62: 2, 13: 1, 32: 6}","[13, 32, 62]",131326622,Sm2Al1Ge6
Tb2AlGe6,mp-1208536,0.0,4.59636017,0.028257905277779827,"{65: 2, 13: 1, 32: 6}","[13, 32, 65]",131326652,Tb2Al1Ge6
Al13Co4,mp-30751,0.0,8.09324999,0.010762535183824085,"{13: 13, 27: 4}","[13, 27]",1313274,Al13Co4
AlAs2,mp-1182888,0.0,4.57626613,0.35958685291666725,"{13: 1, 33: 2}","[13, 33]",131332,Al1As2
AlSeBr7,mp-29408,2.1939,-1.67074001,0.017253937638889383,"{13: 1, 34: 1, 35: 7}","[13, 34, 35]",131341357,Al1Se1Br7
AlIn(AgSe2)2,mp-1228926,0.5087999999999999,2.23741165,0.002148663749996338,"{13: 1, 49: 1, 47: 2, 34: 4}","[13, 34, 47, 49]",131344472491,Al1In1Ag2Se4
AlBiSe4,mp-1268005,0.019400000000000084,3.33443693,0.19456172022135654,"{13: 1, 83: 1, 34: 4}","[13, 34, 83]",131344831,Al1Bi1Se4
Al13Rh4,mp-1203489,0.0,8.12529959,0.0223804461397048,"{13: 13, 45: 4}","[13, 45]",1313454,Al13Rh4
AlAg7Se5,mp-1247813,0.02579999999999938,-4.69553438,2.6785607960576923,"{13: 1, 47: 7, 34: 5}","[13, 34, 47]",131345477,Al1Ag7Se5
AlBr4,mp-39008,0.0,-3.69943696,0.01800427750000111,"{13: 1, 35: 4}","[13, 35]",131354,Al1Br4
Cs2RbAlBr6,mp-1112531,3.2433,-0.58274541,0.06658364199999811,"{55: 2, 37: 1, 13: 1, 35: 6}","[13, 35, 37, 55]",131356371552,Cs2Rb1Al1Br6
Rb2AlAgBr6,mp-1111736,1.4709,-0.12074851,0.08052799262500399,"{37: 2, 13: 1, 47: 1, 35: 6}","[13, 35, 37, 47]",131356372471,Rb2Al1Ag1Br6
Rb2AlInBr6,mp-1114075,2.1004,0.46167571,0.06958640900000157,"{37: 2, 13: 1, 49: 1, 35: 6}","[13, 35, 37, 49]",131356372491,Rb2Al1In1Br6
CsRb2AlBr6,mp-1111785,3.3521,-0.91229471,0.12469273199999975,"{55: 1, 37: 2, 13: 1, 35: 6}","[13, 35, 37, 55]",131356372551,Cs1Rb2Al1Br6
Rb2AlAuBr6,mp-1111722,0.0,0.58977317,0.15343678325000143,"{37: 2, 13: 1, 79: 1, 35: 6}","[13, 35, 37, 79]",131356372791,Rb2Al1Au1Br6
Rb2AlHgBr6,mp-1113563,0.0,0.81471288,0.12476709150000209,"{37: 2, 13: 1, 80: 1, 35: 6}","[13, 35, 37, 80]",131356372801,Rb2Al1Hg1Br6
Rb2AlTlBr6,mp-1114010,2.8889,-0.33582629,0.07678892950000238,"{37: 2, 13: 1, 81: 1, 35: 6}","[13, 35, 37, 81]",131356372811,Rb2Al1Tl1Br6
Rb3AlBr6,mp-1110736,3.3543000000000003,-0.87922107,0.08790375100000114,"{37: 3, 13: 1, 35: 6}","[13, 35, 37]",131356373,Rb3Al1Br6
Cs2AlAgBr6,mp-1113577,1.4697,0.13856739,0.08109695862500121,"{55: 2, 13: 1, 47: 1, 35: 6}","[13, 35, 47, 55]",131356471552,Cs2Al1Ag1Br6
Cs2AlInBr6,mp-1113281,2.2348000000000003,0.57415978,0.05244400399999938,"{55: 2, 13: 1, 49: 1, 35: 6}","[13, 35, 49, 55]",131356491552,Cs2Al1In1Br6
Cs2AlAuBr6,mp-1113424,0.0,0.80693699,0.15805015574999803,"{55: 2, 13: 1, 79: 1, 35: 6}","[13, 35, 55, 79]",131356552791,Cs2Al1Au1Br6
Cs2AlHgBr6,mp-1112629,0.0,0.9978744,0.11379451637499827,"{55: 2, 13: 1, 80: 1, 35: 6}","[13, 35, 55, 80]",131356552801,Cs2Al1Hg1Br6
Cs2AlTlBr6,mp-1112506,2.9425999999999997,-0.15323618,0.057970393499997996,"{55: 2, 13: 1, 81: 1, 35: 6}","[13, 35, 55, 81]",131356552811,Cs2Al1Tl1Br6
Cs3AlBr6,mp-1112379,3.4333,-0.6417565,0.08044335299999972,"{55: 3, 13: 1, 35: 6}","[13, 35, 55]",131356553,Cs3Al1Br6
AlBiBr6,mp-31268,2.5722,-0.94793906,0.01157918843749961,"{13: 1, 83: 1, 35: 6}","[13, 35, 83]",131356831,Al1Bi1Br6
La16Al13,mp-568683,0.0,7.6087574,0.00441335133620413,"{57: 16, 13: 13}","[13, 57]",13135716,La16Al13
RbAl,mp-975530,0.0,1.38641543,0.6585364362500001,"{37: 1, 13: 1}","[13, 37]",131371,Rb1Al1
Cs2RbAlI6,mp-1112133,1.8835000000000002,0.66083333,0.05128026375000028,"{55: 2, 37: 1, 13: 1, 53: 6}","[13, 37, 53, 55]",131371536552,Cs2Rb1Al1I6
Rb2AlInI6,mp-1114138,0.8989000000000003,1.72677083,0.07745340524999955,"{37: 2, 13: 1, 49: 1, 53: 6}","[13, 37, 49, 53]",131372491536,Rb2Al1In1I6