formula,material_id,band_gap,efermi,energy_above_hull,comp_atoms,sorted_keys_comp_atoms,comp_number,new_formula
Mg16Al12P,mp-1185689,0.0,4.47469175,0.07540666422413755,"{12: 16, 13: 12, 15: 1}","[12, 13, 15]",12161312151,Mg16Al12P1
Mg16Al12S,mp-1185704,0.0,4.31725744,0.0955511713793098,"{12: 16, 13: 12, 16: 1}","[12, 13, 16]",12161312161,Mg16Al12S1
Mg16Al12Cl,mp-1185654,0.0,4.7713586,0.08958308500000056,"{12: 16, 13: 12, 17: 1}","[12, 13, 17]",12161312171,Mg16Al12Cl1
Mg16ScAl12,mp-1185726,0.0,5.14686822,0.02499895047413858,"{12: 16, 21: 1, 13: 12}","[12, 13, 21]",12161312211,Mg16Sc1Al12
Mg16TiAl12,mp-1185734,0.0,5.19301776,0.05807618047413987,"{12: 16, 22: 1, 13: 12}","[12, 13, 22]",12161312221,Mg16Ti1Al12
Mg16Al12V,mp-1185716,0.0,5.03642572,0.0782024863362083,"{12: 16, 13: 12, 23: 1}","[12, 13, 23]",12161312231,Mg16Al12V1
Mg16Al12Cr,mp-1185658,0.0,4.29971755,0.06309139176724088,"{12: 16, 13: 12, 24: 1}","[12, 13, 24]",12161312241,Mg16Al12Cr1
Mg16MnAl12,mp-1185724,0.0,5.03669004,0.06137511629310355,"{12: 16, 25: 1, 13: 12}","[12, 13, 25]",12161312251,Mg16Mn1Al12
Mg16Al12Co,mp-1185656,0.0,4.93071508,0.07665990372844877,"{12: 16, 13: 12, 27: 1}","[12, 13, 27]",12161312271,Mg16Al12Co1
Mg16Al12Zn,mp-1185721,0.0,4.32948459,0.00632221491724172,"{12: 16, 13: 12, 30: 1}","[12, 13, 30]",12161312301,Mg16Al12Zn1
Mg16Al12Ga,mp-1185664,0.0,5.08803086,0.007736208189655258,"{12: 16, 13: 12, 31: 1}","[12, 13, 31]",12161312311,Mg16Al12Ga1
Mg16Al12Ge,mp-1185671,0.0,5.12243109,0.03506137517241337,"{12: 16, 13: 12, 32: 1}","[12, 13, 32]",12161312321,Mg16Al12Ge1
Mg16Al12Se,mp-1185707,0.0,4.31317946,0.0839461717241381,"{12: 16, 13: 12, 34: 1}","[12, 13, 34]",12161312341,Mg16Al12Se1
Mg16Al12Br,mp-1185649,0.0,4.94053465,0.09248374344827637,"{12: 16, 13: 12, 35: 1}","[12, 13, 35]",12161312351,Mg16Al12Br1
Rb(Mg4Al3)4,mp-975424,0.0,4.65086623,0.05614418456896697,"{37: 1, 12: 16, 13: 12}","[12, 13, 37]",12161312371,Rb1Mg16Al12
Sr(Mg4Al3)4,mp-1187106,0.0,4.90057349,0.023256682643682414,"{38: 1, 12: 16, 13: 12}","[12, 13, 38]",12161312381,Sr1Mg16Al12
Mg16ZrAl12,mp-1185735,0.0,4.47061551,0.04285486668103511,"{12: 16, 40: 1, 13: 12}","[12, 13, 40]",12161312401,Mg16Zr1Al12
Mg16Al12Mo,mp-1185673,0.0,5.20048669,0.08742660883620657,"{12: 16, 13: 12, 42: 1}","[12, 13, 42]",12161312421,Mg16Al12Mo1
Mg16Al12Tc,mp-1185712,0.0,5.13651141,0.08793945448275897,"{12: 16, 13: 12, 43: 1}","[12, 13, 43]",12161312431,Mg16Al12Tc1
Mg16Al12Ru,mp-1185702,0.0,5.08151792,0.07038954630388083,"{12: 16, 13: 12, 44: 1}","[12, 13, 44]",12161312441,Mg16Al12Ru1
Mg16Al12Rh,mp-1185703,0.0,5.03098147,0.05451382191810383,"{12: 16, 13: 12, 45: 1}","[12, 13, 45]",12161312451,Mg16Al12Rh1
Mg16Al12Pd,mp-1185686,0.0,5.03278276,0.014513391643319107,"{12: 16, 13: 12, 46: 1}","[12, 13, 46]",12161312461,Mg16Al12Pd1
Mg16Al12Ag,mp-1185647,0.0,4.38369083,0.006108371034483362,"{12: 16, 13: 12, 47: 1}","[12, 13, 47]",12161312471,Mg16Al12Ag1
Mg16Al12Cd,mp-1185652,0.0,4.30147191,0.007142262068965621,"{12: 16, 13: 12, 48: 1}","[12, 13, 48]",12161312481,Mg16Al12Cd1
Mg16Al12In,mp-1185679,0.0,5.2688248,0.010845891034483301,"{12: 16, 13: 12, 49: 1}","[12, 13, 49]",12161312491,Mg16Al12In1
Mg16Al12Sn,mp-1185711,0.0,5.30475175,0.019034676551725305,"{12: 16, 13: 12, 50: 1}","[12, 13, 50]",12161312501,Mg16Al12Sn1
Mg16Al12Sb,mp-1185708,0.0,5.29275143,0.041865754676724265,"{12: 16, 13: 12, 51: 1}","[12, 13, 51]",12161312511,Mg16Al12Sb1
Mg16Al12Te,mp-1185713,0.0,5.22347424,0.07144951637930985,"{12: 16, 13: 12, 52: 1}","[12, 13, 52]",12161312521,Mg16Al12Te1
Mg16Al12I,mp-1185676,0.0,5.11285827,0.09633963224137965,"{12: 16, 13: 12, 53: 1}","[12, 13, 53]",12161312531,Mg16Al12I1
Cs(Mg4Al3)4,mp-1183843,0.0,4.87849682,0.07940862139120242,"{55: 1, 12: 16, 13: 12}","[12, 13, 55]",12161312551,Cs1Mg16Al12
La(Mg4Al3)4,mp-972924,0.0,5.20940261,0.01908896341475197,"{57: 1, 12: 16, 13: 12}","[12, 13, 57]",12161312571,La1Mg16Al12
Ce(Mg4Al3)4,mp-1183866,0.0,5.21915773,0.022730219956900388,"{58: 1, 12: 16, 13: 12}","[12, 13, 58]",12161312581,Ce1Mg16Al12
Pr(Mg4Al3)4,mp-1186688,0.0,5.05934633,0.016094129094829324,"{59: 1, 12: 16, 13: 12}","[12, 13, 59]",12161312591,Pr1Mg16Al12
Nd(Mg4Al3)4,mp-975395,0.0,4.97634256,0.015407634956898342,"{60: 1, 12: 16, 13: 12}","[12, 13, 60]",12161312601,Nd1Mg16Al12
Pm(Mg4Al3)4,mp-1186464,0.0,4.40743168,0.014765933922417762,"{61: 1, 12: 16, 13: 12}","[12, 13, 61]",12161312611,Pm1Mg16Al12
Sm(Mg4Al3)4,mp-972591,0.0,4.96199334,0.014335278405174456,"{62: 1, 12: 16, 13: 12}","[12, 13, 62]",12161312621,Sm1Mg16Al12
Eu(Mg4Al3)4,mp-1183991,0.0,4.93312813,0.011406997471268276,"{63: 1, 12: 16, 13: 12}","[12, 13, 63]",12161312631,Eu1Mg16Al12
Gd(Mg4Al3)4,mp-1185278,0.0,4.16914026,0.018799077715522028,"{64: 1, 12: 16, 13: 12}","[12, 13, 64]",12161312641,Gd1Mg16Al12
Tb(Mg4Al3)4,mp-1187293,0.0,5.0982577,0.012721208750003932,"{65: 1, 12: 16, 13: 12}","[12, 13, 65]",12161312651,Tb1Mg16Al12
Dy(Mg4Al3)4,mp-1184194,0.0,5.04556742,0.019895511853452064,"{66: 1, 12: 16, 13: 12}","[12, 13, 66]",12161312661,Dy1Mg16Al12
Er(Mg4Al3)4,mp-1184190,0.0,5.09851514,0.013385684094829653,"{68: 1, 12: 16, 13: 12}","[12, 13, 68]",12161312681,Er1Mg16Al12
Tm(Mg4Al3)4,mp-972093,0.0,4.95551719,0.012784985301728113,"{69: 1, 12: 16, 13: 12}","[12, 13, 69]",12161312691,Tm1Mg16Al12
Lu(Mg4Al3)4,mp-983411,0.0,5.11403298,0.012292879439657067,"{71: 1, 12: 16, 13: 12}","[12, 13, 71]",12161312711,Lu1Mg16Al12
Hf(Mg4Al3)4,mp-1184744,0.0,5.23477878,0.04267087633620914,"{72: 1, 12: 16, 13: 12}","[12, 13, 72]",12161312721,Hf1Mg16Al12
Mg16TaAl12,mp-1185732,0.0,4.59780786,0.0743886011637942,"{12: 16, 73: 1, 13: 12}","[12, 13, 73]",12161312731,Mg16Ta1Al12
Mg16Al12W,mp-1185717,0.0,5.14402561,0.09003342590517205,"{12: 16, 13: 12, 74: 1}","[12, 13, 74]",12161312741,Mg16Al12W1
Mg16Al12Re,mp-1185701,0.0,5.09803942,0.0943219082758624,"{12: 16, 13: 12, 75: 1}","[12, 13, 75]",12161312751,Mg16Al12Re1
Mg16Al12Os,mp-1185688,0.0,5.07856013,0.07590591601652408,"{12: 16, 13: 12, 76: 1}","[12, 13, 76]",12161312761,Mg16Al12Os1
Mg16Al12Ir,mp-1185681,0.0,5.10887487,0.06382506286638012,"{12: 16, 13: 12, 77: 1}","[12, 13, 77]",12161312771,Mg16Al12Ir1
Mg16Al12Pt,mp-1185691,0.0,5.11085856,0.023694496923491126,"{12: 16, 13: 12, 78: 1}","[12, 13, 78]",12161312781,Mg16Al12Pt1
Mg16Al12Au,mp-1185648,0.0,5.08300734,0.017913579195402818,"{12: 16, 13: 12, 79: 1}","[12, 13, 79]",12161312791,Mg16Al12Au1
Mg16Al12Hg,mp-1185675,0.0,4.95350989,0.014002066149426451,"{12: 16, 13: 12, 80: 1}","[12, 13, 80]",12161312801,Mg16Al12Hg1
Mg16Al12Tl,mp-1232421,0.0,5.22089907,0.012046963620690132,"{12: 16, 13: 12, 81: 1}","[12, 13, 81]",12161312811,Mg16Al12Tl1
Mg16Al12Pb,mp-1185682,0.0,5.17835435,0.01830424034482725,"{12: 16, 13: 12, 82: 1}","[12, 13, 82]",12161312821,Mg16Al12Pb1
Mg16Al12Bi,mp-1185644,0.0,5.18135513,0.03500117741379283,"{12: 16, 13: 12, 83: 1}","[12, 13, 83]",12161312831,Mg16Al12Bi1
Th(Mg4Al3)4,mp-1187472,0.0,4.59330945,0.021380036163794802,"{90: 1, 12: 16, 13: 12}","[12, 13, 90]",12161312901,Th1Mg16Al12
Mg16PaAl12,mp-1185725,0.0,5.39297048,0.019983809612069692,"{12: 16, 91: 1, 13: 12}","[12, 13, 91]",12161312911,Mg16Pa1Al12
Mg16UAl12,mp-1185753,0.0,5.34415075,0.03076075339080475,"{12: 16, 92: 1, 13: 12}","[12, 13, 92]",12161312921,Mg16U1Al12
Mg16NpAl12,mp-1185746,0.0,5.48163241,0.04712908229885038,"{12: 16, 93: 1, 13: 12}","[12, 13, 93]",12161312931,Mg16Np1Al12
Pu(Mg4Al3)4,mp-1186845,0.0,5.2039602,0.017706325014370528,"{94: 1, 12: 16, 13: 12}","[12, 13, 94]",12161312941,Pu1Mg16Al12
Mg16Al13,mp-1094685,0.0,4.48671986,0.003992390603448914,"{12: 16, 13: 13}","[12, 13]",12161313,Mg16Al13
Mg17Al11Si,mp-1185751,0.0,5.16977079,0.017853159051724354,"{12: 17, 13: 11, 14: 1}","[12, 13, 14]",12171311141,Mg17Al11Si1
Mg17Al11Zn,mp-1185781,0.0,4.8293437,0.004241649052299401,"{12: 17, 13: 11, 30: 1}","[12, 13, 30]",12171311301,Mg17Al11Zn1
Mg17Al11Ga,mp-1185740,0.0,4.84430701,0.0031933899999998516,"{12: 17, 13: 11, 31: 1}","[12, 13, 31]",12171311311,Mg17Al11Ga1
Mg17Al11Rh,mp-1185744,0.0,5.01864282,0.032399453915231025,"{12: 17, 13: 11, 45: 1}","[12, 13, 45]",12171311451,Mg17Al11Rh1
Mg17Al11Pd,mp-865352,0.0,5.03896009,0.010378739157687278,"{12: 17, 13: 11, 46: 1}","[12, 13, 46]",12171311461,Mg17Al11Pd1
Mg17Al11Ag,mp-865489,0.0,4.91006391,0.0058160354454033225,"{12: 17, 13: 11, 47: 1}","[12, 13, 47]",12171311471,Mg17Al11Ag1
Mg17Al11Cd,mp-1185737,0.0,4.7605674,0.008832872499999755,"{12: 17, 13: 11, 48: 1}","[12, 13, 48]",12171311481,Mg17Al11Cd1
Mg17Al11In,mp-1185741,0.0,4.92839852,0.01178784732758631,"{12: 17, 13: 11, 49: 1}","[12, 13, 49]",12171311491,Mg17Al11In1
Mg17Al11Sn,mp-1185747,0.0,5.17334022,0.015286267672415033,"{12: 17, 13: 11, 50: 1}","[12, 13, 50]",12171311501,Mg17Al11Sn1
Mg17Al11Pt,mp-1185743,0.0,5.05233617,0.016180839265445446,"{12: 17, 13: 11, 78: 1}","[12, 13, 78]",12171311781,Mg17Al11Pt1
Mg17Al11Au,mp-1185738,0.0,4.94459949,0.011945876522988286,"{12: 17, 13: 11, 79: 1}","[12, 13, 79]",12171311791,Mg17Al11Au1
Mg17Al11Hg,mp-1185739,0.0,4.82512419,0.011103156580460904,"{12: 17, 13: 11, 80: 1}","[12, 13, 80]",12171311801,Mg17Al11Hg1
Mg17Al11Tl,mp-1185759,0.0,4.89910058,0.013501961293103992,"{12: 17, 13: 11, 81: 1}","[12, 13, 81]",12171311811,Mg17Al11Tl1
Mg17Al11Pb,mp-1185742,0.0,5.08592012,0.0169180169827583,"{12: 17, 13: 11, 82: 1}","[12, 13, 82]",12171311821,Mg17Al11Pb1
Mg18Al11,mp-1094700,0.0,4.08996761,0.01190381958333342,"{12: 18, 13: 11}","[12, 13]",12181311,Mg18Al11
Mg5AlH21O17,mp-1261382,2.9647,3.05672278,0.02793492357954719,"{12: 5, 13: 1, 1: 21, 8: 17}","[1, 8, 12, 13]",121817125131,Mg5Al1H21O17
Mg19Al4Zn15,mp-1204993,0.0,3.3228932,0.026830156771929792,"{12: 19, 13: 4, 30: 15}","[12, 13, 30]",12191343015,Mg19Al4Zn15
Mg2Ti3AlS8,mp-1247067,0.0,5.24803917,0.08045123803571474,"{12: 2, 22: 3, 13: 1, 16: 8}","[12, 13, 16, 22]",122131168223,Mg2Ti3Al1S8
Mg2AlV3S8,mp-1247454,0.011099999999999888,4.69803246,0.11782353589285499,"{12: 2, 13: 1, 23: 3, 16: 8}","[12, 13, 16, 23]",122131168233,Mg2Al1V3S8
Mg2AlCr3S8,mp-1246790,1.1069000000000004,4.16143507,0.015040100535713918,"{12: 2, 13: 1, 24: 3, 16: 8}","[12, 13, 16, 24]",122131168243,Mg2Al1Cr3S8
Mg2Mn3AlS8,mp-1247173,0.0,4.56716021,0.048931440357142364,"{12: 2, 25: 3, 13: 1, 16: 8}","[12, 13, 16, 25]",122131168253,Mg2Mn3Al1S8
Mg2AlMo3S8,mp-1246455,0.0,4.97671977,0.29160890892856894,"{12: 2, 13: 1, 42: 3, 16: 8}","[12, 13, 16, 42]",122131168423,Mg2Al1Mo3S8
Mg2AlW3S8,mp-1247432,0.27090000000000014,6.11424328,0.2033486762499983,"{12: 2, 13: 1, 74: 3, 16: 8}","[12, 13, 16, 74]",122131168743,Mg2Al1W3S8
Mg2Al3,mp-1210739,0.0,5.34734111,0.1172315020000001,"{12: 2, 13: 3}","[12, 13]",122133,Mg2Al3
Mg2(AlSi2)3,mp-1207132,0.0,7.02704387,0.2605436036363633,"{12: 2, 13: 3, 14: 6}","[12, 13, 14]",122133146,Mg2Al3Si6
Mg2TiAl3S8,mp-1247022,0.0,5.50073455,0.055911854107145054,"{12: 2, 22: 1, 13: 3, 16: 8}","[12, 13, 16, 22]",122133168221,Mg2Ti1Al3S8
Mg2Al3VS8,mp-1247119,0.015499999999999403,4.83954648,0.05817613125000154,"{12: 2, 13: 3, 23: 1, 16: 8}","[12, 13, 16, 23]",122133168231,Mg2Al3V1S8
Mg2Al3CrS8,mp-1247020,1.5980000000000008,4.13058655,0.014135388035713348,"{12: 2, 13: 3, 24: 1, 16: 8}","[12, 13, 16, 24]",122133168241,Mg2Al3Cr1S8
Mg2MnAl3S8,mp-1246745,0.0,5.11029466,0.027907649285714875,"{12: 2, 25: 1, 13: 3, 16: 8}","[12, 13, 16, 25]",122133168251,Mg2Mn1Al3S8
Mg2Al3MoS8,mp-1246682,0.8658000000000001,5.73410151,0.09614220797618955,"{12: 2, 13: 3, 42: 1, 16: 8}","[12, 13, 16, 42]",122133168421,Mg2Al3Mo1S8
Mg2Al3WS8,mp-1247155,0.4428000000000001,5.32317378,0.14402077017857096,"{12: 2, 13: 3, 74: 1, 16: 8}","[12, 13, 16, 74]",122133168741,Mg2Al3W1S8
Mg2Al4Zn3,mp-1189454,0.0,5.01903116,0.10972686199346482,"{12: 2, 13: 4, 30: 3}","[12, 13, 30]",122134303,Mg2Al4Zn3
La6Mg22Al,mp-640898,0.0,4.48706957,0.05154074594827662,"{57: 6, 12: 22, 13: 1}","[12, 13, 57]",1222131576,La6Mg22Al1
Mg23Al30,mp-17659,0.0,5.64458623,0.0007062855660371348,"{12: 23, 13: 30}","[12, 13]",12231330,Mg23Al30
Mg30Al24Ag19,mp-570806,0.0,4.95473668,0.09304620397260344,"{12: 30, 13: 24, 47: 19}","[12, 13, 47]",123013244719,Mg30Al24Ag19
Mg3Al,mp-978271,0.0,4.46569114,0.027507425520833628,"{12: 3, 13: 1}","[12, 13]",123131,Mg3Al1
Sr2Mg3Al,mp-1208806,0.0,2.99710342,0.027220145833332765,"{38: 2, 12: 3, 13: 1}","[12, 13, 38]",123131382,Sr2Mg3Al1
Mg3(MnAl9)2,mp-684027,0.0,7.47918252,0.010448423913041793,"{12: 3, 25: 2, 13: 18}","[12, 13, 25]",1231318252,Mg3Mn2Al18
Sr4Mg3Al5,mp-1208710,0.0,3.93830204,0.021198464583334076,"{38: 4, 12: 3, 13: 5}","[12, 13, 38]",123135384,Sr4Mg3Al5
Mg32Al36Ag13,mp-31506,0.0,5.54291359,0.020885457654320927,"{12: 32, 13: 36, 47: 13}","[12, 13, 47]",123213364713,Mg32Al36Ag13
Mg41Al67,mp-568106,0.0,5.91165526,0.05170004335648093,"{12: 41, 13: 67}","[12, 13]",12411367,Mg41Al67
Mg4AlSi3,mp-1198317,0.0,5.9478128,0.08716362843750014,"{12: 4, 13: 1, 14: 3}","[12, 13, 14]",124131143,Mg4Al1Si3
Mg4AlSi6,mp-31405,0.0,6.53499561,0.23055034272727326,"{12: 4, 13: 1, 14: 6}","[12, 13, 14]",124131146,Mg4Al1Si6
Mg4AlZn11,mp-1222218,0.0,3.18616815,0.15598455598214156,"{12: 4, 13: 1, 30: 11}","[12, 13, 30]",1241313011,Mg4Al1Zn11
Ca4AlSiH24SO16F13,mp-1228916,5.5254,-1.31312714,0.021126983518513498,"{20: 4, 13: 1, 14: 1, 1: 24, 16: 1, 8: 16, 9: 13}","[1, 8, 9, 13, 14, 16, 20]",124816913131141161204,Ca4Al1Si1H24S1O16F13
NaAlH24(SO10)2,mp-24046,5.3109,-1.65264921,0.0014899220833290983,"{11: 1, 13: 1, 1: 24, 16: 2, 8: 20}","[1, 8, 11, 13, 16]",124820111131162,Na1Al1H24S2O20
Mg5(AlSe4)2,mp-673834,1.1317000000000004,2.23533045,0.29666625316666595,"{12: 5, 13: 2, 34: 8}","[12, 13, 34]",125132348,Mg5Al2Se8
Mg6AlSi,mp-1023287,0.0,4.61054311,0.13251479901041696,"{12: 6, 13: 1, 14: 1}","[12, 13, 14]",126131141,Mg6Al1Si1
KMg6Al,mp-1023401,0.0,2.99299837,0.2221903231041671,"{19: 1, 12: 6, 13: 1}","[12, 13, 19]",126131191,K1Mg6Al1
CaMg6Al,mp-1023487,0.0,3.49957525,0.10947044843749976,"{20: 1, 12: 6, 13: 1}","[12, 13, 20]",126131201,Ca1Mg6Al1
Mg6TiAl,mp-1023400,0.0,4.17581565,0.18901120375000025,"{12: 6, 22: 1, 13: 1}","[12, 13, 22]",126131221,Mg6Ti1Al1
Mg6AlV,mp-1023394,0.0,4.12403407,0.212302571875,"{12: 6, 13: 1, 23: 1}","[12, 13, 23]",126131231,Mg6Al1V1
Mg6AlCr,mp-1023302,0.0,4.13678595,0.17776014262499995,"{12: 6, 13: 1, 24: 1}","[12, 13, 24]",126131241,Mg6Al1Cr1
Mg6MnAl,mp-1023486,0.0,4.13702419,0.1797927968750006,"{12: 6, 25: 1, 13: 1}","[12, 13, 25]",126131251,Mg6Mn1Al1
Mg6AlCo,mp-1023504,0.0,4.26171253,0.2647170712500002,"{12: 6, 13: 1, 27: 1}","[12, 13, 27]",126131271,Mg6Al1Co1
Mg6AlZn,mp-1023483,0.0,3.97815291,0.06280160333541684,"{12: 6, 13: 1, 30: 1}","[12, 13, 30]",126131301,Mg6Al1Zn1
Mg6AlGa,mp-1023270,0.0,4.04663526,0.06032870526041734,"{12: 6, 13: 1, 31: 1}","[12, 13, 31]",126131311,Mg6Al1Ga1
RbMg6Al,mp-1023304,0.0,2.73525485,0.28413844994791715,"{37: 1, 12: 6, 13: 1}","[12, 13, 37]",126131371,Rb1Mg6Al1
SrMg6Al,mp-1099107,0.0,3.30976595,0.1443420775000006,"{38: 1, 12: 6, 13: 1}","[12, 13, 38]",126131381,Sr1Mg6Al1
Mg6ZrAl,mp-1023403,0.0,3.97387213,0.15315009802083335,"{12: 6, 40: 1, 13: 1}","[12, 13, 40]",126131401,Mg6Zr1Al1
Mg6NbAl,mp-1023296,0.0,4.14798681,0.21514020429999992,"{12: 6, 41: 1, 13: 1}","[12, 13, 41]",126131411,Mg6Nb1Al1
Mg6AlMo,mp-1023294,0.0,4.59703429,0.24877091565476173,"{12: 6, 13: 1, 42: 1}","[12, 13, 42]",126131421,Mg6Al1Mo1
Mg6AlCd,mp-1023306,0.0,3.9515603,0.04951974401041692,"{12: 6, 13: 1, 48: 1}","[12, 13, 48]",126131481,Mg6Al1Cd1
Mg6AlSn,mp-1023398,0.0,4.75016987,0.06825984338541646,"{12: 6, 13: 1, 50: 1}","[12, 13, 50]",126131501,Mg6Al1Sn1
Mg6AlSb,mp-1023272,0.0,4.82751991,0.10813139127604243,"{12: 6, 13: 1, 51: 1}","[12, 13, 51]",126131511,Mg6Al1Sb1
CsMg6Al,mp-1248475,0.0,1.85375716,0.24564474842852024,"{55: 1, 12: 6, 13: 1}","[12, 13, 55]",126131551,Cs1Mg6Al1
LaMg6Al,mp-1023325,0.0,4.18743189,0.12858860968750063,"{57: 1, 12: 6, 13: 1}","[12, 13, 57]",126131571,La1Mg6Al1
CeMg6Al,mp-1261437,0.0,4.09346757,0.12124362750000017,"{58: 1, 12: 6, 13: 1}","[12, 13, 58]",126131581,Ce1Mg6Al1
HfMg6Al,mp-1023284,0.0,4.09701993,0.1786726682499995,"{72: 1, 12: 6, 13: 1}","[12, 13, 72]",126131721,Hf1Mg6Al1
Mg6AlW,mp-1023297,0.0,4.52040336,0.2775384618750003,"{12: 6, 13: 1, 74: 1}","[12, 13, 74]",126131741,Mg6Al1W1
Mg6AlBi,mp-1023262,0.0,4.4749186,0.08573397619791612,"{12: 6, 13: 1, 83: 1}","[12, 13, 83]",126131831,Mg6Al1Bi1
Mg7Al,mp-1016271,0.0,3.68447694,0.0440440027604172,"{12: 7, 13: 1}","[12, 13]",127131,Mg7Al1
Al11H2NO17,mp-1229270,0.22929999999999984,3.71266364,0.1569478287365742,"{13: 11, 1: 2, 7: 1, 8: 17}","[1, 7, 8, 13]",12718171311,Al11H2N1O17
Na9Al2(H9O7)3,mp-1199831,3.6299,3.04068613,0.02054732605932319,"{11: 9, 13: 2, 1: 27, 8: 21}","[1, 8, 11, 13]",127821119132,Na9Al2H27O21
Na2Al2Si3(HO5)2,mp-1210489,2.5700000000000003,-0.04705033,0.2701287886513253,"{11: 2, 13: 2, 14: 3, 1: 2, 8: 10}","[1, 8, 11, 13, 14]",12810112132143,Na2Al2Si3H2O10
CsAlVP2(HO5)2,mp-1195968,2.769,4.14110465,0.017633401960785555,"{55: 1, 13: 1, 23: 1, 15: 2, 1: 2, 8: 10}","[1, 8, 13, 15, 23, 55]",12810131152231551,Cs1Al1V1P2H2O10
AlP3(HO5)2,mp-722269,5.7893,0.69514292,0.008349952673623484,"{13: 1, 15: 3, 1: 2, 8: 10}","[1, 8, 13, 15]",12810131153,Al1P3H2O10
K2Al2Si3(HO5)2,mp-1212051,3.2234,-0.69498944,0.2594015049342282,"{19: 2, 13: 2, 14: 3, 1: 2, 8: 10}","[1, 8, 13, 14, 19]",12810132143192,K2Al2Si3H2O10
Na2CaMnAl2P2H2(O5F2)2,mp-1221604,4.3124,6.61310827,0.0002590181458810292,"{11: 2, 20: 1, 25: 1, 13: 2, 15: 2, 1: 2, 8: 10, 9: 4}","[1, 8, 9, 11, 13, 15, 20, 25]",1281094112132152201251,Na2Ca1Mn1Al2P2H2O10F4
NaAl3Si3(HO6)2,mp-1198448,4.694100000000001,2.48982968,0.01529371119048406,"{11: 1, 13: 3, 14: 3, 1: 2, 8: 12}","[1, 8, 11, 13, 14]",12812111133143,Na1Al3Si3H2O12
KAlCo3Si3(HO6)2,mp-1223622,2.6524,5.28465025,0.0064243397727334894,"{19: 1, 13: 1, 27: 3, 14: 3, 1: 2, 8: 12}","[1, 8, 13, 14, 19, 27]",12812131143191273,K1Al1Co3Si3H2O12
KAl2Si4(HO6)2,mp-1211839,0.0,7.7334397,0.14294599347221038,"{19: 1, 13: 2, 14: 4, 1: 2, 8: 12}","[1, 8, 13, 14, 19]",12812132144191,K1Al2Si4H2O12
CaAl2Si4(HO6)2,mp-1214076,2.9796,2.15624611,0.2665207478968439,"{20: 1, 13: 2, 14: 4, 1: 2, 8: 12}","[1, 8, 13, 14, 20]",12812132144201,Ca1Al2Si4H2O12
KAl3Si3(HO6)2,mp-1200795,4.8237000000000005,1.85841905,0.011951055833325341,"{19: 1, 13: 3, 14: 3, 1: 2, 8: 12}","[1, 8, 13, 14, 19]",12812133143191,K1Al3Si3H2O12
CaAl4Si2(HO6)2,mp-24469,4.5346,3.1173878,0.011703567619063548,"{20: 1, 13: 4, 14: 2, 1: 2, 8: 12}","[1, 8, 13, 14, 20]",12812134142201,Ca1Al4Si2H2O12
La(Mg2Al)4,mp-1211236,0.0,5.10575569,0.04767166787393151,"{57: 1, 12: 8, 13: 4}","[12, 13, 57]",128134571,La1Mg8Al4
Na2Al3P3(HO7)2,mp-1198443,4.9664,1.85686348,0.013267823738428497,"{11: 2, 13: 3, 15: 3, 1: 2, 8: 14}","[1, 8, 11, 13, 15]",12814112133153,Na2Al3P3H2O14
K2AlH2OF5,mp-24608,5.9924,-1.69458335,0.0038401361363709086,"{19: 2, 13: 1, 1: 2, 8: 1, 9: 5}","[1, 8, 9, 13, 19]",128195131192,K2Al1H2O1F5
NaCaAlH2OF6,mp-697278,6.5999,-0.84217606,0.02140447680555546,"{11: 1, 20: 1, 13: 1, 1: 2, 8: 1, 9: 6}","[1, 8, 9, 11, 13, 20]",128196111131201,Na1Ca1Al1H2O1F6
Ca2AlH2OF7,mp-1194400,6.5056,5.23893647,0.020788596730772824,"{20: 2, 13: 1, 1: 2, 8: 1, 9: 7}","[1, 8, 9, 13, 20]",128197131202,Ca2Al1H2O1F7
AlH2Pb3OF9,mp-1195722,4.6703,5.97619876,0.00873632773438171,"{13: 1, 1: 2, 82: 3, 8: 1, 9: 9}","[1, 8, 9, 13, 82]",128199131823,Al1H2Pb3O1F9
Ca6Al6Si3(HO12)2,mp-1264155,0.01159999999999961,2.5320963,0.094711347688472,"{20: 6, 13: 6, 14: 3, 1: 2, 8: 24}","[1, 8, 13, 14, 20]",12824136143206,Ca6Al6Si3H2O24
Ca4Al5CrSi6(HO13)2,mp-1227826,4.0168,3.4270822,0.022295710984852057,"{20: 4, 13: 5, 24: 1, 14: 6, 1: 2, 8: 26}","[1, 8, 13, 14, 20, 24]",12826135146204241,Ca4Al5Cr1Si6H2O26
SrCa3Al6Si6(HO13)2,mp-1218654,4.9056,3.37327348,0.02023006462123167,"{38: 1, 20: 3, 13: 6, 14: 6, 1: 2, 8: 26}","[1, 8, 13, 14, 20, 38]",12826136146203381,Sr1Ca3Al6Si6H2O26
AlP(HO2)2,mp-1214940,2.3234000000000004,2.38155476,0.6142152588541876,"{13: 1, 15: 1, 1: 2, 8: 4}","[1, 8, 13, 15]",1284131151,Al1P1H2O4
Al2Ge(HO3)2,mp-643346,3.8758,3.00156447,0.031545246818180495,"{13: 2, 32: 1, 1: 2, 8: 6}","[1, 8, 13, 32]",1286132321,Al2Ge1H2O6