formula,material_id,band_gap,efermi,energy_above_hull,comp_atoms,sorted_keys_comp_atoms,comp_number,new_formula
Zr6Al2CoH10,mp-24670,0.0,5.00704406,0.11784239456965828,"{40: 6, 13: 2, 27: 1, 1: 10}","[1, 13, 27, 40]",110132271406,Zr6Al2Co1H10
AlH10N2OF5,mp-24618,6.1343,-2.28489958,0.0,"{13: 1, 1: 10, 7: 2, 8: 1, 9: 5}","[1, 7, 8, 9, 13]",110728195131,Al1H10N2O1F5
AlP3H10O11,mp-1203322,6.0489999999999995,5.24429572,0.04245435737857228,"{13: 1, 15: 3, 1: 10, 8: 11}","[1, 8, 13, 15]",110811131153,Al1P3H10O11
Na4Al4H10O13,mp-758693,4.3167,0.45685807,0.009664470080647192,"{11: 4, 13: 4, 1: 10, 8: 13}","[1, 8, 11, 13]",110813114134,Na4Al4H10O13
MnAl2P2H10O13F2,mp-1201658,4.582199999999999,0.82851043,0.01126416616667214,"{25: 1, 13: 2, 15: 2, 1: 10, 8: 13, 9: 2}","[1, 8, 9, 13, 15, 25]",11081392132152251,Mn1Al2P2H10O13F2
Ca4Al2P2H10O13F8,mp-1204548,5.421900000000001,5.98072427,0.022097628311971818,"{20: 4, 13: 2, 15: 2, 1: 10, 8: 13, 9: 8}","[1, 8, 9, 13, 15, 20]",11081398132152204,Ca4Al2P2H10O13F8
Al2H10S3O17,mp-757796,5.8229,5.80058262,0.0011082568652769353,"{13: 2, 1: 10, 16: 3, 8: 17}","[1, 8, 13, 16]",110817132163,Al2H10S3O17
CaAl2Si6H10O21,mp-1214127,5.1377999999999995,4.89484064,0.013151776354174416,"{20: 1, 13: 2, 14: 6, 1: 10, 8: 21}","[1, 8, 13, 14, 20]",110821132146201,Ca1Al2Si6H10O21
Ca2Al4Si4H10O21,mp-1197037,4.9859,5.418697,0.011706912256101099,"{20: 2, 13: 4, 14: 4, 1: 10, 8: 21}","[1, 8, 13, 14, 20]",110821134144202,Ca2Al4Si4H10O21
NaMgAl5P4(H5O12)2,mp-1210892,5.45,2.24657066,0.009463920956790162,"{11: 1, 12: 1, 13: 5, 15: 4, 1: 10, 8: 24}","[1, 8, 11, 12, 13, 15]",110824111121135154,Na1Mg1Al5P4H10O24
AlZnH10O7F5,mp-1229294,0.9899999999999998,-2.03522578,0.022143815312507087,"{13: 1, 30: 1, 1: 10, 8: 7, 9: 5}","[1, 8, 9, 13, 30]",1108795131301,Al1Zn1H10O7F5
Ca2AlH10ClO8,mp-42175,4.3268,-0.40007908,0.0124175466666685,"{20: 2, 13: 1, 1: 10, 17: 1, 8: 8}","[1, 8, 13, 17, 20]",11088131171202,Ca2Al1H10Cl1O8
NaMg14Al,mp-1028237,0.0,2.39849052,0.05642604223150194,"{11: 1, 12: 14, 13: 1}","[11, 12, 13]",1111214131,Na1Mg14Al1
Na(Mg4Al3)4,mp-1186062,0.0,4.78942168,0.009527420642094775,"{11: 1, 12: 16, 13: 12}","[11, 12, 13]",11112161312,Na1Mg16Al12
NaMg6Al,mp-1023295,0.0,3.46071505,0.09534168821300337,"{11: 1, 12: 6, 13: 1}","[11, 12, 13]",111126131,Na1Mg6Al1
NaAlSi4,mp-38994,0.0,6.18135918,0.37273741249999937,"{11: 1, 13: 1, 14: 4}","[11, 13, 14]",111131144,Na1Al1Si4
K2NaAlCl6,mp-1111652,4.3079,-0.24763244,0.022366059000000327,"{19: 2, 11: 1, 13: 1, 17: 6}","[11, 13, 17, 19]",111131176192,K2Na1Al1Cl6
Rb2NaAlCl6,mp-1113929,4.2244,-0.23440871,0.03577435900000081,"{37: 2, 11: 1, 13: 1, 17: 6}","[11, 13, 17, 37]",111131176372,Rb2Na1Al1Cl6
Cs2NaAlCl6,mp-1112997,4.121300000000001,0.00295555,0.03633688675000002,"{55: 2, 11: 1, 13: 1, 17: 6}","[11, 13, 17, 55]",111131176552,Cs2Na1Al1Cl6
NaCa2Al,mp-1093799,0.1318999999999999,-2.63522134,1.5282136878813004,"{11: 1, 20: 2, 13: 1}","[11, 13, 20]",111131202,Na1Ca2Al1
NaAl2Sb,mp-1087226,0.0,5.21722669,0.4393078891071447,"{11: 1, 13: 2, 51: 1}","[11, 13, 51]",111132511,Na1Al2Sb1
NaAl3,mp-1186098,0.0,5.17329458,0.1664754733620688,"{11: 1, 13: 3}","[11, 13]",111133,Na1Al3
Th8Al4H11,mp-707703,0.0,6.75460075,0.02655545072463994,"{90: 8, 13: 4, 1: 11}","[1, 13, 90]",111134908,Th8Al4H11
Mg16Al12H,mp-1185672,0.0,4.83574646,0.04909972965517273,"{12: 16, 13: 12, 1: 1}","[1, 12, 13]",1112161312,Mg16Al12H1
CaAlSiH,mp-568177,0.36939999999999973,5.07915172,0.005182762499999605,"{20: 1, 13: 1, 14: 1, 1: 1}","[1, 13, 14, 20]",11131141201,Ca1Al1Si1H1
Al3H,mp-1183138,0.0,6.37134489,0.4130762516666664,"{13: 3, 1: 1}","[1, 13]",11133,Al3H1
Al2P3H11O13,mp-605108,5.8945,-0.04469148,0.028160367413801346,"{13: 2, 15: 3, 1: 11, 8: 13}","[1, 8, 13, 15]",111813132153,Al2P3H11O13
AlH12,mp-1214891,0.0,-0.72505331,0.12336965807692257,"{13: 1, 1: 12}","[1, 13]",112131,Al1H12
Na2AlAgCl6,mp-1111545,2.4610000000000003,0.47023577,0.1517999329999995,"{11: 2, 13: 1, 47: 1, 17: 6}","[11, 13, 17, 47]",112131176471,Na2Al1Ag1Cl6
Na2AlHgCl6,mp-1111667,0.0,1.52791085,0.2652527490000054,"{11: 2, 13: 1, 80: 1, 17: 6}","[11, 13, 17, 80]",112131176801,Na2Al1Hg1Cl6
Na2AlGe2,mp-1210387,0.0,2.6903442,0.47584779737499794,"{11: 2, 13: 1, 32: 2}","[11, 13, 32]",112131322,Na2Al1Ge2
Na2AlAgBr6,mp-1111586,1.4745,-0.01048123,0.19199935575000104,"{11: 2, 13: 1, 47: 1, 35: 6}","[11, 13, 35, 47]",112131356471,Na2Al1Ag1Br6
Na2AlHgBr6,mp-1111743,0.0,1.00914261,0.2586023732500009,"{11: 2, 13: 1, 80: 1, 35: 6}","[11, 13, 35, 80]",112131356801,Na2Al1Hg1Br6
Na2Al2Sb3,mp-30039,0.7215999999999996,3.82653836,0.00043236714285299627,"{11: 2, 13: 2, 51: 3}","[11, 13, 51]",112132513,Na2Al2Sb3
Al2P3H12(NO4)3,mp-1215028,4.8218,1.11969905,0.0118780159635401,"{13: 2, 15: 3, 1: 12, 7: 3, 8: 12}","[1, 7, 8, 13, 15]",11273812132153,Al2P3H12N3O12
AlH12(NO5)3,mp-1203296,3.5696000000000003,2.26188602,0.0,"{13: 1, 1: 12, 7: 3, 8: 15}","[1, 7, 8, 13]",11273815131,Al1H12N3O15
AlP2H12N3O8,mp-1215134,4.6888,4.27790324,0.0,"{13: 1, 15: 2, 1: 12, 7: 3, 8: 8}","[1, 7, 8, 13, 15]",1127388131152,Al1P2H12N3O8
AlH12(NF2)3,mp-1202807,5.861000000000001,3.71389431,0.03523097920457374,"{13: 1, 1: 12, 7: 3, 9: 6}","[1, 7, 9, 13]",1127396131,Al1H12N3F6
MgAl4(HO)12,mp-1234533,4.098599999999999,2.67114899,0.08217623681034691,"{12: 1, 13: 4, 1: 12, 8: 12}","[1, 8, 12, 13]",112812121134,Mg1Al4H12O12
AlZn2Sb(HO)12,mp-1214888,2.6138,0.56577623,0.01893851562499993,"{13: 1, 30: 2, 51: 1, 1: 12, 8: 12}","[1, 8, 13, 30, 51]",112812131302511,Al1Zn2Sb1H12O12
Ca3Al2(HO)12,mp-23882,4.1187000000000005,0.93689488,0.03148022020117214,"{20: 3, 13: 2, 1: 12, 8: 12}","[1, 8, 13, 20]",112812132203,Ca3Al2H12O12
Sr3Al2(HO)12,mp-24126,3.8992999999999998,0.41709584,0.0025293062930993315,"{38: 3, 13: 2, 1: 12, 8: 12}","[1, 8, 13, 38]",112812132383,Sr3Al2H12O12
AlH12(OF)5,mp-1228800,6.3213,3.61934295,0.0023566919927660024,"{13: 1, 1: 12, 8: 5, 9: 5}","[1, 8, 9, 13]",1128595131,Al1H12O5F5
Na3Al,mp-974270,0.0,1.69822487,0.18017311008620673,"{11: 3, 13: 1}","[11, 13]",113131,Na3Al1
Na3AlSiTe4,mp-1221314,0.5861000000000001,3.25166892,0.22829462782406962,"{11: 3, 13: 1, 14: 1, 52: 4}","[11, 13, 14, 52]",113131141524,Na3Al1Si1Te4
Na3AlCl6,mp-1111450,3.9396000000000004,0.14877859,0.14167107500000053,"{11: 3, 13: 1, 17: 6}","[11, 13, 17]",113131176,Na3Al1Cl6
Al4Zn4P8H13N3O32,mp-693340,4.1775,0.13556376,0.021552049023448205,"{13: 4, 30: 4, 15: 8, 1: 13, 7: 3, 8: 32}","[1, 7, 8, 13, 15, 30]",11373832134158304,Al4Zn4P8H13N3O32
BeAlSiHO5,mp-759686,4.976799999999999,3.17739051,0.010548317777782756,"{4: 1, 13: 1, 14: 1, 1: 1, 8: 5}","[1, 4, 8, 13, 14]",114185131141,Be1Al1Si1H1O5
Be3Al2Si6HO18,mp-1214221,4.806900000000001,1.53788442,0.07742521259722235,"{4: 3, 13: 2, 14: 6, 1: 1, 8: 18}","[1, 4, 8, 13, 14]",1143818132146,Be3Al2Si6H1O18
AlH14SeNO14,mp-1197821,3.5761000000000003,-0.94854148,0.0,"{13: 1, 1: 14, 34: 1, 7: 1, 8: 14}","[1, 7, 8, 13, 34]",11471814131341,Al1H14Se1N1O14
Al3P2H14(O5F)3,mp-698160,5.1585,0.37552485,0.018051984031536072,"{13: 3, 15: 2, 1: 14, 8: 15, 9: 3}","[1, 8, 9, 13, 15]",11481593133152,Al3P2H14O15F3
Ca2Al4Si8H14O31,mp-1248247,3.0675,0.39474507,0.5224473741384124,"{20: 2, 13: 4, 14: 8, 1: 14, 8: 31}","[1, 8, 13, 14, 20]",114831134148202,Ca2Al4Si8H14O31
Al13Si5H14Cl(O17F2)2,mp-534982,3.8563,3.24658045,0.03281692269952963,"{13: 13, 14: 5, 1: 14, 17: 1, 8: 34, 9: 4}","[1, 8, 9, 13, 14, 17]",114834941313145171,Al13Si5H14Cl1O34F4
AlH15N5Cl3,mp-699469,4.6579999999999995,-0.88737129,0.0,"{13: 1, 1: 15, 7: 5, 17: 3}","[1, 7, 13, 17]",11575131173,Al1H15N5Cl3
AlH15Br3N5,mp-1199829,4.3958,-0.81339534,0.0,"{13: 1, 1: 15, 35: 3, 7: 5}","[1, 7, 13, 35]",11575131353,Al1H15Br3N5
AlH15(NF)6,mp-541900,5.523,-0.76766899,0.12657968290177823,"{13: 1, 1: 15, 7: 6, 9: 6}","[1, 7, 9, 13]",1157696131,Al1H15N6F6
Al2H15SClO13,mp-1202430,5.3509,-0.77831364,0.0022111068457011385,"{13: 2, 1: 15, 16: 1, 17: 1, 8: 13}","[1, 8, 13, 16, 17]",115813132161171,Al2H15S1Cl1O13
MnAlP2(HO)15,mp-758995,0.0051000000000001044,2.06620354,0.03854088727942173,"{25: 1, 13: 1, 15: 2, 1: 15, 8: 15}","[1, 8, 13, 15, 25]",115815131152251,Mn1Al1P2H15O15
AlZnH16N(OF)6,mp-773079,5.195,-1.99683474,0.0031926105645148084,"{13: 1, 30: 1, 1: 16, 7: 1, 8: 6, 9: 6}","[1, 7, 8, 9, 13, 30]",116718696131301,Al1Zn1H16N1O6F6
CaAl2H16N9,mp-707040,1.0288,-0.65566395,0.18139254082589407,"{20: 1, 13: 2, 1: 16, 7: 9}","[1, 7, 13, 20]",11679132201,Ca1Al2H16N9
Al6ZnP4(H4O7)4,mp-686801,2.2676,1.38469244,0.7270573075151576,"{13: 6, 30: 1, 15: 4, 1: 16, 8: 28}","[1, 8, 13, 15, 30]",116828136154301,Al6Zn1P4H16O28
Na2Ca2Al6Si9(H8O19)2,mp-1204300,4.8091,0.06457058,0.00408908477169323,"{11: 2, 20: 2, 13: 6, 14: 9, 1: 16, 8: 38}","[1, 8, 11, 13, 14, 20]",116838112136149202,Na2Ca2Al6Si9H16O38
Na2Al3Si3HNO12,mp-1211222,0.186,-0.40552492,0.7414869714488699,"{11: 2, 13: 3, 14: 3, 1: 1, 7: 1, 8: 12}","[1, 7, 8, 11, 13, 14]",1171812112133143,Na2Al3Si3H1N1O12
Al4P5HN2O21,mp-1201890,0.012799999999999978,-0.34822224,0.5164983970622856,"{13: 4, 15: 5, 1: 1, 7: 2, 8: 21}","[1, 7, 8, 13, 15]",1172821134155,Al4P5H1N2O21
Mg4Al3(HO)17,mp-690136,2.4294000000000002,0.5722807,0.047690432256097814,"{12: 4, 13: 3, 1: 17, 8: 17}","[1, 8, 12, 13]",117817124133,Mg4Al3H17O17
CaLaMgAl2Si3HO13,mp-1195311,4.446700000000001,4.07234189,0.002803839427078181,"{20: 1, 57: 1, 12: 1, 13: 2, 14: 3, 1: 1, 8: 13}","[1, 8, 12, 13, 14, 20, 57]",11813121132143201571,Ca1La1Mg1Al2Si3H1O13
Ca2MnAl2Si3HO13,mp-745107,0.9432000000000005,4.73555585,0.007889315176775824,"{20: 2, 25: 1, 13: 2, 14: 3, 1: 1, 8: 13}","[1, 8, 13, 14, 20, 25]",11813132143202251,Ca2Mn1Al2Si3H1O13
Ca2Al3Si3HO13,mp-23915,5.036199999999999,3.5705219,0.0177687467803036,"{20: 2, 13: 3, 14: 3, 1: 1, 8: 13}","[1, 8, 13, 14, 20]",11813133143202,Ca2Al3Si3H1O13
Sr2Al3Si3HO13,mp-24802,4.9047,3.30049119,0.02695432346590021,"{38: 2, 13: 3, 14: 3, 1: 1, 8: 13}","[1, 8, 13, 14, 38]",11813133143382,Sr2Al3Si3H1O13
SrAlHOF4,mp-1208739,0.0,-0.82142465,0.6767318769791704,"{38: 1, 13: 1, 1: 1, 8: 1, 9: 4}","[1, 8, 9, 13, 38]",118194131381,Sr1Al1H1O1F4
AlSiHO4,mp-643829,5.571899999999999,5.38298076,0.09027589702381178,"{13: 1, 14: 1, 1: 1, 8: 4}","[1, 8, 13, 14]",1184131141,Al1Si1H1O4
CaAlSiHO5,mp-24402,5.2447,3.6074021,0.00862593185185112,"{20: 1, 13: 1, 14: 1, 1: 1, 8: 5}","[1, 8, 13, 14, 20]",1185131141201,Ca1Al1Si1H1O5
MgAl2SiHO7,mp-1210694,0.35509999999999975,3.14171016,0.14004574225334032,"{12: 1, 13: 2, 14: 1, 1: 1, 8: 7}","[1, 8, 12, 13, 14]",1187121132141,Mg1Al2Si1H1O7
AlH18(NO6)3,mp-707784,3.3950000000000005,-1.00275403,0.0017794620625011248,"{13: 1, 1: 18, 7: 3, 8: 18}","[1, 7, 8, 13]",11873818131,Al1H18N3O18
NaAl2H18S4N4ClO18,mp-1199124,5.0684000000000005,0.51762197,0.0,"{11: 1, 13: 2, 1: 18, 16: 4, 7: 4, 17: 1, 8: 18}","[1, 7, 8, 11, 13, 16, 17]",11874818111132164171,Na1Al2H18S4N4Cl1O18
AlH18Ru(NF)6,mp-24135,0.0,0.70513807,0.017544196718740857,"{13: 1, 1: 18, 44: 1, 7: 6, 9: 6}","[1, 7, 9, 13, 44]",1187696131441,Al1H18Ru1N6F6
Al5HO8,mp-626161,4.7661,5.73645424,0.007893157678579676,"{13: 5, 1: 1, 8: 8}","[1, 8, 13]",1188135,Al5H1O8
Al2H18SO15,mp-1238496,4.9787,-1.02218465,0.0036807422222100428,"{13: 2, 1: 18, 16: 1, 8: 15}","[1, 8, 13, 16]",118815132161,Al2H18S1O15
MgAl2P2(HO)18,mp-24505,5.0097000000000005,0.40896743,0.021402338726287162,"{12: 1, 13: 2, 15: 2, 1: 18, 8: 18}","[1, 8, 12, 13, 15]",118818121132152,Mg1Al2P2H18O18
MgAl2As2(HO)18,mp-1203129,3.9949,-0.1509119,0.014994202886179586,"{12: 1, 13: 2, 33: 2, 1: 18, 8: 18}","[1, 8, 12, 13, 33]",118818121132332,Mg1Al2As2H18O18
AlH18(BrO6)3,mp-695979,0.11959999999999993,-2.02389112,0.30746681538636444,"{13: 1, 1: 18, 35: 3, 8: 18}","[1, 8, 13, 35]",118818131353,Al1H18Br3O18
MnAl2P2(HO)18,mp-504975,3.9536999999999995,1.0900636,0.024760659457998102,"{25: 1, 13: 2, 15: 2, 1: 18, 8: 18}","[1, 8, 13, 15, 25]",118818132152251,Mn1Al2P2H18O18
Ca2Al4Si4H18O25,mp-695251,0.0,1.8831639,0.3360353379716994,"{20: 2, 13: 4, 14: 4, 1: 18, 8: 25}","[1, 8, 13, 14, 20]",118825134144202,Ca2Al4Si4H18O25
Al13Si5H18ClO38,mp-706657,4.268800000000001,2.6031023,0.027290358533337944,"{13: 13, 14: 5, 1: 18, 17: 1, 8: 38}","[1, 8, 13, 14, 17]",1188381313145171,Al13Si5H18Cl1O38
CaAl2Si2HO9,mp-1214006,0.14929999999999977,2.81203237,0.43143759544949756,"{20: 1, 13: 2, 14: 2, 1: 1, 8: 9}","[1, 8, 13, 14, 20]",1189132142201,Ca1Al2Si2H1O9
Al4Si2H(O3F)3,mp-1247833,5.429900000000001,3.76498169,0.014159906820167656,"{13: 4, 14: 2, 1: 1, 8: 9, 9: 3}","[1, 8, 9, 13, 14]",118993134142,Al4Si2H1O9F3
RbAl6H20N5F24,mp-1173479,2.1396,1.26595522,0.29250672166964353,"{37: 1, 13: 6, 1: 20, 7: 5, 9: 24}","[1, 7, 9, 13, 37]",12075924136371,Rb1Al6H20N5F24
AlH20Ru(Cl3O5)2,mp-603609,0.0,0.90051006,0.005764626315788668,"{13: 1, 1: 20, 44: 1, 17: 6, 8: 10}","[1, 8, 13, 17, 44]",120810131176441,Al1H20Ru1Cl6O10
MnAl2P2(H5O4)4,mp-1212408,4.6499999999999995,0.82972685,0.061071986856369165,"{25: 1, 13: 2, 15: 2, 1: 20, 8: 16}","[1, 8, 13, 15, 25]",120816132152251,Mn1Al2P2H20O16
NaAlH2,mp-1210172,0.0,3.54957228,0.29105078291666686,"{11: 1, 13: 1, 1: 2}","[1, 11, 13]",12111131,Na1Al1H2
LaMg11Al,mp-1222857,0.0,4.00929137,0.03523981403846177,"{57: 1, 12: 11, 13: 1}","[12, 13, 57]",1211131571,La1Mg11Al1
MgAl,mp-1039141,0.0,5.4911394,0.02454345875000019,"{12: 1, 13: 1}","[12, 13]",121131,Mg1Al1
MgAlSi,mp-4499,0.0,6.70402913,0.04904478916666699,"{12: 1, 13: 1, 14: 1}","[12, 13, 14]",121131141,Mg1Al1Si1
MgTiAlS4,mp-1247528,0.0,5.31422226,0.07451146321428403,"{12: 1, 22: 1, 13: 1, 16: 4}","[12, 13, 16, 22]",121131164221,Mg1Ti1Al1S4
MgAlVS4,mp-1246431,0.0,4.70767454,0.08840439178571025,"{12: 1, 13: 1, 23: 1, 16: 4}","[12, 13, 16, 23]",121131164231,Mg1Al1V1S4
MgAlCrS4,mp-1247113,1.3818000000000001,4.19450076,0.013662876785714317,"{12: 1, 13: 1, 24: 1, 16: 4}","[12, 13, 16, 24]",121131164241,Mg1Al1Cr1S4
MgMnAlS4,mp-1246445,0.0,4.84275662,0.03934079928571599,"{12: 1, 25: 1, 13: 1, 16: 4}","[12, 13, 16, 25]",121131164251,Mg1Mn1Al1S4
MgAlMoS4,mp-1247044,0.27749999999999986,5.28975981,0.1890318409523788,"{12: 1, 13: 1, 42: 1, 16: 4}","[12, 13, 16, 42]",121131164421,Mg1Al1Mo1S4
MgAlWS4,mp-1246619,0.0,5.61226681,0.19528444107142828,"{12: 1, 13: 1, 74: 1, 16: 4}","[12, 13, 16, 74]",121131164741,Mg1Al1W1S4
Ce3MgAlS7,mp-866517,0.18349999999999955,6.54477069,0.006597989583335462,"{58: 3, 12: 1, 13: 1, 16: 7}","[12, 13, 16, 58]",121131167583,Ce3Mg1Al1S7
Gd3MgAlS7,mp-1190789,1.3590999999999998,3.74415438,0.09254450104166523,"{64: 3, 12: 1, 13: 1, 16: 7}","[12, 13, 16, 64]",121131167643,Gd3Mg1Al1S7
Ca2MgAl,mp-1093696,0.0,-2.18531805,1.6871992915046292,"{20: 2, 12: 1, 13: 1}","[12, 13, 20]",121131202,Ca2Mg1Al1
MgAlAg,mp-1222060,0.0,5.04180189,0.02462849083333385,"{12: 1, 13: 1, 47: 1}","[12, 13, 47]",121131471,Mg1Al1Ag1
La2MgAl,mp-1185014,0.0,6.68105,0.017585935625000992,"{57: 2, 12: 1, 13: 1}","[12, 13, 57]",121131572,La2Mg1Al1
Ce2MgAl,mp-984682,0.0,6.47945369,0.09017039520833414,"{58: 2, 12: 1, 13: 1}","[12, 13, 58]",121131582,Ce2Mg1Al1
Pr2MgAl,mp-1186689,0.0,3.98466815,0.004658978749999321,"{59: 2, 12: 1, 13: 1}","[12, 13, 59]",121131592,Pr2Mg1Al1
MgAlPt2,mp-1096050,0.0,-4.21697815,2.2502226856249994,"{12: 1, 13: 1, 78: 2}","[12, 13, 78]",121131782,Mg1Al1Pt2
MgAlAu2,mp-1185826,0.0,6.48476757,0.015376279999998133,"{12: 1, 13: 1, 79: 2}","[12, 13, 79]",121131792,Mg1Al1Au2
Mg(AlSi)2,mp-3833,0.0,5.90586732,0.059893702000000104,"{12: 1, 13: 2, 14: 2}","[12, 13, 14]",121132142,Mg1Al2Si2
Mg(AlSe2)2,mp-9479,1.053,2.75526349,0.017579331071429394,"{12: 1, 13: 2, 34: 4}","[12, 13, 34]",121132344,Mg1Al2Se4
Mg(AlSn)2,mp-1232293,0.0,5.9212359,0.1324597665000007,"{12: 1, 13: 2, 50: 2}","[12, 13, 50]",121132502,Mg1Al2Sn2
Mg(AlSb)2,mp-1232396,0.0,5.94156932,0.24582935475000012,"{12: 1, 13: 2, 51: 2}","[12, 13, 51]",121132512,Mg1Al2Sb2
Pr3MgAl2,mp-1219830,0.0,4.23516061,0.032708766666666556,"{59: 3, 12: 1, 13: 2}","[12, 13, 59]",121132593,Pr3Mg1Al2
MgAl3,mp-1038916,0.0,6.67454825,0.025026051249999792,"{12: 1, 13: 3}","[12, 13]",121133,Mg1Al3
La2MgAl3,mp-1223215,0.0,7.35275939,0.010707832638888526,"{57: 2, 12: 1, 13: 3}","[12, 13, 57]",121133572,La2Mg1Al3
MgSc5Al4,mp-1222004,0.0,5.50540965,0.012943470999999818,"{12: 1, 21: 5, 13: 4}","[12, 13, 21]",121134215,Mg1Sc5Al4
Nd5MgAl4,mp-1220192,0.0,4.43312035,0.03641671199999941,"{60: 5, 12: 1, 13: 4}","[12, 13, 60]",121134605,Nd5Mg1Al4
Mg13Al14,mp-12766,0.0,5.24936007,0.08898626425925915,"{12: 13, 13: 14}","[12, 13]",12131314,Mg13Al14
Mg13Al16,mp-1194114,0.0,5.57765804,0.044191618620689876,"{12: 13, 13: 16}","[12, 13]",12131316,Mg13Al16
CsAlH2,mp-1213693,0.0,3.29739318,0.39281353916666717,"{55: 1, 13: 1, 1: 2}","[1, 13, 55]",12131551,Cs1Al1H2
CeAlH2Ir,mp-1079691,0.0,7.52940583,0.12458810890000116,"{58: 1, 13: 1, 1: 2, 77: 1}","[1, 13, 58, 77]",12131581771,Ce1Al1H2Ir1
Sr(AlH)2,mp-644229,0.0,4.30432178,0.03168826485714593,"{38: 1, 13: 2, 1: 2}","[1, 13, 38]",12132381,Sr1Al2H2
Mg14AlSi,mp-1028210,0.0,3.18717047,0.07150068106770835,"{12: 14, 13: 1, 14: 1}","[12, 13, 14]",1214131141,Mg14Al1Si1
KMg14Al,mp-1028225,0.0,3.14731147,0.12815800061458393,"{19: 1, 12: 14, 13: 1}","[12, 13, 19]",1214131191,K1Mg14Al1
CaMg14Al,mp-1028211,0.0,3.55054612,0.06559145796874999,"{20: 1, 12: 14, 13: 1}","[12, 13, 20]",1214131201,Ca1Mg14Al1
Mg14TiAl,mp-1028209,0.0,3.80028829,0.1109604043750001,"{12: 14, 22: 1, 13: 1}","[12, 13, 22]",1214131221,Mg14Ti1Al1
Mg14AlV,mp-1028269,0.0,3.71171928,0.12772841187500017,"{12: 14, 13: 1, 23: 1}","[12, 13, 23]",1214131231,Mg14Al1V1
Mg14AlCr,mp-1028251,0.0,3.74834142,0.11008671037500006,"{12: 14, 13: 1, 24: 1}","[12, 13, 24]",1214131241,Mg14Al1Cr1
Mg14MnAl,mp-1028205,0.0,3.77814732,0.10924812625000024,"{12: 14, 25: 1, 13: 1}","[12, 13, 25]",1214131251,Mg14Mn1Al1
Mg14AlCo,mp-1028266,0.0,2.78131458,0.16641369000000017,"{12: 14, 13: 1, 27: 1}","[12, 13, 27]",1214131271,Mg14Al1Co1
Mg14AlZn,mp-1028199,0.0,2.72220899,0.038362542292708524,"{12: 14, 13: 1, 30: 1}","[12, 13, 30]",1214131301,Mg14Al1Zn1
Mg14AlGa,mp-1028222,0.0,2.87506851,0.02747606138020875,"{12: 14, 13: 1, 31: 1}","[12, 13, 31]",1214131311,Mg14Al1Ga1
RbMg14Al,mp-1028262,0.0,3.06511066,0.16758019684895875,"{37: 1, 12: 14, 13: 1}","[12, 13, 37]",1214131371,Rb1Mg14Al1
SrMg14Al,mp-1028257,0.0,3.34796358,0.09093201499999992,"{38: 1, 12: 14, 13: 1}","[12, 13, 38]",1214131381,Sr1Mg14Al1
Mg14ZrAl,mp-1028216,0.0,3.64776781,0.0872686561979168,"{12: 14, 40: 1, 13: 1}","[12, 13, 40]",1214131401,Mg14Zr1Al1
Mg14NbAl,mp-1028254,0.0,3.84338537,0.12443299090000037,"{12: 14, 41: 1, 13: 1}","[12, 13, 41]",1214131411,Mg14Nb1Al1
Mg14AlMo,mp-1028241,0.0,2.94983167,0.15557976501488113,"{12: 14, 13: 1, 42: 1}","[12, 13, 42]",1214131421,Mg14Al1Mo1
Mg14AlCd,mp-1028221,0.0,2.78270397,0.027533483880208598,"{12: 14, 13: 1, 48: 1}","[12, 13, 48]",1214131481,Mg14Al1Cd1
Mg14AlSn,mp-1028255,0.0,3.29720917,0.030474892942708554,"{12: 14, 13: 1, 50: 1}","[12, 13, 50]",1214131501,Mg14Al1Sn1
Mg14AlSb,mp-1028232,0.0,3.27038237,0.05676262532552134,"{12: 14, 13: 1, 51: 1}","[12, 13, 51]",1214131511,Mg14Al1Sb1
CsMg14Al,mp-1028285,0.0,3.22701027,0.2055829929642603,"{55: 1, 12: 14, 13: 1}","[12, 13, 55]",1214131551,Cs1Mg14Al1
LaMg14Al,mp-1028385,0.0,3.81183171,0.0831599617187504,"{57: 1, 12: 14, 13: 1}","[12, 13, 57]",1214131571,La1Mg14Al1
CeMg14Al,mp-1028332,0.0,3.97926259,0.0879951575000002,"{58: 1, 12: 14, 13: 1}","[12, 13, 58]",1214131581,Ce1Mg14Al1
HfMg14Al,mp-1028159,0.0,3.76799682,0.10210955756249973,"{72: 1, 12: 14, 13: 1}","[12, 13, 72]",1214131721,Hf1Mg14Al1
Mg14AlW,mp-1028226,0.0,3.97616657,0.17304952062500023,"{12: 14, 13: 1, 74: 1}","[12, 13, 74]",1214131741,Mg14Al1W1
Mg14AlBi,mp-1028236,0.0,3.1700246,0.048194209661458265,"{12: 14, 13: 1, 83: 1}","[12, 13, 83]",1214131831,Mg14Al1Bi1
Mg149Al,mp-1185596,0.49839999999999973,3.39049832,0.0029045316138891497,"{12: 149, 13: 1}","[12, 13]",12149131,Mg149Al1
Mg15Al,mp-1023506,0.0,3.49731288,0.04116723950520851,"{12: 15, 13: 1}","[12, 13]",1215131,Mg15Al1
Mg16Al12Si,mp-1185706,0.0,5.24805057,0.036714516551723975,"{12: 16, 13: 12, 14: 1}","[12, 13, 14]",12161312141,Mg16Al12Si1