formula,material_id,band_gap,efermi,energy_above_hull,comp_atoms,sorted_keys_comp_atoms,comp_number,new_formula
NaAlSi2H2O7,mp-676991,5.2234,-0.06540505,0.038801130160265096,"{11: 1, 13: 1, 14: 2, 1: 2, 8: 7}","[1, 8, 11, 13, 14]",1287111131142,Na1Al1Si2H2O7
NaAlCr2(HO4)2,mp-1210245,2.2186,1.31717494,0.7039829421428472,"{11: 1, 13: 1, 24: 2, 1: 2, 8: 8}","[1, 8, 11, 13, 24]",1288111131242,Na1Al1Cr2H2O8
RbAlP2(HO4)2,mp-1199312,5.3382000000000005,6.34745224,0.013109270714291021,"{37: 1, 13: 1, 15: 2, 1: 2, 8: 8}","[1, 8, 13, 15, 37]",1288131152371,Rb1Al1P2H2O8
KAlCr2(HO4)2,mp-1211751,1.2993,-1.32670612,0.6818345871428813,"{19: 1, 13: 1, 24: 2, 1: 2, 8: 8}","[1, 8, 13, 19, 24]",1288131191242,K1Al1Cr2H2O8
AlP2H2O9,mp-1198052,0.0,0.1729956,0.2390775065079529,"{13: 1, 15: 2, 1: 2, 8: 9}","[1, 8, 13, 15]",1289131152,Al1P2H2O9
Al3PH29(SO14)2,mp-1200028,0.06169999999999998,-0.68778781,0.02864739431697938,"{13: 3, 15: 1, 1: 29, 16: 2, 8: 28}","[1, 8, 13, 15, 16]",129828133151162,Al3P1H29S2O28
Al2H30Se3O28,mp-1229318,1.0604999999999998,-0.61368637,0.015858512460316554,"{13: 2, 1: 30, 34: 3, 8: 28}","[1, 8, 13, 34]",130828132343,Al2H30Se3O28
Ca(Al5Cr)2,mp-18142,0.0,7.10062407,0.0012491638111828962,"{20: 1, 13: 10, 24: 2}","[13, 20, 24]",1310201242,Ca1Al10Cr2
Al10V,mp-16722,0.0,7.21364171,0.023455367500000435,"{13: 10, 23: 1}","[13, 23]",1310231,Al10V1
Mn3Al10,mp-16511,0.0,7.89003889,0.009341258520708884,"{25: 3, 13: 10}","[13, 25]",1310253,Mn3Al10
Ce2Mn7Al10,mp-1227019,0.0,7.43120414,0.023142428529947523,"{58: 2, 25: 7, 13: 10}","[13, 25, 58]",1310257582,Ce2Mn7Al10
Zr4Al11Si,mp-1215382,0.0,7.33058873,0.020225792187499536,"{40: 4, 13: 11, 14: 1}","[13, 14, 40]",1311141404,Zr4Al11Si1
Ca6MnAl11,mp-1227750,0.0,5.25620285,0.01597873168803421,"{20: 6, 25: 1, 13: 11}","[13, 20, 25]",1311206251,Ca6Mn1Al11
Ti4Al11Zn,mp-1217109,0.0,7.49386819,0.013886058125000211,"{22: 4, 13: 11, 30: 1}","[13, 22, 30]",1311224301,Ti4Al11Zn1
Ti5Al11,mp-1217111,0.0,7.73662189,0.015042714999999873,"{22: 5, 13: 11}","[13, 22]",1311225,Ti5Al11
Al11Cr4,mp-1214894,0.0,7.51550043,0.002587619200001612,"{13: 11, 24: 4}","[13, 24]",1311244,Al11Cr4
AlSi,mp-1021666,0.0,8.46692463,0.30320785999999966,"{13: 1, 14: 1}","[13, 14]",131141,Al1Si1
AlSiP3,mp-5168,0.28859999999999975,7.00545044,0.007223912499998875,"{13: 1, 14: 1, 15: 3}","[13, 14, 15]",131141153,Al1Si1P3
AlCr3SiMo3,mp-1228924,0.0,8.39244696,0.07492305750000838,"{13: 1, 24: 3, 14: 1, 42: 3}","[13, 14, 24, 42]",131141243423,Al1Cr3Si1Mo3
AlCr6Si,mp-1228922,0.0,7.91966274,0.08856914500000101,"{13: 1, 24: 6, 14: 1}","[13, 14, 24]",131141246,Al1Cr6Si1
AlCo2Si,mp-1015811,0.0,6.78052998,1.0634468481250003,"{13: 1, 27: 2, 14: 1}","[13, 14, 27]",131141272,Al1Co2Si1
Zr2AlSi,mp-1215490,0.0,5.95322947,0.02305394562499785,"{40: 2, 13: 1, 14: 1}","[13, 14, 40]",131141402,Zr2Al1Si1
Nb6AlSi,mp-1220347,0.0,5.87244949,0.08147764220833764,"{41: 6, 13: 1, 14: 1}","[13, 14, 41]",131141416,Nb6Al1Si1
AlSiMo,mp-1228015,0.0,9.01263479,0.01130369051587543,"{13: 1, 14: 1, 42: 1}","[13, 14, 42]",131141421,Al1Si1Mo1
AlSiTc2,mp-1095930,0.0,-2.71328188,3.4344120128188766,"{13: 1, 14: 1, 43: 2}","[13, 14, 43]",131141432,Al1Si1Tc2
Nb6Al11Ir,mp-1210041,0.0,7.57157324,0.0523411046555573,"{41: 6, 13: 11, 77: 1}","[13, 41, 77]",1311416771,Nb6Al11Ir1
Er2AlSi,mp-1225062,0.0,4.60696821,0.0036854990624988204,"{68: 2, 13: 1, 14: 1}","[13, 14, 68]",131141682,Er2Al1Si1
Hf2AlSi,mp-1223834,0.0,6.44154138,0.04504449937499544,"{72: 2, 13: 1, 14: 1}","[13, 14, 72]",131141722,Hf2Al1Si1
Hf4AlSi,mp-1224329,0.0,5.53061435,0.010332941388888628,"{72: 4, 13: 1, 14: 1}","[13, 14, 72]",131141724,Hf4Al1Si1
TaAlSi,mp-1217966,0.0,7.43706958,0.0854050236507895,"{73: 1, 13: 1, 14: 1}","[13, 14, 73]",131141731,Ta1Al1Si1
AlSiPt6,mp-1228017,0.0,8.42254669,0.1013227165625068,"{13: 1, 14: 1, 78: 6}","[13, 14, 78]",131141786,Al1Si1Pt6
KAlSi2,mp-1180795,0.041400000000000325,4.80486095,0.0693737081250001,"{19: 1, 13: 1, 14: 2}","[13, 14, 19]",131142191,K1Al1Si2
CeAlSi2,mp-9400,0.0,7.81897148,0.011761306249999492,"{58: 1, 13: 1, 14: 2}","[13, 14, 58]",131142581,Ce1Al1Si2
NdAlSi2,mp-1207200,0.0,6.21092432,0.033605185000002535,"{60: 1, 13: 1, 14: 2}","[13, 14, 60]",131142601,Nd1Al1Si2
Al(V4Si)3,mp-1229062,0.0,7.0823039,0.005135436875001176,"{13: 1, 23: 12, 14: 3}","[13, 14, 23]",1311432312,Al1V12Si3
Er4AlSi3,mp-1225555,0.0,5.42205872,0.31361272765624904,"{68: 4, 13: 1, 14: 3}","[13, 14, 68]",131143684,Er4Al1Si3
Ce2Al11Pd3,mp-1226920,0.0,6.71567384,0.0284258940234281,"{58: 2, 13: 11, 46: 3}","[13, 46, 58]",1311463582,Ce2Al11Pd3
AlP2,mp-1182873,0.0,6.47203174,0.4374912280555545,"{13: 1, 15: 2}","[13, 15]",131152,Al1P2
Al(PS3)2,mp-1229103,0.0,2.29501615,0.10902711204861681,"{13: 1, 15: 2, 16: 6}","[13, 15, 16]",131152166,Al1P2S6
AlGaP2,mp-1228888,1.6344000000000003,4.07928754,0.003371720000000522,"{13: 1, 31: 1, 15: 2}","[13, 15, 31]",131152311,Al1Ga1P2
Pr3Al11,mp-1103785,0.0,6.37481908,0.010916870357142727,"{59: 3, 13: 11}","[13, 59]",1311593,Pr3Al11
Nd3Al11,mp-1104100,0.0,6.38953252,0.012167140000000742,"{60: 3, 13: 11}","[13, 60]",1311603,Nd3Al11
AlSBr3,mp-1079481,0.14789999999999992,-1.38478321,0.36106001287500256,"{13: 1, 16: 1, 35: 3}","[13, 16, 35]",131161353,Al1S1Br3
Sm3Al11,mp-1104395,0.0,6.34240884,0.0186152617857136,"{62: 3, 13: 11}","[13, 62]",1311623,Sm3Al11
Al(MoS2)12,mp-1264535,0.0,5.66323859,0.1826226576126082,"{13: 1, 42: 12, 16: 24}","[13, 16, 42]",13116244212,Al1Mo12S24
Mn2AlS4,mp-1045487,0.0,5.7068894,0.08533486428571369,"{25: 2, 13: 1, 16: 4}","[13, 16, 25]",131164252,Mn2Al1S4
Al(CoS2)2,mp-1045348,0.0,6.55263889,0.10434123586309418,"{13: 1, 27: 2, 16: 4}","[13, 16, 27]",131164272,Al1Co2S4
AlZnGaS4,mp-1228824,2.7802000000000002,4.95545876,0.0037747589285803684,"{13: 1, 30: 1, 31: 1, 16: 4}","[13, 16, 30, 31]",131164301311,Al1Zn1Ga1S4
AlIn(AgS2)2,mp-1228935,1.0686,2.92515755,0.0019914012499988587,"{13: 1, 49: 1, 47: 2, 16: 4}","[13, 16, 47, 49]",131164472491,Al1In1Ag2S4
AlCdInS4,mp-1228978,0.7454999999999998,3.42698853,0.09938785964285657,"{13: 1, 48: 1, 49: 1, 16: 4}","[13, 16, 48, 49]",131164481491,Al1Cd1In1S4
Al(Ag3S2)3,mp-675325,0.7057,2.0003718,0.05454144593749888,"{13: 1, 47: 9, 16: 6}","[13, 16, 47]",131166479,Al1Ag9S6
La3TiAlS7,mp-1191294,0.0,7.1782865,0.021316011750003305,"{57: 3, 22: 1, 13: 1, 16: 7}","[13, 16, 22, 57]",131167221573,La3Ti1Al1S7
Ce3TiAlS7,mp-1193048,0.0,6.92274657,0.002776286874993872,"{58: 3, 22: 1, 13: 1, 16: 7}","[13, 16, 22, 58]",131167221583,Ce3Ti1Al1S7
La3AlVS7,mp-867967,0.0,7.43599664,0.0009964495624874559,"{57: 3, 13: 1, 23: 1, 16: 7}","[13, 16, 23, 57]",131167231573,La3Al1V1S7
Ce3AlVS7,mp-1192994,0.0,6.94863724,0.029664505303571786,"{58: 3, 13: 1, 23: 1, 16: 7}","[13, 16, 23, 58]",131167231583,Ce3Al1V1S7
Gd3AlVS7,mp-1192190,0.0,5.64029408,0.08644546134524056,"{64: 3, 13: 1, 23: 1, 16: 7}","[13, 16, 23, 64]",131167231643,Gd3Al1V1S7
La3AlCrS7,mp-861904,0.04010000000000069,7.03529161,0.0037328343888907156,"{57: 3, 13: 1, 24: 1, 16: 7}","[13, 16, 24, 57]",131167241573,La3Al1Cr1S7
Ce3AlCrS7,mp-866516,0.0,6.93930514,0.04362450381944072,"{58: 3, 13: 1, 24: 1, 16: 7}","[13, 16, 24, 58]",131167241583,Ce3Al1Cr1S7
Ce3MnAlS7,mp-866500,0.0,7.38876731,0.7774152151136269,"{58: 3, 25: 1, 13: 1, 16: 7}","[13, 16, 25, 58]",131167251583,Ce3Mn1Al1S7
Gd3MnAlS7,mp-1191013,0.27939999999999987,4.76613667,0.09155691291666557,"{64: 3, 25: 1, 13: 1, 16: 7}","[13, 16, 25, 64]",131167251643,Gd3Mn1Al1S7
Dy3MnAlS7,mp-1191235,0.0,5.3339836,0.05361132645833244,"{66: 3, 25: 1, 13: 1, 16: 7}","[13, 16, 25, 66]",131167251663,Dy3Mn1Al1S7
La3AlCoS7,mp-1191125,0.0,6.5170002,0.04597399553472137,"{57: 3, 13: 1, 27: 1, 16: 7}","[13, 16, 27, 57]",131167271573,La3Al1Co1S7
Pr3AlCoS7,mp-1190786,0.0,5.02629184,0.0507635611180568,"{59: 3, 13: 1, 27: 1, 16: 7}","[13, 16, 27, 59]",131167271593,Pr3Al1Co1S7
Nd3AlCoS7,mp-1190730,0.0,5.16263774,0.05198340449305583,"{60: 3, 13: 1, 27: 1, 16: 7}","[13, 16, 27, 60]",131167271603,Nd3Al1Co1S7
Sm3AlCoS7,mp-1191886,0.0,5.14106371,0.04510385965972219,"{62: 3, 13: 1, 27: 1, 16: 7}","[13, 16, 27, 62]",131167271623,Sm3Al1Co1S7
Dy3AlCoS7,mp-1191595,0.0,5.31252456,0.04480980378472399,"{66: 3, 13: 1, 27: 1, 16: 7}","[13, 16, 27, 66]",131167271663,Dy3Al1Co1S7
La3AlZnS7,mp-1191872,2.1898,5.28817405,0.03330616841666689,"{57: 3, 13: 1, 30: 1, 16: 7}","[13, 16, 30, 57]",131167301573,La3Al1Zn1S7
Ce3AlZnS7,mp-1192897,0.0,6.4334922,0.05583752229165295,"{58: 3, 13: 1, 30: 1, 16: 7}","[13, 16, 30, 58]",131167301583,Ce3Al1Zn1S7
Gd3AlZnS7,mp-1192219,1.3672999999999997,3.65308402,0.0391760740922642,"{64: 3, 13: 1, 30: 1, 16: 7}","[13, 16, 30, 64]",131167301643,Gd3Al1Zn1S7
La3AlCdS7,mp-1191443,2.1917,5.11636183,0.02688468091666607,"{57: 3, 13: 1, 48: 1, 16: 7}","[13, 16, 48, 57]",131167481573,La3Al1Cd1S7
Ce3AlCdS7,mp-1191432,0.04669999999999952,6.55701188,0.04865680020832386,"{58: 3, 13: 1, 48: 1, 16: 7}","[13, 16, 48, 58]",131167481583,Ce3Al1Cd1S7
Gd3AlCdS7,mp-1192574,1.4117000000000002,5.0002932,0.043722142604170955,"{64: 3, 13: 1, 48: 1, 16: 7}","[13, 16, 48, 64]",131167481643,Gd3Al1Cd1S7
Al(VS2)4,mp-1103718,0.0,5.37624556,0.006691719230768278,"{13: 1, 23: 4, 16: 8}","[13, 16, 23]",131168234,Al1V4S8
Al(MoS2)4,mp-554868,0.11040000000000028,6.13114471,0.025277966282050812,"{13: 1, 42: 4, 16: 8}","[13, 16, 42]",131168424,Al1Mo4S8
AlGaCl4,mp-541111,4.2234,-0.77765319,0.0047924834374963865,"{13: 1, 31: 1, 17: 4}","[13, 17, 31]",131174311,Al1Ga1Cl4
AlBi2Se2BrCl4,mp-1190020,1.1162,1.51072587,0.007395653083343667,"{13: 1, 83: 2, 34: 2, 35: 1, 17: 4}","[13, 17, 34, 35, 83]",131174342351832,Al1Bi2Se2Br1Cl4
AlSb5Se5Cl4,mp-1192837,1.3956,3.41481973,0.00039838183333529287,"{13: 1, 51: 5, 34: 5, 17: 4}","[13, 17, 34, 51]",131174345515,Al1Sb5Se5Cl4
AlBi2Te2BrCl4,mp-1200931,0.8872,2.12742618,0.017619073000000096,"{13: 1, 83: 2, 52: 2, 35: 1, 17: 4}","[13, 17, 35, 52, 83]",131174351522832,Al1Bi2Te2Br1Cl4
AlHg2SbCl4,mp-568001,0.8372,-0.00694577,0.0,"{13: 1, 80: 2, 51: 1, 17: 4}","[13, 17, 51, 80]",131174511802,Al1Hg2Sb1Cl4
KRb2AlCl6,mp-1113984,4.6491,-0.73161662,0.04943984300000048,"{19: 1, 37: 2, 13: 1, 17: 6}","[13, 17, 19, 37]",131176191372,K1Rb2Al1Cl6
Cs2KAlCl6,mp-1113059,4.6198,-0.41515936,0.03329982774999607,"{55: 2, 19: 1, 13: 1, 17: 6}","[13, 17, 19, 55]",131176191552,Cs2K1Al1Cl6
K2RbAlCl6,mp-1111613,4.487,-0.95381675,0.11005393599999991,"{19: 2, 37: 1, 13: 1, 17: 6}","[13, 17, 19, 37]",131176192371,K2Rb1Al1Cl6
K2AlInCl6,mp-1112189,2.9257999999999997,0.78133333,0.06782075050000191,"{19: 2, 13: 1, 49: 1, 17: 6}","[13, 17, 19, 49]",131176192491,K2Al1In1Cl6
CsK2AlCl6,mp-1112327,4.3064,-1.01716754,0.15502657274999976,"{55: 1, 19: 2, 13: 1, 17: 6}","[13, 17, 19, 55]",131176192551,Cs1K2Al1Cl6
K2AlAuCl6,mp-1112440,0.8600000000000001,0.95509116,0.10397098366666668,"{19: 2, 13: 1, 79: 1, 17: 6}","[13, 17, 19, 79]",131176192791,K2Al1Au1Cl6
K2AlHgCl6,mp-1112210,0.0,1.28674736,0.1065933876250007,"{19: 2, 13: 1, 80: 1, 17: 6}","[13, 17, 19, 80]",131176192801,K2Al1Hg1Cl6
K2AlTlCl6,mp-1111590,3.8301000000000003,-0.10612403,0.0812469700000027,"{19: 2, 13: 1, 81: 1, 17: 6}","[13, 17, 19, 81]",131176192811,K2Al1Tl1Cl6
K3AlCl6,mp-1111502,4.6098,-0.80010666,0.014556288499999681,"{19: 3, 13: 1, 17: 6}","[13, 17, 19]",131176193,K3Al1Cl6
Cs2RbAlCl6,mp-1112525,4.6551,-0.54871817,0.043914107750000486,"{55: 2, 37: 1, 13: 1, 17: 6}","[13, 17, 37, 55]",131176371552,Cs2Rb1Al1Cl6
Rb2AlAgCl6,mp-1111472,2.4448,0.19271617,0.05251036662500441,"{37: 2, 13: 1, 47: 1, 17: 6}","[13, 17, 37, 47]",131176372471,Rb2Al1Ag1Cl6
Rb2AlInCl6,mp-1114076,2.9942,0.73610345,0.06049022631249956,"{37: 2, 13: 1, 49: 1, 17: 6}","[13, 17, 37, 49]",131176372491,Rb2Al1In1Cl6
CsRb2AlCl6,mp-1111710,4.4662,-0.91723779,0.10592140475000056,"{55: 1, 37: 2, 13: 1, 17: 6}","[13, 17, 37, 55]",131176372551,Cs1Rb2Al1Cl6
Rb2AlAuCl6,mp-1111467,0.8409,0.94140096,0.15640121559999853,"{37: 2, 13: 1, 79: 1, 17: 6}","[13, 17, 37, 79]",131176372791,Rb2Al1Au1Cl6
Rb2AlHgCl6,mp-1113345,0.0,1.24079762,0.13644357499999993,"{37: 2, 13: 1, 80: 1, 17: 6}","[13, 17, 37, 80]",131176372801,Rb2Al1Hg1Cl6
Rb2AlTlCl6,mp-1114008,3.8790999999999998,-0.12207265,0.06253763349999986,"{37: 2, 13: 1, 81: 1, 17: 6}","[13, 17, 37, 81]",131176372811,Rb2Al1Tl1Cl6
Rb3AlCl6,mp-1113999,4.5619000000000005,-0.88317498,0.06512264900000009,"{37: 3, 13: 1, 17: 6}","[13, 17, 37]",131176373,Rb3Al1Cl6
Cs2AlAgCl6,mp-1113621,2.4585000000000004,0.34597333,0.06154116575000046,"{55: 2, 13: 1, 47: 1, 17: 6}","[13, 17, 47, 55]",131176471552,Cs2Al1Ag1Cl6
Cs2AlInCl6,mp-1113280,3.1183,0.83241131,0.04639182549999887,"{55: 2, 13: 1, 49: 1, 17: 6}","[13, 17, 49, 55]",131176491552,Cs2Al1In1Cl6
Cs2AlAuCl6,mp-1113220,0.8686,1.08200156,0.16604793475001145,"{55: 2, 13: 1, 79: 1, 17: 6}","[13, 17, 55, 79]",131176552791,Cs2Al1Au1Cl6
Cs2AlHgCl6,mp-1112616,0.0,1.32808642,0.12655245775000035,"{55: 2, 13: 1, 80: 1, 17: 6}","[13, 17, 55, 80]",131176552801,Cs2Al1Hg1Cl6
Cs2AlTlCl6,mp-1112505,3.9209,0.06347519,0.043439865249999876,"{55: 2, 13: 1, 81: 1, 17: 6}","[13, 17, 55, 81]",131176552811,Cs2Al1Tl1Cl6
Cs3AlCl6,mp-1113233,4.6735,-0.58763148,0.05973538775000087,"{55: 3, 13: 1, 17: 6}","[13, 17, 55]",131176553,Cs3Al1Cl6
NbAlCl8,mp-28358,2.0128,-1.73449448,0.005422443833348112,"{41: 1, 13: 1, 17: 8}","[13, 17, 41]",131178411,Nb1Al1Cl8
KRb2AlBr6,mp-1114046,3.283,-0.75425252,0.07475058699999915,"{19: 1, 37: 2, 13: 1, 35: 6}","[13, 19, 35, 37]",131191356372,K1Rb2Al1Br6
Cs2KAlBr6,mp-1113061,3.2314,-0.47454226,0.05688998399999079,"{55: 2, 19: 1, 13: 1, 35: 6}","[13, 19, 35, 55]",131191356552,Cs2K1Al1Br6
KRb2AlI6,mp-1114183,1.7559,0.6275,0.07946557275000021,"{19: 1, 37: 2, 13: 1, 53: 6}","[13, 19, 37, 53]",131191372536,K1Rb2Al1I6
Cs2KAlI6,mp-1113057,1.7447,0.8275,0.04319574275000093,"{55: 2, 19: 1, 13: 1, 53: 6}","[13, 19, 53, 55]",131191536552,Cs2K1Al1I6
K2RbAlBr6,mp-1111617,3.3626,-0.96340415,0.13075382799999957,"{19: 2, 37: 1, 13: 1, 35: 6}","[13, 19, 35, 37]",131192356371,K2Rb1Al1Br6
K2AlAgBr6,mp-1112104,1.4617,-0.12865348,0.09663966625000775,"{19: 2, 13: 1, 47: 1, 35: 6}","[13, 19, 35, 47]",131192356471,K2Al1Ag1Br6
K2AlInBr6,mp-1112191,1.7719,0.74852916,0.1029215462500006,"{19: 2, 13: 1, 49: 1, 35: 6}","[13, 19, 35, 49]",131192356491,K2Al1In1Br6
CsK2AlBr6,mp-1112328,3.2978,-0.99006817,0.17032709700000304,"{55: 1, 19: 2, 13: 1, 35: 6}","[13, 19, 35, 55]",131192356551,Cs1K2Al1Br6
K2AlAuBr6,mp-1111999,0.0,0.57954267,0.16975772215001328,"{19: 2, 13: 1, 79: 1, 35: 6}","[13, 19, 35, 79]",131192356791,K2Al1Au1Br6
K2AlHgBr6,mp-1112211,0.0,0.82354814,0.1543515697499993,"{19: 2, 13: 1, 80: 1, 35: 6}","[13, 19, 35, 80]",131192356801,K2Al1Hg1Br6
K2AlTlBr6,mp-1111591,2.8488,-0.33616444,0.11119065874999823,"{19: 2, 13: 1, 81: 1, 35: 6}","[13, 19, 35, 81]",131192356811,K2Al1Tl1Br6
K2RbAlI6,mp-1111610,1.9161000000000001,0.39416667,0.13004110575000105,"{19: 2, 37: 1, 13: 1, 53: 6}","[13, 19, 37, 53]",131192371536,K2Rb1Al1I6
K2AlInI6,mp-1112023,0.8125,1.79338542,0.11378904125,"{19: 2, 13: 1, 49: 1, 53: 6}","[13, 19, 49, 53]",131192491536,K2Al1In1I6
CsK2AlI6,mp-1112057,2.1419,0.25510901,0.14708670175000016,"{55: 1, 19: 2, 13: 1, 53: 6}","[13, 19, 53, 55]",131192536551,Cs1K2Al1I6
K2AlAuI6,mp-1112438,0.0,1.93682489,0.14916680599999887,"{19: 2, 13: 1, 79: 1, 53: 6}","[13, 19, 53, 79]",131192536791,K2Al1Au1I6
K2AlTlI6,mp-1111199,1.5653000000000001,0.98010417,0.1330497984999992,"{19: 2, 13: 1, 81: 1, 53: 6}","[13, 19, 53, 81]",131192536811,K2Al1Tl1I6
K3Al,mp-1184882,0.0,0.86574911,0.30760282525000004,"{19: 3, 13: 1}","[13, 19]",131193,K3Al1
K3AlBr6,mp-1111185,3.3167999999999997,-0.79264734,0.10756640124999883,"{19: 3, 13: 1, 35: 6}","[13, 19, 35]",131193356,K3Al1Br6
K3AlI6,mp-1110930,1.7713,0.62708333,0.11730286874999996,"{19: 3, 13: 1, 53: 6}","[13, 19, 53]",131193536,K3Al1I6
CaAlGa,mp-1226821,0.0,4.5362208,0.008254888333341981,"{20: 1, 13: 1, 31: 1}","[13, 20, 31]",131201311,Ca1Al1Ga1
Ca2AlZn,mp-1093539,0.0,-2.13688276,1.6996658550000001,"{20: 2, 13: 1, 30: 1}","[13, 20, 30]",131202301,Ca2Al1Zn1
Ca2AlCd,mp-1095982,0.0,-2.21651859,1.661391390673077,"{20: 2, 13: 1, 48: 1}","[13, 20, 48]",131202481,Ca2Al1Cd1
Ca2AlTl,mp-1093659,0.0,-2.4434459,1.819379585673076,"{20: 2, 13: 1, 81: 1}","[13, 20, 81]",131202811,Ca2Al1Tl1
Ca3AlCd17,mp-680394,0.0,2.76780671,0.0042443624603181185,"{20: 3, 13: 1, 48: 17}","[13, 20, 48]",1312034817,Ca3Al1Cd17
Ca4Al,mp-1214044,0.0,1.53923204,0.4535257993333346,"{20: 4, 13: 1}","[13, 20]",131204,Ca4Al1
Ca4AlZn43,mp-1227673,0.0,3.30950618,0.0010466711742473933,"{20: 4, 13: 1, 30: 43}","[13, 20, 30]",1312043043,Ca4Al1Zn43
ScAlCo,mp-1219393,0.0,5.89193236,0.010345527499998397,"{21: 1, 13: 1, 27: 1}","[13, 21, 27]",131211271,Sc1Al1Co1
ScAlRu2,mp-1093884,0.0,-3.45705961,3.2820270225000003,"{21: 1, 13: 1, 44: 2}","[13, 21, 44]",131211442,Sc1Al1Ru2
ScAlPt2,mp-973153,0.0,7.21857902,0.019959054374998786,"{21: 1, 13: 1, 78: 2}","[13, 21, 78]",131211782,Sc1Al1Pt2
Sc2AlCo3,mp-1219430,0.0,5.61087738,0.03972760666666453,"{21: 2, 13: 1, 27: 3}","[13, 21, 27]",131212273,Sc2Al1Co3
Sc2AlGa,mp-1097118,0.1660999999999997,-2.31367569,2.7376719128125,"{21: 2, 13: 1, 31: 1}","[13, 21, 31]",131212311,Sc2Al1Ga1
Sc2AlRu,mp-862546,0.0,6.05142909,0.018248340357143178,"{21: 2, 13: 1, 44: 1}","[13, 21, 44]",131212441,Sc2Al1Ru1
Sc2AlPd,mp-1096101,0.1328999999999998,-2.45319159,2.6772871825000006,"{21: 2, 13: 1, 46: 1}","[13, 21, 46]",131212461,Sc2Al1Pd1
Sc2AlCd,mp-972914,0.0,4.5103182,0.007978842500001804,"{21: 2, 13: 1, 48: 1}","[13, 21, 48]",131212481,Sc2Al1Cd1
Sc2AlIn,mp-1093717,0.16290000000000004,-2.28478683,2.6482977549999998,"{21: 2, 13: 1, 49: 1}","[13, 21, 49]",131212491,Sc2Al1In1
Sc2AlIr,mp-972877,0.0,6.47056713,0.029382904668803,"{21: 2, 13: 1, 77: 1}","[13, 21, 77]",131212771,Sc2Al1Ir1
Sc2AlPt,mp-1097325,0.0,-2.27031082,2.7238622756250006,"{21: 2, 13: 1, 78: 1}","[13, 21, 78]",131212781,Sc2Al1Pt1
Sc2AlAu,mp-1097575,0.0,-2.35985373,2.5737512831249987,"{21: 2, 13: 1, 79: 1}","[13, 21, 79]",131212791,Sc2Al1Au1
Sc2AlHg,mp-1093712,0.0,-2.22518161,2.4658475200000005,"{21: 2, 13: 1, 80: 1}","[13, 21, 80]",131212801,Sc2Al1Hg1
Sc2AlTl,mp-1097583,0.0,-2.45955495,2.4568390836111114,"{21: 2, 13: 1, 81: 1}","[13, 21, 81]",131212811,Sc2Al1Tl1
Sc4Al,mp-1209129,0.0,2.99032085,0.7359140610000008,"{21: 4, 13: 1}","[13, 21]",131214,Sc4Al1
Al12ZnS19,mp-1096823,0.06729999999999947,5.36069714,0.16354151713541754,"{13: 12, 30: 1, 16: 19}","[13, 16, 30]",13121619301,Al12Zn1S19
TiAlV2,mp-1217032,0.0,6.682417,0.12122632499999852,"{22: 1, 13: 1, 23: 2}","[13, 22, 23]",131221232,Ti1Al1V2
TiAlCr,mp-1217088,0.0,6.70845202,0.09133075916666833,"{22: 1, 13: 1, 24: 1}","[13, 22, 24]",131221241,Ti1Al1Cr1
TiMnAl,mp-1216913,0.0,6.77213907,0.056383866666667615,"{22: 1, 25: 1, 13: 1}","[13, 22, 25]",131221251,Ti1Mn1Al1
Zr2TiAl,mp-1064892,0.0,5.13854211,0.13437718666666498,"{40: 2, 22: 1, 13: 1}","[13, 22, 40]",131221402,Zr2Ti1Al1
TiAlTc2,mp-1097502,0.0,-2.85682875,3.6680177391666646,"{22: 1, 13: 1, 43: 2}","[13, 22, 43]",131221432,Ti1Al1Tc2
TaTiAl,mp-631484,0.0,4.33023827,1.0960068776666638,"{73: 1, 22: 1, 13: 1}","[13, 22, 73]",131221731,Ta1Ti1Al1
TiAlIr2,mp-1187464,0.0,9.45011534,0.0005003100000031679,"{22: 1, 13: 1, 77: 2}","[13, 22, 77]",131221772,Ti1Al1Ir2
TiAlAu2,mp-16482,0.0,7.05120254,0.02832234666666622,"{22: 1, 13: 1, 79: 2}","[13, 22, 79]",131221792,Ti1Al1Au2
Ti2Al,mp-1008753,0.0,4.37093904,0.8942426866666668,"{22: 2, 13: 1}","[13, 22]",131222,Ti2Al1
Ti2AlV,mp-999068,0.0,6.31116199,0.13579123249999903,"{22: 2, 13: 1, 23: 1}","[13, 22, 23]",131222231,Ti2Al1V1
Ti2AlCr,mp-1217087,0.0,6.82442152,0.05139959812500017,"{22: 2, 13: 1, 24: 1}","[13, 22, 24]",131222241,Ti2Al1Cr1
Ti2MnAl,mp-999052,0.05109999999999992,6.55356653,0.07675921665000018,"{22: 2, 25: 1, 13: 1}","[13, 22, 25]",131222251,Ti2Mn1Al1
Ti2AlCo,mp-1064228,0.0,6.76398172,0.196185725374999,"{22: 2, 13: 1, 27: 1}","[13, 22, 27]",131222271,Ti2Al1Co1
Ti2AlZn,mp-999072,0.0,5.81905399,0.2855937949999996,"{22: 2, 13: 1, 30: 1}","[13, 22, 30]",131222301,Ti2Al1Zn1
ZrTi2Al,mp-1215242,0.0,5.66942366,0.04906002708333368,"{40: 1, 22: 2, 13: 1}","[13, 22, 40]",131222401,Zr1Ti2Al1