formula,material_id,band_gap,efermi,energy_above_hull,comp_atoms,sorted_keys_comp_atoms,comp_number,new_formula
CaAl2Si2(WO2)4,mp-1215045,0.052799999999999514,4.64619764,1.2598032850000012,"{20: 1, 13: 2, 14: 2, 74: 4, 8: 8}","[8, 13, 14, 20, 74]",88132142201744,Ca1Al2Si2W4O8
Al2PO8,mp-1204519,0.0043999999999999595,-0.50314083,0.46428851216253353,"{13: 2, 15: 1, 8: 8}","[8, 13, 15]",88132151,Al2P1O8
CaAl2V4O8,mp-1234955,0.31960000000000033,6.77004576,0.3116213175512943,"{20: 1, 13: 2, 23: 4, 8: 8}","[8, 13, 20, 23]",88132201234,Ca1Al2V4O8
Al2Co3GeO8,mp-1229034,0.35219999999999985,5.11461421,0.09489544499999969,"{13: 2, 27: 3, 32: 1, 8: 8}","[8, 13, 27, 32]",88132273321,Al2Co3Ge1O8
Ca2Al3O8,mp-1214131,0.7739,1.58590241,0.09960546040050389,"{20: 2, 13: 3, 8: 8}","[8, 13, 20]",88133202,Ca2Al3O8
EuAl3(PbO4)2,mp-1196233,0.0783999999999998,2.88071034,0.04202267108926527,"{63: 1, 13: 3, 82: 2, 8: 8}","[8, 13, 63, 82]",88133631822,Eu1Al3Pb2O8
Eu2Al3O8,mp-1212582,0.21910000000000007,1.56346053,0.17483525914335551,"{63: 2, 13: 3, 8: 8}","[8, 13, 63]",88133632,Eu2Al3O8
GdAl3(PbO4)2,mp-21706,2.9479,2.68798905,0.003921904698668044,"{64: 1, 13: 3, 82: 2, 8: 8}","[8, 13, 64, 82]",88133641822,Gd1Al3Pb2O8
HoAl3(PbO4)2,mp-8888,2.9941,2.7921972,0.022657103746269946,"{67: 1, 13: 3, 82: 2, 8: 8}","[8, 13, 67, 82]",88133671822,Ho1Al3Pb2O8
LuAl3(PbO4)2,mp-14760,2.9847999999999995,2.84943348,0.038550217139126985,"{71: 1, 13: 3, 82: 2, 8: 8}","[8, 13, 71, 82]",88133711822,Lu1Al3Pb2O8
Al5O8,mp-1182893,0.0,5.11026928,0.13984446025640995,"{13: 5, 8: 8}","[8, 13]",88135,Al5O8
Na27Ca3Al5(P2O7)12,mp-677638,4.7813,1.45988137,0.0022627833449861967,"{11: 27, 20: 3, 13: 5, 15: 24, 8: 84}","[8, 11, 13, 15, 20]",88411271351524203,Na27Ca3Al5P24O84
SrAl2P2(O4F)2,mp-9512,5.4887,2.10640423,0.013361443444440901,"{38: 1, 13: 2, 15: 2, 8: 8, 9: 2}","[8, 9, 13, 15, 38]",8892132152381,Sr1Al2P2O8F2
Sr5CaAl2(O4F)2,mp-1218422,4.369,6.9146178,0.024998226967594128,"{38: 5, 20: 1, 13: 2, 8: 8, 9: 2}","[8, 9, 13, 20, 38]",8892132201385,Sr5Ca1Al2O8F2
Na3Al2P2O8F3,mp-686540,4.8934999999999995,2.24058893,0.002232570543982959,"{11: 3, 13: 2, 15: 2, 8: 8, 9: 3}","[8, 9, 11, 13, 15]",8893113132152,Na3Al2P2O8F3
Ca3Al2S(OF)8,mp-1198254,0.691,0.58092211,0.3486214481955816,"{20: 3, 13: 2, 16: 1, 8: 8, 9: 8}","[8, 9, 13, 16, 20]",8898132161203,Ca3Al2S1O8F8
KNaAl2As2O9,mp-1203514,3.4455,4.56961303,0.0003172220490252897,"{19: 1, 11: 1, 13: 2, 33: 2, 8: 9}","[8, 11, 13, 19, 33]",89111132191332,K1Na1Al2As2O9
Mg2Al2SiO9,mp-1222223,0.0,0.73807264,0.32162048738635995,"{12: 2, 13: 2, 14: 1, 8: 9}","[8, 12, 13, 14]",89122132141,Mg2Al2Si1O9
Ce2AlSi2O9,mp-1202030,0.026399999999999757,4.5194138,0.03554062507936706,"{58: 2, 13: 1, 14: 2, 8: 9}","[8, 13, 14, 58]",89131142582,Ce2Al1Si2O9
KAl(SiO3)3,mp-1223586,0.0,0.79461714,0.17841537874999958,"{19: 1, 13: 1, 14: 3, 8: 9}","[8, 13, 14, 19]",89131143191,K1Al1Si3O9
Ca2AlP2O9,mp-1193850,0.0,2.46481544,0.07774448685605861,"{20: 2, 13: 1, 15: 2, 8: 9}","[8, 13, 15, 20]",89131152202,Ca2Al1P2O9
AlMoP2O9,mp-557607,2.4837999999999996,1.34524324,0.007885741217977582,"{13: 1, 42: 1, 15: 2, 8: 9}","[8, 13, 15, 42]",89131152421,Al1Mo1P2O9
Al(BiO3)3,mp-1262087,0.20909999999999984,2.97543698,0.1118957571503465,"{13: 1, 83: 3, 8: 9}","[8, 13, 83]",89131833,Al1Bi3O9
Al2Si2O9,mp-1103547,0.0,0.14418575,0.35412929205710864,"{13: 2, 14: 2, 8: 9}","[8, 13, 14]",89132142,Al2Si2O9
K2Al2Si2O9,mp-1198051,0.5306000000000001,0.78657313,0.13902873083333134,"{19: 2, 13: 2, 14: 2, 8: 9}","[8, 13, 14, 19]",89132142192,K2Al2Si2O9
Al2Si2Pb2O9,mp-561246,2.7575000000000003,4.78918979,0.01417030490741844,"{13: 2, 14: 2, 82: 2, 8: 9}","[8, 13, 14, 82]",89132142822,Al2Si2Pb2O9
Al2TeSO9,mp-1194492,0.0,1.60269226,0.1991649965268012,"{13: 2, 52: 1, 16: 1, 8: 9}","[8, 13, 16, 52]",89132161521,Al2Te1S1O9
Ce4Al2O9,mp-1096905,0.014199999999999768,7.29269436,0.009562755782045684,"{58: 4, 13: 2, 8: 9}","[8, 13, 58]",89132584,Ce4Al2O9
Eu4Al2O9,mp-582606,0.05730000000000013,2.62896475,1.080398435499987,"{63: 4, 13: 2, 8: 9}","[8, 13, 63]",89132634,Eu4Al2O9
Tb4Al2O9,mp-1200490,4.0883,5.66059703,0.008096631749999972,"{65: 4, 13: 2, 8: 9}","[8, 13, 65]",89132654,Tb4Al2O9
Dy4Al2O9,mp-1212993,4.005599999999999,5.57994399,0.01358656349999876,"{66: 4, 13: 2, 8: 9}","[8, 13, 66]",89132664,Dy4Al2O9
Ho4Al2O9,mp-1212327,3.9658999999999995,5.46693594,0.019374821183332003,"{67: 4, 13: 2, 8: 9}","[8, 13, 67]",89132674,Ho4Al2O9
Tm4Al2O9,mp-1208108,4.5176,6.242946,0.028388556966650214,"{69: 4, 13: 2, 8: 9}","[8, 13, 69]",89132694,Tm4Al2O9
Lu4Al2O9,mp-780420,4.5306,6.22156371,0.03257267574998579,"{71: 4, 13: 2, 8: 9}","[8, 13, 71]",89132714,Lu4Al2O9
Al2(BiO3)3,mp-1248282,0.0,4.53309213,0.15737955587663421,"{13: 2, 83: 3, 8: 9}","[8, 13, 83]",89132833,Al2Bi3O9
La2Al4O9,mp-768382,3.7105999999999995,5.15998403,0.07841745899999886,"{57: 2, 13: 4, 8: 9}","[8, 13, 57]",89134572,La2Al4O9
Eu2Al4O9,mp-771815,0.0,3.18417252,0.13731553466667812,"{63: 2, 13: 4, 8: 9}","[8, 13, 63]",89134632,Eu2Al4O9
Rb14Na3Al17Si31O96,mp-721330,2.0598,1.52442134,0.10317849452639649,"{37: 14, 11: 3, 13: 17, 14: 31, 8: 96}","[8, 11, 13, 14, 37]",896113131714313714,Rb14Na3Al17Si31O96
Rb10Al24Cd7(SiO4)24,mp-707302,2.2832,0.89922101,0.05943746090061808,"{37: 10, 13: 24, 48: 7, 14: 24, 8: 96}","[8, 13, 14, 37, 48]",896132414243710487,Rb10Al24Cd7Si24O96
Al24Tl10Cd7(SiO4)24,mp-697313,2.6653,-1.64313691,0.03238093232664507,"{13: 24, 81: 10, 48: 7, 14: 24, 8: 96}","[8, 13, 14, 48, 81]",896132414244878110,Al24Tl10Cd7Si24O96
Ca2TiAlSi2O9F,mp-1227381,3.2274,2.6545757,0.010597341093749435,"{20: 2, 22: 1, 13: 1, 14: 2, 8: 9, 9: 1}","[8, 9, 13, 14, 20, 22]",8991131142202221,Ca2Ti1Al1Si2O9F1
CaAl2F10,mp-1227363,0.5430999999999999,-2.9993696,0.038733155000004516,"{20: 1, 13: 2, 9: 10}","[9, 13, 20]",910132201,Ca1Al2F10
Mg16Al12F,mp-1185660,0.0,4.78365932,0.08687666310344921,"{12: 16, 13: 12, 9: 1}","[9, 12, 13]",9112161312,Mg16Al12F1
Na2Ca3Al2F14,mp-555730,7.143,-1.55867085,0.008264570396827153,"{11: 2, 20: 3, 13: 2, 9: 14}","[9, 11, 13, 20]",914112132203,Na2Ca3Al2F14
Ti3AlF15,mp-1047451,2.8938,-2.41727736,0.17005954710526439,"{22: 3, 13: 1, 9: 15}","[9, 13, 22]",915131223,Ti3Al1F15
Mn3AlF15,mp-1358927,0.0,-2.62300875,0.21241432355263345,"{25: 3, 13: 1, 9: 15}","[9, 13, 25]",915131253,Mn3Al1F15
AlCo3F15,mp-1041829,0.0,-3.41418215,0.19965532894736704,"{13: 1, 27: 3, 9: 15}","[9, 13, 27]",915131273,Al1Co3F15
AlMo3F15,mp-1041498,1.8206,-0.96036485,0.15584628960525748,"{13: 1, 42: 3, 9: 15}","[9, 13, 42]",915131423,Al1Mo3F15
AlSn3F15,mp-1047454,2.7011000000000003,-1.34159159,0.1407630868421066,"{13: 1, 50: 3, 9: 15}","[9, 13, 50]",915131503,Al1Sn3F15
AlSb3F15,mp-1047485,0.0,-1.25432839,0.16971734677630135,"{13: 1, 51: 3, 9: 15}","[9, 13, 51]",915131513,Al1Sb3F15
Al(WF5)3,mp-1047756,3.003,-1.07400341,0.08778065368421206,"{13: 1, 74: 3, 9: 15}","[9, 13, 74]",915131743,Al1W3F15
AlBi3F15,mp-1047502,0.019799999999999596,-2.15625292,0.11200319578946871,"{13: 1, 83: 3, 9: 15}","[9, 13, 83]",915131833,Al1Bi3F15
Mn3Al2F15,mp-1265053,1.4606999999999999,-1.22017767,0.13854598224999748,"{25: 3, 13: 2, 9: 15}","[9, 13, 25]",915132253,Mn3Al2F15
Rb2Tb3AlF16,mp-559737,0.0,-2.33469539,0.038307484545454074,"{37: 2, 65: 3, 13: 1, 9: 16}","[9, 13, 37, 65]",916131372653,Rb2Tb3Al1F16
Sr5Al2F16,mp-29978,6.9343,-1.43996393,0.0001039863043414968,"{38: 5, 13: 2, 9: 16}","[9, 13, 38]",916132385,Sr5Al2F16
Sr5Al3F19,mp-1208679,6.8557999999999995,-0.94478064,0.018486084629624422,"{38: 5, 13: 3, 9: 19}","[9, 13, 38]",919133385,Sr5Al3F19
Al3Pb5F19,mp-541732,5.137600000000001,1.21031908,0.001477321249996777,"{13: 3, 82: 5, 9: 19}","[9, 13, 82]",919133825,Al3Pb5F19
Sr10Al2ClF25,mp-555507,6.181699999999999,-0.48314975,0.007547992236839995,"{38: 10, 13: 2, 17: 1, 9: 25}","[9, 13, 17, 38]",9251321713810,Sr10Al2Cl1F25
Na3Sr4Al5F26,mp-667386,6.915900000000001,-1.27042417,0.00018034721492021788,"{11: 3, 38: 4, 13: 5, 9: 26}","[9, 11, 13, 38]",926113135384,Na3Sr4Al5F26
Na3U6AlF30,mp-1194950,0.25109999999999966,4.00697895,0.25702193149999886,"{11: 3, 92: 6, 13: 1, 9: 30}","[9, 11, 13, 92]",930113131926,Na3U6Al1F30
Na2Sr7Al6F34,mp-555865,6.9463,-0.88644989,0.0011793751020361398,"{11: 2, 38: 7, 13: 6, 9: 34}","[9, 11, 13, 38]",934112136387,Na2Sr7Al6F34
NaAlF4,mp-1102077,6.6773,-1.13808158,0.0023603920000061507,"{11: 1, 13: 1, 9: 4}","[9, 11, 13]",94111131,Na1Al1F4
AlAgF4,mp-1214923,2.4951,2.78338772,0.048623739583337766,"{13: 1, 47: 1, 9: 4}","[9, 13, 47]",94131471,Al1Ag1F4
MgAlF5,mp-1025166,4.677,-2.23310168,0.5471415907142871,"{12: 1, 13: 1, 9: 5}","[9, 12, 13]",95121131,Mg1Al1F5
CaAlF5,mp-8836,7.1538,-1.52072964,0.008530122142859753,"{20: 1, 13: 1, 9: 5}","[9, 13, 20]",95131201,Ca1Al1F5
TiAlF5,mp-1254289,0.16420000000000012,4.99169116,0.13940336172619006,"{22: 1, 13: 1, 9: 5}","[9, 13, 22]",95131221,Ti1Al1F5
AlVF5,mp-1248567,3.1768,2.10983135,0.02242960357142998,"{13: 1, 23: 1, 9: 5}","[9, 13, 23]",95131231,Al1V1F5
AlCrF5,mp-1262600,2.4445,2.07182912,0.009800899285718145,"{13: 1, 24: 1, 9: 5}","[9, 13, 24]",95131241,Al1Cr1F5
MnAlF5,mp-28850,4.4125000000000005,0.2403431,0.008891328571429824,"{25: 1, 13: 1, 9: 5}","[9, 13, 25]",95131251,Mn1Al1F5
AlCoF5,mp-1251112,3.2098,0.15402645,0.04927227500000342,"{13: 1, 27: 1, 9: 5}","[9, 13, 27]",95131271,Al1Co1F5
AlSnF5,mp-1253073,3.7554,1.08835132,0.04305362607143337,"{13: 1, 50: 1, 9: 5}","[9, 13, 50]",95131501,Al1Sn1F5
SmAlF5,mp-1173357,0.5586000000000002,3.68254105,0.20560227619046856,"{62: 1, 13: 1, 9: 5}","[9, 13, 62]",95131621,Sm1Al1F5
AlWF5,mp-1262038,0.5218000000000003,2.81952539,0.35744352071428853,"{13: 1, 74: 1, 9: 5}","[9, 13, 74]",95131741,Al1W1F5
AlPbF5,mp-1214948,5.2623,0.71677187,0.003146786785713118,"{13: 1, 82: 1, 9: 5}","[9, 13, 82]",95131821,Al1Pb1F5
KNa2AlF6,mp-1111019,5.1973,-2.13379124,0.1714531342499992,"{19: 1, 11: 2, 13: 1, 9: 6}","[9, 11, 13, 19]",96112131191,K1Na2Al1F6
RbNa2AlF6,mp-1110627,4.8591,-2.28391538,0.21970376624999943,"{37: 1, 11: 2, 13: 1, 9: 6}","[9, 11, 13, 37]",96112131371,Rb1Na2Al1F6
Na2AlAgF6,mp-1111337,2.2358000000000002,0.38777808,0.12842412662499036,"{11: 2, 13: 1, 47: 1, 9: 6}","[9, 11, 13, 47]",96112131471,Na2Al1Ag1F6
Na2AlInF6,mp-1111090,2.888,1.55778305,0.18539986495833283,"{11: 2, 13: 1, 49: 1, 9: 6}","[9, 11, 13, 49]",96112131491,Na2Al1In1F6
Na2AlAuF6,mp-1111088,0.9050999999999999,0.82036092,0.2806851863333417,"{11: 2, 13: 1, 79: 1, 9: 6}","[9, 11, 13, 79]",96112131791,Na2Al1Au1F6
Na2AlHgF6,mp-1111253,0.0,1.2465526,0.2716858711249923,"{11: 2, 13: 1, 80: 1, 9: 6}","[9, 11, 13, 80]",96112131801,Na2Al1Hg1F6
Na2AlTlF6,mp-1110621,4.0672999999999995,0.11030498,0.1915685627499979,"{11: 2, 13: 1, 81: 1, 9: 6}","[9, 11, 13, 81]",96112131811,Na2Al1Tl1F6
K2RbAlF6,mp-1111386,5.946400000000001,-2.17704623,0.053975596499999945,"{19: 2, 37: 1, 13: 1, 9: 6}","[9, 13, 19, 37]",96131192371,K2Rb1Al1F6
K2AlAgF6,mp-1111949,3.0675,-0.06653669,0.007038169999992405,"{19: 2, 13: 1, 47: 1, 9: 6}","[9, 13, 19, 47]",96131192471,K2Al1Ag1F6
K2AlInF6,mp-1112188,3.8745000000000003,0.98513979,0.057497364611101,"{19: 2, 13: 1, 49: 1, 9: 6}","[9, 13, 19, 49]",96131192491,K2Al1In1F6
CsK2AlF6,mp-1112319,5.617900000000001,-2.04078514,0.10250240550000456,"{55: 1, 19: 2, 13: 1, 9: 6}","[9, 13, 19, 55]",96131192551,Cs1K2Al1F6
K2AlAuF6,mp-1112269,1.3271000000000002,0.48699003,0.16209796699999401,"{19: 2, 13: 1, 79: 1, 9: 6}","[9, 13, 19, 79]",96131192791,K2Al1Au1F6
K2AlHgF6,mp-1112209,0.0,0.7134231,0.1403924385000037,"{19: 2, 13: 1, 80: 1, 9: 6}","[9, 13, 19, 80]",96131192801,K2Al1Hg1F6
K2AlTlF6,mp-1111379,4.7545,-0.17493651,0.03728550441666556,"{19: 2, 13: 1, 81: 1, 9: 6}","[9, 13, 19, 81]",96131192811,K2Al1Tl1F6
RbAlPdF6,mp-18453,0.0,0.51384402,0.02393033694444302,"{37: 1, 13: 1, 46: 1, 9: 6}","[9, 13, 37, 46]",96131371461,Rb1Al1Pd1F6
RbAlAgF6,mp-1209335,0.18740000000000012,-0.90886677,0.01837288566666917,"{37: 1, 13: 1, 47: 1, 9: 6}","[9, 13, 37, 47]",96131371471,Rb1Al1Ag1F6
Cs2RbAlF6,mp-1113048,8.3194,-0.32583333,0.1539424896666759,"{55: 2, 37: 1, 13: 1, 9: 6}","[9, 13, 37, 55]",96131371552,Cs2Rb1Al1F6
Rb2AlInF6,mp-1113775,4.202100000000001,0.81452424,0.01792603481110966,"{37: 2, 13: 1, 49: 1, 9: 6}","[9, 13, 37, 49]",96131372491,Rb2Al1In1F6
CsRb2AlF6,mp-1111045,5.8323,-1.85335358,0.03573849633334181,"{55: 1, 37: 2, 13: 1, 9: 6}","[9, 13, 37, 55]",96131372551,Cs1Rb2Al1F6
Rb2AlAuF6,mp-1110596,1.4095,0.35094774,0.13631826106666622,"{37: 2, 13: 1, 79: 1, 9: 6}","[9, 13, 37, 79]",96131372791,Rb2Al1Au1F6
Rb2AlHgF6,mp-1112411,0.0,0.52498115,0.10463721104999912,"{37: 2, 13: 1, 80: 1, 9: 6}","[9, 13, 37, 80]",96131372801,Rb2Al1Hg1F6
CsAlPdF6,mp-17033,0.0,0.91044856,0.019307917222217696,"{55: 1, 13: 1, 46: 1, 9: 6}","[9, 13, 46, 55]",96131461551,Cs1Al1Pd1F6
CsAlAgF6,mp-561999,0.0,-0.69325808,0.01002712833332886,"{55: 1, 13: 1, 47: 1, 9: 6}","[9, 13, 47, 55]",96131471551,Cs1Al1Ag1F6
AlAg3F6,mp-1205591,0.26809999999999995,0.60546983,0.08542255150000244,"{13: 1, 47: 3, 9: 6}","[9, 13, 47]",96131473,Al1Ag3F6
Cs2AlInF6,mp-1112586,4.5643,0.84221913,0.011552774562495927,"{55: 2, 13: 1, 49: 1, 9: 6}","[9, 13, 49, 55]",96131491552,Cs2Al1In1F6
Cs2AlAuF6,mp-1113113,1.5293,0.42949843,0.13991899105555383,"{55: 2, 13: 1, 79: 1, 9: 6}","[9, 13, 55, 79]",96131552791,Cs2Al1Au1F6
Cs2AlHgF6,mp-1113101,0.0,0.59426734,0.1001139301249987,"{55: 2, 13: 1, 80: 1, 9: 6}","[9, 13, 55, 80]",96131552801,Cs2Al1Hg1F6
Na2AlCoF7,mp-21978,0.02639999999999998,2.01686342,0.005415677045449208,"{11: 2, 13: 1, 27: 1, 9: 7}","[9, 11, 13, 27]",97112131271,Na2Al1Co1F7
Na2AlZnF7,mp-559982,4.8225999999999996,-0.83479743,0.0032958978409043382,"{11: 2, 13: 1, 30: 1, 9: 7}","[9, 11, 13, 30]",97112131301,Na2Al1Zn1F7
Ca2AlF7,mp-29221,7.1413,-1.19391326,0.0036281215000038003,"{20: 2, 13: 1, 9: 7}","[9, 13, 20]",97131202,Ca2Al1F7
CaAl2F8,mp-1213962,7.222700000000001,5.72335439,0.06818551909091575,"{20: 1, 13: 2, 9: 8}","[9, 13, 20]",98132201,Ca1Al2F8