formula,material_id,band_gap,efermi,energy_above_hull,comp_atoms,sorted_keys_comp_atoms,comp_number,new_formula
CsRb2AlI6,mp-1111837,2.1328,0.29678331,0.1054866617500001,"{55: 1, 37: 2, 13: 1, 53: 6}","[13, 37, 53, 55]",131372536551,Cs1Rb2Al1I6
Rb2AlAuI6,mp-1111797,0.0,1.94794528,0.12237840450000004,"{37: 2, 13: 1, 79: 1, 53: 6}","[13, 37, 53, 79]",131372536791,Rb2Al1Au1I6
Rb2AlTlI6,mp-1114117,1.8325999999999998,0.99757342,0.09550348949999954,"{37: 2, 13: 1, 81: 1, 53: 6}","[13, 37, 53, 81]",131372536811,Rb2Al1Tl1I6
Rb3Al,mp-975052,0.0,1.03833943,0.3533911193749999,"{37: 3, 13: 1}","[13, 37]",131373,Rb3Al1
Rb3AlI6,mp-1114162,1.9042,0.4475,0.09044587775000101,"{37: 3, 13: 1, 53: 6}","[13, 37, 53]",131373536,Rb3Al1I6
SrAl,mp-27233,0.0,2.99413855,0.029386351736112815,"{38: 1, 13: 1}","[13, 38]",131381,Sr1Al1
SrAlIn,mp-1218590,0.0,5.24976562,0.014459134166666221,"{38: 1, 13: 1, 49: 1}","[13, 38, 49]",131381491,Sr1Al1In1
Sr2Al,mp-1102672,0.0,2.27951464,0.12991357132715997,"{38: 2, 13: 1}","[13, 38]",131382,Sr2Al1
Sr2AlIn3,mp-1218858,0.0,5.30999399,0.020718350416665476,"{38: 2, 13: 1, 49: 3}","[13, 38, 49]",131382493,Sr2Al1In3
Sr4Al,mp-1208483,0.0,1.16301201,0.40836704362962806,"{38: 4, 13: 1}","[13, 38]",131384,Sr4Al1
ZrAl,mp-11233,0.0,5.29120187,0.018204155999997695,"{40: 1, 13: 1}","[13, 40]",131401,Zr1Al1
ZrAlMo,mp-1215307,0.0,6.41696792,0.012998103137253025,"{40: 1, 13: 1, 42: 1}","[13, 40, 42]",131401421,Zr1Al1Mo1
ZrAlMo4,mp-1215310,0.0,6.84440903,0.269808676225491,"{40: 1, 13: 1, 42: 4}","[13, 40, 42]",131401424,Zr1Al1Mo4
ZrAlTc2,mp-1096663,0.0,-2.96721946,3.6336798811249977,"{40: 1, 13: 1, 43: 2}","[13, 40, 43]",131401432,Zr1Al1Tc2
ZrAlRh,mp-1215326,0.0,6.30299881,0.034173570037311585,"{40: 1, 13: 1, 45: 1}","[13, 40, 45]",131401451,Zr1Al1Rh1
ZrAlPd,mp-1215302,0.0,5.95684749,0.01167506618159031,"{40: 1, 13: 1, 46: 1}","[13, 40, 46]",131401461,Zr1Al1Pd1
ZrAlW,mp-631503,0.0,4.42043795,1.0613911091666708,"{40: 1, 13: 1, 74: 1}","[13, 40, 74]",131401741,Zr1Al1W1
ZrAlW4,mp-1215252,0.0,6.00055956,0.2837477029166706,"{40: 1, 13: 1, 74: 4}","[13, 40, 74]",131401744,Zr1Al1W4
ZrAlOs,mp-1215317,0.0,6.68498892,0.025457287916665905,"{40: 1, 13: 1, 76: 1}","[13, 40, 76]",131401761,Zr1Al1Os1
ZrAlIr,mp-1215327,0.0,7.05402348,0.028855167508687884,"{40: 1, 13: 1, 77: 1}","[13, 40, 77]",131401771,Zr1Al1Ir1
ZrAlPt2,mp-10906,0.0,6.02923533,0.6779093831249998,"{40: 1, 13: 1, 78: 2}","[13, 40, 78]",131401782,Zr1Al1Pt2
ZrAlAu2,mp-864878,0.0,6.65138111,0.013352950624998527,"{40: 1, 13: 1, 79: 2}","[13, 40, 79]",131401792,Zr1Al1Au2
Zr2Al,mp-2557,0.0,4.87201166,0.014479690999994688,"{40: 2, 13: 1}","[13, 40]",131402,Zr2Al1
Zr2AlTc,mp-1096736,0.0,-2.68738274,3.5627067650624973,"{40: 2, 13: 1, 43: 1}","[13, 40, 43]",131402431,Zr2Al1Tc1
Zr3AlAu2,mp-1191176,0.0,5.4350467,0.02425866250000297,"{40: 3, 13: 1, 79: 2}","[13, 40, 79]",131403792,Zr3Al1Au2
NbAlTc2,mp-1096512,0.020700000000000163,-2.88983069,3.7177808544166666,"{41: 1, 13: 1, 43: 2}","[13, 41, 43]",131411432,Nb1Al1Tc2
NbAlPt,mp-961680,0.0,5.27956559,0.6626820433333371,"{41: 1, 13: 1, 78: 1}","[13, 41, 78]",131411781,Nb1Al1Pt1
Nb3Al,mp-796,0.0,5.52989407,0.0409174080000021,"{41: 3, 13: 1}","[13, 41]",131413,Nb3Al1
Nb3AlSnMo3,mp-1220637,0.0,7.19276518,0.0336648793749994,"{41: 3, 13: 1, 50: 1, 42: 3}","[13, 41, 42, 50]",131413423501,Nb3Al1Sn1Mo3
Nb4Al,mp-1220481,0.0,5.63181939,0.10445434519999708,"{41: 4, 13: 1}","[13, 41]",131414,Nb4Al1
Al14Co5Si2,mp-645302,0.0,7.86640663,0.008050100848214115,"{13: 14, 27: 5, 14: 2}","[13, 14, 27]",1314142275,Al14Co5Si2
Nb6AlSn,mp-1220362,0.0,6.14756019,0.03333992449999812,"{41: 6, 13: 1, 50: 1}","[13, 41, 50]",131416501,Nb6Al1Sn1
Nb6AlSb,mp-1220337,0.0,6.26860178,0.038168740749998875,"{41: 6, 13: 1, 51: 1}","[13, 41, 51]",131416511,Nb6Al1Sb1
AlTc2Mo,mp-1097493,0.07740000000000036,-2.81455201,3.889613145000002,"{13: 1, 43: 2, 42: 1}","[13, 42, 43]",131421432,Al1Tc2Mo1
Hf2AlMo,mp-1097449,0.0,-2.74862234,3.9484315812499986,"{72: 2, 13: 1, 42: 1}","[13, 42, 72]",131421722,Hf2Al1Mo1
Hf3AlMo8,mp-1224436,0.0,6.71919395,0.1165639102604139,"{72: 3, 13: 1, 42: 8}","[13, 42, 72]",131428723,Hf3Al1Mo8
Lu2AlTc,mp-973625,0.0,4.56493093,0.06738295343750167,"{71: 2, 13: 1, 43: 1}","[13, 43, 71]",131431712,Lu2Al1Tc1
AlTc2Sb,mp-1097542,0.0,-3.05966318,3.1060302475000015,"{13: 1, 43: 2, 51: 1}","[13, 43, 51]",131432511,Al1Tc2Sb1
HfAlTc2,mp-1096748,0.22100000000000009,-2.82482245,3.7539988027500044,"{72: 1, 13: 1, 43: 2}","[13, 43, 72]",131432721,Hf1Al1Tc2
TaAlTc2,mp-1097350,0.3270999999999997,-2.98735198,3.979662025714287,"{73: 1, 13: 1, 43: 2}","[13, 43, 73]",131432731,Ta1Al1Tc2
AlTc2W,mp-1097605,0.0,-2.63006279,4.0394075775000005,"{13: 1, 43: 2, 74: 1}","[13, 43, 74]",131432741,Al1Tc2W1
AlReTc2,mp-1097163,0.0,-3.28829648,4.14197923375,"{13: 1, 75: 1, 43: 2}","[13, 43, 75]",131432751,Al1Re1Tc2
AlTc2Pb,mp-631582,0.0,9.03044695,0.8518212050000002,"{13: 1, 43: 2, 82: 1}","[13, 43, 82]",131432821,Al1Tc2Pb1
AlTc3,mp-1183188,0.0,8.70152347,0.19829861500000234,"{13: 1, 43: 3}","[13, 43]",131433,Al1Tc3
Ho2AlRu,mp-1184583,0.0,4.99323019,0.11061247475961711,"{67: 2, 13: 1, 44: 1}","[13, 44, 67]",131441672,Ho2Al1Ru1
Tm2AlRu,mp-1187586,0.0,4.97840964,0.09030090649038414,"{69: 2, 13: 1, 44: 1}","[13, 44, 69]",131441692,Tm2Al1Ru1
Lu2AlRu,mp-973631,0.0,4.97446179,0.06283886008928707,"{71: 2, 13: 1, 44: 1}","[13, 44, 71]",131441712,Lu2Al1Ru1
UAlRu,mp-1080013,0.0,9.68195451,0.06675383444444805,"{92: 1, 13: 1, 44: 1}","[13, 44, 92]",131441921,U1Al1Ru1
AlSnRu2,mp-1097296,0.0,-2.90428244,3.154358211071429,"{13: 1, 50: 1, 44: 2}","[13, 44, 50]",131442501,Al1Sn1Ru2
AlRu2W,mp-1093864,0.2548999999999997,-3.16323012,3.785609260833329,"{13: 1, 44: 2, 74: 1}","[13, 44, 74]",131442741,Al1Ru2W1
HfAlRh,mp-1224494,0.0,6.64555031,0.06394447904902378,"{72: 1, 13: 1, 45: 1}","[13, 45, 72]",131451721,Hf1Al1Rh1
UAlRh,mp-5015,0.0,9.40339533,0.16570290111111063,"{92: 1, 13: 1, 45: 1}","[13, 45, 92]",131451921,U1Al1Rh1
AlCdRh2,mp-1096462,0.13539999999999974,-3.70341138,2.5177360150000005,"{13: 1, 48: 1, 45: 2}","[13, 45, 48]",131452481,Al1Cd1Rh2
AlRh3,mp-1183306,0.0,7.29084822,0.08391756125000072,"{13: 1, 45: 3}","[13, 45]",131453,Al1Rh3
HfAlPd,mp-1224385,0.0,6.36686357,0.05198919935185131,"{72: 1, 13: 1, 46: 1}","[13, 46, 72]",131461721,Hf1Al1Pd1
Ce8AlPd24,mp-1213829,0.0,6.91090113,0.01758931503787764,"{58: 8, 13: 1, 46: 24}","[13, 46, 58]",1314624588,Ce8Al1Pd24
AlPd3,mp-1183143,0.0,5.34133129,0.04402146750000213,"{13: 1, 46: 3}","[13, 46]",131463,Al1Pd3
AlAg,mp-1228901,0.0,5.93618702,0.01833040100000005,"{13: 1, 47: 1}","[13, 47]",131471,Al1Ag1
AlAgAu2,mp-1096668,1.4133999999999998,-2.95726706,1.1876587775000012,"{13: 1, 47: 1, 79: 2}","[13, 47, 79]",131471792,Al1Ag1Au2
AlAg2,mp-985805,0.0,5.60404494,0.007656157999999635,"{13: 1, 47: 2}","[13, 47]",131472,Al1Ag2
LaAlAg2,mp-1185007,0.0,5.6408324,0.07053969985119135,"{57: 1, 13: 1, 47: 2}","[13, 47, 57]",131472571,La1Al1Ag2
CeAlAg2,mp-865968,0.0,5.56379685,0.05376293166666635,"{58: 1, 13: 1, 47: 2}","[13, 47, 58]",131472581,Ce1Al1Ag2
NdAlAg2,mp-1186292,0.0,3.99501625,0.04036028759804111,"{60: 1, 13: 1, 47: 2}","[13, 47, 60]",131472601,Nd1Al1Ag2
SmAlAg2,mp-862749,0.0,4.03371712,0.033970014777789714,"{62: 1, 13: 1, 47: 2}","[13, 47, 62]",131472621,Sm1Al1Ag2
TbAlAg2,mp-977394,0.0,4.23130063,0.00585797882407757,"{65: 1, 13: 1, 47: 2}","[13, 47, 65]",131472651,Tb1Al1Ag2
DyAlAg2,mp-862263,0.0,4.29255726,0.000884210027777943,"{66: 1, 13: 1, 47: 2}","[13, 47, 66]",131472661,Dy1Al1Ag2
LuAlAg2,mp-976931,0.0,4.40986989,0.006698714999998856,"{71: 1, 13: 1, 47: 2}","[13, 47, 71]",131472711,Lu1Al1Ag2
AlAg4,mp-1228947,0.0,4.07520787,0.07357737826666977,"{13: 1, 47: 4}","[13, 47]",131474,Al1Ag4
EuAlAg4,mp-1225185,0.0,3.80285927,0.03940370366667878,"{63: 1, 13: 1, 47: 4}","[13, 47, 63]",131474631,Eu1Al1Ag4
AlCdSbTe,mp-1228925,0.7791000000000001,3.16893637,0.022197012499999946,"{13: 1, 48: 1, 51: 1, 52: 1}","[13, 48, 51, 52]",131481511521,Al1Cd1Sb1Te1
Sm2AlCd,mp-978519,0.0,3.48054373,0.01913423906249978,"{62: 2, 13: 1, 48: 1}","[13, 48, 62]",131481622,Sm2Al1Cd1
Gd2AlCd,mp-1184403,0.0,3.60033232,0.014697412999996828,"{64: 2, 13: 1, 48: 1}","[13, 48, 64]",131481642,Gd2Al1Cd1
Ho2AlCd,mp-1184596,0.0,3.67767324,0.015370086562498386,"{67: 2, 13: 1, 48: 1}","[13, 48, 67]",131481672,Ho2Al1Cd1
Er2AlCd,mp-1184106,0.0,3.78107616,0.01790185562500035,"{68: 2, 13: 1, 48: 1}","[13, 48, 68]",131481682,Er2Al1Cd1
AlCd3,mp-1183215,0.0,3.76431233,0.11532127250000102,"{13: 1, 48: 3}","[13, 48]",131483,Al1Cd3
AlInSb2,mp-1228890,0.3185000000000002,4.57151389,0.008019425000000524,"{13: 1, 49: 1, 51: 2}","[13, 49, 51]",131491512,Al1In1Sb2
Cs2AlInI6,mp-1112896,0.9565999999999999,1.88010417,0.043304445249999546,"{55: 2, 13: 1, 49: 1, 53: 6}","[13, 49, 53, 55]",131491536552,Cs2Al1In1I6
La2AlIn,mp-1096316,0.0,-1.61924578,2.489882236875001,"{57: 2, 13: 1, 49: 1}","[13, 49, 57]",131491572,La2Al1In1
AlSn,mp-7760,0.0,7.01540374,0.2070903175000005,"{13: 1, 50: 1}","[13, 50]",131501,Al1Sn1
NdAlSn,mp-1220164,0.0,6.18139192,0.050758648888890257,"{60: 1, 13: 1, 50: 1}","[13, 50, 60]",131501601,Nd1Al1Sn1
AlSbI6,mp-28118,2.2540999999999998,-0.0243883,0.0025816659375017537,"{13: 1, 51: 1, 53: 6}","[13, 51, 53]",131511536,Al1Sb1I6
Cs2AlAuI6,mp-1112932,0.0,2.16254736,0.10360411624999788,"{55: 2, 13: 1, 79: 1, 53: 6}","[13, 53, 55, 79]",131536552791,Cs2Al1Au1I6
Cs2AlTlI6,mp-1112111,1.5910999999999997,1.18708333,0.0594832064999995,"{55: 2, 13: 1, 81: 1, 53: 6}","[13, 53, 55, 81]",131536552811,Cs2Al1Tl1I6
Cs3AlI6,mp-1112654,2.1069999999999998,0.53416667,0.0634020757500009,"{55: 3, 13: 1, 53: 6}","[13, 53, 55]",131536553,Cs3Al1I6
Tb4ZrAl15,mp-1106409,0.0,6.44185602,0.029398586999997534,"{65: 4, 40: 1, 13: 15}","[13, 40, 65]",1315401654,Tb4Zr1Al15
Ho4ZrAl15,mp-1223914,0.0,6.5327739,0.012513466999998002,"{67: 4, 40: 1, 13: 15}","[13, 40, 67]",1315401674,Ho4Zr1Al15
CsAl,mp-1078399,0.0,1.57775662,0.2705923772844816,"{55: 1, 13: 1}","[13, 55]",131551,Cs1Al1
GdEr4Al15,mp-1190803,0.0,5.58123876,0.005696399999999713,"{64: 1, 68: 4, 13: 15}","[13, 64, 68]",1315641684,Gd1Er4Al15
Tb4HfAl15,mp-1105883,0.0,6.50252351,0.03233429600000015,"{65: 4, 72: 1, 13: 15}","[13, 65, 72]",1315654721,Tb4Hf1Al15
Ho4HfAl15,mp-1223826,0.0,6.52077289,0.012447932999998912,"{67: 4, 72: 1, 13: 15}","[13, 67, 72]",1315674721,Ho4Hf1Al15
La4Al,mp-1211397,0.0,6.08552723,0.5744449355000008,"{57: 4, 13: 1}","[13, 57]",131574,La4Al1
CeAl,mp-20439,0.0,7.72974329,0.00431269649999777,"{58: 1, 13: 1}","[13, 58]",131581,Ce1Al1
Pr2Al,mp-1103225,0.0,4.1569396,0.019855749444449344,"{59: 2, 13: 1}","[13, 59]",131592,Pr2Al1
Pr3Al,mp-1079266,0.0,4.17911524,0.00789171916666831,"{59: 3, 13: 1}","[13, 59]",131593,Pr3Al1
Pr4Al,mp-1209724,0.0,2.72227702,0.6070661670000028,"{59: 4, 13: 1}","[13, 59]",131594,Pr4Al1
Nd2Al,mp-1101848,0.0,4.11101481,0.009160500416669493,"{60: 2, 13: 1}","[13, 60]",131602,Nd2Al1
Nd4Al,mp-1209964,0.0,2.63162155,0.6182129545000024,"{60: 4, 13: 1}","[13, 60]",131604,Nd4Al1
Sc6Al16Ru7,mp-1192947,0.0,7.04486068,0.004263442413795282,"{21: 6, 13: 16, 44: 7}","[13, 21, 44]",1316216447,Sc6Al16Ru7
Sm2Al,mp-1102344,0.0,3.95153,0.0009838897916694123,"{62: 2, 13: 1}","[13, 62]",131622,Sm2Al1
Ti6Al16Co7,mp-1192877,0.0,7.3434515,0.008310763879311622,"{22: 6, 13: 16, 27: 7}","[13, 22, 27]",1316226277,Ti6Al16Co7
Ti6Al16Ru7,mp-1193118,0.0,7.4195117,0.08144036114942388,"{22: 6, 13: 16, 44: 7}","[13, 22, 44]",1316226447,Ti6Al16Ru7
Ti6Al16Rh7,mp-1194450,0.0,7.30201742,0.022590278620691073,"{22: 6, 13: 16, 45: 7}","[13, 22, 45]",1316226457,Ti6Al16Rh7
Ti6Al16Pd7,mp-1194178,0.0,7.52469649,0.020043311293104438,"{22: 6, 13: 16, 46: 7}","[13, 22, 46]",1316226467,Ti6Al16Pd7
Ti6Al16Os7,mp-1192680,0.0,7.53536286,0.07253532340517665,"{22: 6, 13: 16, 76: 7}","[13, 22, 76]",1316226767,Ti6Al16Os7
Sm4Al,mp-1208890,0.0,2.38863044,0.6444817892499977,"{62: 4, 13: 1}","[13, 62]",131624,Sm4Al1
Eu4Al,mp-1213330,0.0,1.54050476,0.4491517100000024,"{63: 4, 13: 1}","[13, 63]",131634,Eu4Al1
Zr6Al16Ru7,mp-866136,0.0,7.19801305,0.0005808895689654037,"{40: 6, 13: 16, 44: 7}","[13, 40, 44]",1316406447,Zr6Al16Ru7
GdAl,mp-1078585,0.0,4.5079879,0.0017623497499990037,"{64: 1, 13: 1}","[13, 64]",131641,Gd1Al1
Tb3Al,mp-11226,0.0,3.79586382,0.02856140375000038,"{65: 3, 13: 1}","[13, 65]",131653,Tb3Al1
Tb4Al,mp-1208467,0.0,2.43325985,0.6736160965000018,"{65: 4, 13: 1}","[13, 65]",131654,Tb4Al1
Dy3Al,mp-1184122,0.0,3.97120777,0.019190565625002876,"{66: 3, 13: 1}","[13, 66]",131663,Dy3Al1
Dy4Al,mp-1212899,0.0,2.3725655,0.6814160669999971,"{66: 4, 13: 1}","[13, 66]",131664,Dy4Al1
HoAlAu2,mp-982559,0.0,5.38295301,0.02523049937499877,"{67: 1, 13: 1, 79: 2}","[13, 67, 79]",131671792,Ho1Al1Au2
Hf6Al16Os7,mp-973769,0.0,7.50857405,0.012853226637943749,"{72: 6, 13: 16, 76: 7}","[13, 72, 76]",1316726767,Hf6Al16Os7
Ho2AlOs,mp-977406,0.0,5.133167,0.11009461838541768,"{67: 2, 13: 1, 76: 1}","[13, 67, 76]",131672761,Ho2Al1Os1
Ho4Al,mp-1212293,0.0,2.24098794,0.6881447255000026,"{67: 4, 13: 1}","[13, 67]",131674,Ho4Al1
Er4Al,mp-1212928,0.0,2.2665305,0.6914737855000013,"{68: 4, 13: 1}","[13, 68]",131684,Er4Al1
TmAlAu2,mp-972272,0.0,5.47890885,0.024627360000003762,"{69: 1, 13: 1, 79: 2}","[13, 69, 79]",131691792,Tm1Al1Au2
Tm2AlOs,mp-865283,0.0,5.15113447,0.08114582509374912,"{69: 2, 13: 1, 76: 1}","[13, 69, 76]",131692761,Tm2Al1Os1
Tm3Al,mp-1187635,0.0,3.70146365,0.0027850781249973977,"{69: 3, 13: 1}","[13, 69]",131693,Tm3Al1
Tm4Al,mp-1208015,0.0,2.18437801,0.6886591351666667,"{69: 4, 13: 1}","[13, 69]",131694,Tm4Al1
Lu2AlOs,mp-865463,0.0,5.16243263,0.04625777289062505,"{71: 2, 13: 1, 76: 1}","[13, 71, 76]",131712761,Lu2Al1Os1
Lu3Al,mp-973266,0.0,3.65655743,0.002837988750002296,"{71: 3, 13: 1}","[13, 71]",131713,Lu3Al1
Lu4Al,mp-1210553,0.0,2.17816776,0.6973648702500022,"{71: 4, 13: 1}","[13, 71]",131714,Lu4Al1
Al17(Re2Si)2,mp-16569,0.0,8.14709561,0.035595607947513486,"{13: 17, 75: 4, 14: 2}","[13, 14, 75]",1317142754,Al17Re4Si2
HfAl,mp-249,0.0,6.1295378,0.01635615999999729,"{72: 1, 13: 1}","[13, 72]",131721,Hf1Al1
HfAlW4,mp-1224316,0.0,6.13764386,0.27346338625001465,"{72: 1, 13: 1, 74: 4}","[13, 72, 74]",131721744,Hf1Al1W4
HfAlIr,mp-1224426,0.0,7.41474694,0.05011280940972718,"{72: 1, 13: 1, 77: 1}","[13, 72, 77]",131721771,Hf1Al1Ir1
HfAlIr2,mp-982870,0.0,8.5372878,0.027841117499999513,"{72: 1, 13: 1, 77: 2}","[13, 72, 77]",131721772,Hf1Al1Ir2
HfAlPt2,mp-1206362,0.0,7.42496926,0.07868096437499617,"{72: 1, 13: 1, 78: 2}","[13, 72, 78]",131721782,Hf1Al1Pt2
HfAlAu2,mp-10872,0.0,6.99652255,0.018337413333334496,"{72: 1, 13: 1, 79: 2}","[13, 72, 79]",131721792,Hf1Al1Au2
Hf2Al,mp-12772,0.0,4.913733,0.03718523444443633,"{72: 2, 13: 1}","[13, 72]",131722,Hf2Al1
Hf2AlRe,mp-1248522,0.1464000000000003,-2.85397305,4.1426719512300005,"{72: 2, 13: 1, 75: 1}","[13, 72, 75]",131722751,Hf2Al1Re1
Hf3Al,mp-1184670,0.0,5.25453994,0.019307109583330373,"{72: 3, 13: 1}","[13, 72]",131723,Hf3Al1
Hf3AlAu2,mp-1191450,0.0,6.01210632,0.08421179273148738,"{72: 3, 13: 1, 79: 2}","[13, 72, 79]",131723792,Hf3Al1Au2
TaAlRe2,mp-1095983,0.3358000000000003,-3.26987473,4.50593616375,"{73: 1, 13: 1, 75: 2}","[13, 73, 75]",131731752,Ta1Al1Re2
TaAlPt,mp-961679,0.0,5.4006935,0.6806249600555567,"{73: 1, 13: 1, 78: 1}","[13, 73, 78]",131731781,Ta1Al1Pt1
Ta2AlRe,mp-1096286,0.0,-3.51721811,4.638347240319149,"{73: 2, 13: 1, 75: 1}","[13, 73, 75]",131732751,Ta2Al1Re1
Al17Mo4,mp-570651,0.0,8.25277373,0.002946303214287127,"{13: 17, 42: 4}","[13, 42]",1317424,Al17Mo4
AlOs,mp-875,0.0,9.29979196,0.012587037500004783,"{13: 1, 76: 1}","[13, 76]",131761,Al1Os1
Tb2Al17,mp-1202952,0.0,7.11746782,0.08342515473684209,"{65: 2, 13: 17}","[13, 65]",1317652,Tb2Al17
Dy2Al17,mp-1198587,0.0,7.09171758,0.08631095684210521,"{66: 2, 13: 17}","[13, 66]",1317662,Dy2Al17
Er2Al17,mp-1201145,0.0,7.1754885,0.09449524605263271,"{68: 2, 13: 17}","[13, 68]",1317682,Er2Al17
UAlAu2,mp-1189519,0.0,7.75342159,0.07426526895833518,"{92: 1, 13: 1, 79: 2}","[13, 79, 92]",131792921,U1Al1Au2
AlAu3,mp-1183223,0.0,6.2416878,0.06608989187500214,"{13: 1, 79: 3}","[13, 79]",131793,Al1Au3
AlPb3,mp-1183278,0.0,6.53880262,0.15609637499999707,"{13: 1, 82: 3}","[13, 82]",131823,Al1Pb3
AlBi,mp-1018132,0.0,3.67400543,0.06617068999999987,"{13: 1, 83: 1}","[13, 83]",131831,Al1Bi1
AlBi3,mp-1183170,0.0,6.62019389,0.19477012250000003,"{13: 1, 83: 3}","[13, 83]",131833,Al1Bi3
ThAl,mp-178,0.0,6.69426831,0.015145160000002988,"{90: 1, 13: 1}","[13, 90]",131901,Th1Al1
Th4Al,mp-1208289,0.0,5.61833869,0.8818198740000014,"{90: 4, 13: 1}","[13, 90]",131904,Th4Al1
U4Al,mp-1208233,0.0,9.55665193,1.186670757750008,"{92: 4, 13: 1}","[13, 92]",131924,U4Al1
Mn4Al19,mp-30526,0.0,7.86096541,0.013860424314382058,"{25: 4, 13: 19}","[13, 25]",1319254,Mn4Al19
Al19Co6,mp-1215090,0.0,7.93359895,0.008887402599999206,"{13: 19, 27: 6}","[13, 27]",1319276,Al19Co6
Pr2Al19Co6,mp-582996,0.0,7.15871576,0.0007082814506294,"{59: 2, 13: 19, 27: 6}","[13, 27, 59]",1319276592,Pr2Al19Co6
U2Al19Co6,mp-30272,0.0,8.28535407,0.007989416944443661,"{92: 2, 13: 19, 27: 6}","[13, 27, 92]",1319276922,U2Al19Co6
Np3Al,mp-31434,0.0,13.94785546,0.38105517203125316,"{93: 3, 13: 1}","[13, 93]",131933,Np3Al1
Pu3Al,mp-20130,0.0,12.5215529,0.3887395006249932,"{94: 3, 13: 1}","[13, 94]",131943,Pu3Al1
Ta24Al19,mp-1208546,0.0,6.71525351,0.0008361397116232183,"{73: 24, 13: 19}","[13, 73]",13197324,Ta24Al19
Ca(Al10Cr)2,mp-1196837,0.0,7.82458157,0.005283065605587112,"{20: 1, 13: 20, 24: 2}","[13, 20, 24]",1320201242,Ca1Al20Cr2
Pr(Al10Cr)2,mp-1200116,0.0,7.80861921,0.008650053540371516,"{59: 1, 13: 20, 24: 2}","[13, 24, 59]",1320242591,Pr1Al20Cr2
Nd(Al10Cr)2,mp-1203374,0.0,7.19215455,0.2207291246273293,"{60: 1, 13: 20, 24: 2}","[13, 24, 60]",1320242601,Nd1Al20Cr2
Sm(Al10Cr)2,mp-1203416,0.0,7.96932138,0.00818749707038613,"{62: 1, 13: 20, 24: 2}","[13, 24, 62]",1320242621,Sm1Al20Cr2
Gd(Al10Cr)2,mp-643271,0.0,8.02951498,0.2100526385403736,"{64: 1, 13: 20, 24: 2}","[13, 24, 64]",1320242641,Gd1Al20Cr2
Er(Al10Cr)2,mp-680636,0.0,7.83444384,0.014776589606618096,"{68: 1, 13: 20, 24: 2}","[13, 24, 68]",1320242681,Er1Al20Cr2
Ce(Al10Co)2,mp-16966,0.0,8.17969307,0.05883643188405685,"{58: 1, 13: 20, 27: 2}","[13, 27, 58]",1320272581,Ce1Al20Co2
ZrAl2Si,mp-1215331,0.0,8.05952304,0.03901675625000145,"{40: 1, 13: 2, 14: 1}","[13, 14, 40]",132141401,Zr1Al2Si1
Al2SiAg7,mp-1228502,0.0,4.99896656,0.06675701793333388,"{13: 2, 14: 1, 47: 7}","[13, 14, 47]",132141477,Al2Si1Ag7
Ca3(AlSi)2,mp-9577,0.0,4.26226983,0.021685120000001668,"{20: 3, 13: 2, 14: 2}","[13, 14, 20]",132142203,Ca3Al2Si2
Ce(AlSi)2,mp-1207106,0.0,7.19399271,0.03063443099999752,"{58: 1, 13: 2, 14: 2}","[13, 14, 58]",132142581,Ce1Al2Si2
Nd(AlSi)2,mp-1206993,0.0,6.13391289,0.00605014599999798,"{60: 1, 13: 2, 14: 2}","[13, 14, 60]",132142601,Nd1Al2Si2
Sm(AlSi)2,mp-7120,0.0,6.11425068,0.0019129549999981066,"{62: 1, 13: 2, 14: 2}","[13, 14, 62]",132142621,Sm1Al2Si2
Ho(AlSi)2,mp-1206416,0.0,6.28829212,0.0292446160000015,"{67: 1, 13: 2, 14: 2}","[13, 14, 67]",132142671,Ho1Al2Si2
Er(AlSi)2,mp-1206419,0.0,6.34098027,0.032052277000001794,"{68: 1, 13: 2, 14: 2}","[13, 14, 68]",132142681,Er1Al2Si2
U3Al2Si3,mp-1188296,0.0,9.7589368,0.06315640312499937,"{92: 3, 13: 2, 14: 3}","[13, 14, 92]",132143923,U3Al2Si3
Al2Si4Mo3,mp-1228443,0.0,9.48763494,0.02008591666666959,"{13: 2, 14: 4, 42: 3}","[13, 14, 42]",132144423,Al2Si4Mo3
Al2(PS3)3,mp-1193708,2.2406,2.92743905,0.02084224915736499,"{13: 2, 15: 3, 16: 9}","[13, 15, 16]",132153169,Al2P3S9
Al2Zn(SeS)2,mp-1228479,2.3718999999999997,4.7594899,0.009137649642855017,"{13: 2, 30: 1, 34: 2, 16: 2}","[13, 16, 30, 34]",132162301342,Al2Zn1Se2S2
Al2CrS4,mp-36310,0.0,6.78437708,0.053348891904764884,"{13: 2, 24: 1, 16: 4}","[13, 16, 24]",132164241,Al2Cr1S4
Al2HgS4,mp-7906,2.0244000000000004,2.15172338,0.0,"{13: 2, 80: 1, 16: 4}","[13, 16, 80]",132164801,Al2Hg1S4
Al2Zn2S5,mp-1228522,3.5602,2.22792129,0.012686238492062074,"{13: 2, 30: 2, 16: 5}","[13, 16, 30]",132165302,Al2Zn2S5
Al2(ZnS2)3,mp-1228987,2.7677000000000005,2.45052077,0.024000783311688423,"{13: 2, 30: 3, 16: 6}","[13, 16, 30]",132166303,Al2Zn3S6