formula,material_id,band_gap,efermi,energy_above_hull,comp_atoms,sorted_keys_comp_atoms,comp_number,new_formula
AlPO6,mp-1202156,0.0,-0.48147728,0.48859624572916616,"{13: 1, 15: 1, 8: 6}","[8, 13, 15]",86131151,Al1P1O6
Al(ClO2)3,mp-1188939,2.5052000000000003,1.50104127,0.20315353722727458,"{13: 1, 17: 3, 8: 6}","[8, 13, 17]",86131173,Al1Cl3O6
KLaTaAlO6,mp-2647039,1.7024,4.47281039,0.04762004449999324,"{19: 1, 57: 1, 73: 1, 13: 1, 8: 6}","[8, 13, 19, 57, 73]",86131191571731,K1La1Ta1Al1O6
KLaAlBiO6,mp-1518979,0.0,5.0393114,0.17670176524999714,"{19: 1, 57: 1, 13: 1, 83: 1, 8: 6}","[8, 13, 19, 57, 83]",86131191571831,K1La1Al1Bi1O6
KPrAlBiO6,mp-1522018,0.0,3.95034836,0.19930963725000073,"{19: 1, 59: 1, 13: 1, 83: 1, 8: 6}","[8, 13, 19, 59, 83]",86131191591831,K1Pr1Al1Bi1O6
KEuAlBiO6,mp-1521352,0.0,3.43999858,0.26298361606731113,"{19: 1, 63: 1, 13: 1, 83: 1, 8: 6}","[8, 13, 19, 63, 83]",86131191631831,K1Eu1Al1Bi1O6
CaEuAlBiO6,mp-1523034,0.0,5.20544345,0.271820543926931,"{20: 1, 63: 1, 13: 1, 83: 1, 8: 6}","[8, 13, 20, 63, 83]",86131201631831,Ca1Eu1Al1Bi1O6
LaTiAlPbO6,mp-686726,1.8576000000000006,6.60193041,0.05025663190001417,"{57: 1, 22: 1, 13: 1, 82: 1, 8: 6}","[8, 13, 22, 57, 82]",86131221571821,La1Ti1Al1Pb1O6
TaTiAlO6,mp-1217913,1.9264000000000006,3.65226359,0.05143864388888453,"{73: 1, 22: 1, 13: 1, 8: 6}","[8, 13, 22, 73]",86131221731,Ta1Ti1Al1O6
Ti3AlO6,mp-1048819,0.0,6.18990542,0.08151812600000241,"{22: 3, 13: 1, 8: 6}","[8, 13, 22]",86131223,Ti3Al1O6
AlV3O6,mp-1045019,0.3843999999999994,4.22773594,0.08152578943750122,"{13: 1, 23: 3, 8: 6}","[8, 13, 23]",86131233,Al1V3O6
AlCr3O6,mp-1048826,1.1429,4.34584454,0.07530642949999944,"{13: 1, 24: 3, 8: 6}","[8, 13, 24]",86131243,Al1Cr3O6
Mn3AlO6,mp-1045021,0.0,3.71982195,0.09364867190910608,"{25: 3, 13: 1, 8: 6}","[8, 13, 25]",86131253,Mn3Al1O6
Al(CoO2)3,mp-1045074,0.0,3.20336293,0.07812305115908735,"{13: 1, 27: 3, 8: 6}","[8, 13, 27]",86131273,Al1Co3O6
AlAsO6,mp-1215024,0.43770000000000003,-0.02677051,0.48400009515623843,"{13: 1, 33: 1, 8: 6}","[8, 13, 33]",86131331,Al1As1O6
SrEuAlBiO6,mp-1520853,0.0,4.92281656,0.2281743543812329,"{38: 1, 63: 1, 13: 1, 83: 1, 8: 6}","[8, 13, 38, 63, 83]",86131381631831,Sr1Eu1Al1Bi1O6
Sr2AlSbO6,mp-1208835,1.8987000000000007,4.72324197,0.010476238697916251,"{38: 2, 13: 1, 51: 1, 8: 6}","[8, 13, 38, 51]",86131382511,Sr2Al1Sb1O6
Sr2AlBiO6,mp-1518543,0.0,3.94831022,0.06196793763094455,"{38: 2, 13: 1, 83: 1, 8: 6}","[8, 13, 38, 83]",86131382831,Sr2Al1Bi1O6
EuAlInWO6,mp-1518895,0.07589999999999986,6.94959118,1.5508070171249946,"{63: 1, 13: 1, 49: 1, 74: 1, 8: 6}","[8, 13, 49, 63, 74]",86131491631741,Eu1Al1In1W1O6
La3AlO6,mp-1178155,4.2016,9.1260036,0.02007327912500223,"{57: 3, 13: 1, 8: 6}","[8, 13, 57]",86131573,La3Al1O6
Lu3AlO6,mp-756742,4.5825,2.18849796,0.02747827549998405,"{71: 3, 13: 1, 8: 6}","[8, 13, 71]",86131713,Lu3Al1O6
Al2SiO6,mp-1196880,0.0,3.52597078,0.24482460084175184,"{13: 2, 14: 1, 8: 6}","[8, 13, 14]",86132141,Al2Si1O6
CaAl2SiO6,mp-1019584,4.605699999999999,3.90206304,0.01679117713886935,"{20: 1, 13: 2, 14: 1, 8: 6}","[8, 13, 14, 20]",86132141201,Ca1Al2Si1O6
Ca3Al2O6,mp-12147,4.0091,2.04553742,0.012787945952307034,"{20: 3, 13: 2, 8: 6}","[8, 13, 20]",86132203,Ca3Al2O6
Al2GeO6,mp-1197018,0.0,2.9935899,0.22605740732323376,"{13: 2, 32: 1, 8: 6}","[8, 13, 32]",86132321,Al2Ge1O6
LaCeAl2O6,mp-1225482,0.024399999999999977,10.58873278,0.005205422000033266,"{57: 1, 58: 1, 13: 2, 8: 6}","[8, 13, 57, 58]",86132571581,La1Ce1Al2O6
Al3CrO6,mp-1228485,3.8929,5.42420415,0.013612335250000385,"{13: 3, 24: 1, 8: 6}","[8, 13, 24]",86133241,Al3Cr1O6
LaAl3O6,mp-1178115,4.1928,3.41966489,0.060372229000002164,"{57: 1, 13: 3, 8: 6}","[8, 13, 57]",86133571,La1Al3O6
Eu2Al42O65,mp-685394,0.24849999999999994,5.62654168,0.13891817885322855,"{63: 2, 13: 42, 8: 65}","[8, 13, 63]",8651342632,Eu2Al42O65
NaAl12Ga(S2O33)2,mp-1181018,0.06309999999999993,1.53636411,1.0288998102953713,"{11: 1, 13: 12, 31: 1, 16: 4, 8: 66}","[8, 11, 13, 16, 31]",8661111312164311,Na1Al12Ga1S4O66
Al12Ga(S2O33)2,mp-1215158,0.0,1.55861785,1.0522428831485033,"{13: 12, 31: 1, 16: 4, 8: 66}","[8, 13, 16, 31]",8661312164311,Al12Ga1S4O66
Ca2Al3O6F,mp-1227590,4.5248,1.82460466,0.013003448666665918,"{20: 2, 13: 3, 8: 6, 9: 1}","[8, 9, 13, 20]",8691133202,Ca2Al3O6F1
AlCo(OF)6,mp-1214890,0.0,-2.09744759,0.7878195873214313,"{13: 1, 27: 1, 8: 6, 9: 6}","[8, 9, 13, 27]",8696131271,Al1Co1O6F6
Al12Ge(Se2O35)2,mp-1229336,0.0,-1.53529531,1.0668866511407185,"{13: 12, 32: 1, 34: 4, 8: 70}","[8, 13, 32, 34]",8701312321344,Al12Ge1Se4O70
NaCaAlSi2O7,mp-1221104,4.592,1.85711607,0.013289227118076674,"{11: 1, 20: 1, 13: 1, 14: 2, 8: 7}","[8, 11, 13, 14, 20]",87111131142201,Na1Ca1Al1Si2O7
NaAlP2O7,mp-16777,5.2801,2.37322531,0.009105343560610102,"{11: 1, 13: 1, 15: 2, 8: 7}","[8, 11, 13, 15]",87111131152,Na1Al1P2O7
NaAlAs2O7,mp-560921,2.7304000000000004,1.94984463,0.0023169973834482605,"{11: 1, 13: 1, 33: 2, 8: 7}","[8, 11, 13, 33]",87111131332,Na1Al1As2O7
MgAl2SiO7,mp-1210628,0.028200000000000003,2.88885861,0.24711721470385584,"{12: 1, 13: 2, 14: 1, 8: 7}","[8, 12, 13, 14]",87121132141,Mg1Al2Si1O7
Ca2AlSi2O7,mp-1214098,0.0,8.1377715,0.16635867685763905,"{20: 2, 13: 1, 14: 2, 8: 7}","[8, 13, 14, 20]",87131142202,Ca2Al1Si2O7
KAlAs2O7,mp-9230,3.0427999999999997,0.91468277,0.0024211545454502215,"{19: 1, 13: 1, 33: 2, 8: 7}","[8, 13, 19, 33]",87131191332,K1Al1As2O7
Sr2Ti2AlGaO7,mp-1048054,0.0,4.39155087,0.3990143274519431,"{38: 2, 22: 2, 13: 1, 31: 1, 8: 7}","[8, 13, 22, 31, 38]",87131222311382,Sr2Ti2Al1Ga1O7
Sr2AlV2GaO7,mp-1046771,0.2759999999999998,4.28504161,0.22257888976163187,"{38: 2, 13: 1, 23: 2, 31: 1, 8: 7}","[8, 13, 23, 31, 38]",87131232311382,Sr2Al1V2Ga1O7
Sr2AlTlV2O7,mp-1046035,0.0,5.62366211,0.4840265658323748,"{38: 2, 13: 1, 81: 1, 23: 2, 8: 7}","[8, 13, 23, 38, 81]",87131232382811,Sr2Al1Tl1V2O7
Sr2AlCr2GaO7,mp-1046566,1.1645000000000003,3.89278542,0.18647992968456784,"{38: 2, 13: 1, 24: 2, 31: 1, 8: 7}","[8, 13, 24, 31, 38]",87131242311382,Sr2Al1Cr2Ga1O7
Sr2Mn2AlTlO7,mp-1045984,0.0,4.4583704,0.3284678867414641,"{38: 2, 25: 2, 13: 1, 81: 1, 8: 7}","[8, 13, 25, 38, 81]",87131252382811,Sr2Mn2Al1Tl1O7
Sr2AlGaCo2O7,mp-1252807,0.8266999999999998,4.46349032,0.14499081671874414,"{38: 2, 13: 1, 31: 1, 27: 2, 8: 7}","[8, 13, 27, 31, 38]",87131272311382,Sr2Al1Ga1Co2O7
Sr2AlTlCo2O7,mp-1252241,0.0,4.4808496,0.21618323149841512,"{38: 2, 13: 1, 81: 1, 27: 2, 8: 7}","[8, 13, 27, 38, 81]",87131272382811,Sr2Al1Tl1Co2O7
Sr2AlGaSn2O7,mp-1048033,1.6094,3.58199296,0.3014236513942281,"{38: 2, 13: 1, 31: 1, 50: 2, 8: 7}","[8, 13, 31, 38, 50]",87131311382502,Sr2Al1Ga1Sn2O7
Sr2AlGaW2O7,mp-1045091,0.4012000000000002,5.01722999,0.5017842571474347,"{38: 2, 13: 1, 31: 1, 74: 2, 8: 7}","[8, 13, 31, 38, 74]",87131311382742,Sr2Al1Ga1W2O7
LaAlGe2O7,mp-1211910,3.5206000000000004,3.79278643,0.005878809772736915,"{57: 1, 13: 1, 32: 2, 8: 7}","[8, 13, 32, 57]",87131322571,La1Al1Ge2O7
SmAlGe2O7,mp-1208925,3.6256,2.07937669,0.005531987613628608,"{62: 1, 13: 1, 32: 2, 8: 7}","[8, 13, 32, 62]",87131322621,Sm1Al1Ge2O7
EuAlGe2O7,mp-1212768,0.0,1.97323422,0.06904950318181236,"{63: 1, 13: 1, 32: 2, 8: 7}","[8, 13, 32, 63]",87131322631,Eu1Al1Ge2O7
GdAlGe2O7,mp-1212574,0.3146,3.17015694,0.009983110530299655,"{64: 1, 13: 1, 32: 2, 8: 7}","[8, 13, 32, 64]",87131322641,Gd1Al1Ge2O7
TbAlGe2O7,mp-1208364,3.6796999999999995,2.1574164,0.018986910113628852,"{65: 1, 13: 1, 32: 2, 8: 7}","[8, 13, 32, 65]",87131322651,Tb1Al1Ge2O7
DyAlGe2O7,mp-1213060,3.6402,2.80694597,0.022887805227267854,"{66: 1, 13: 1, 32: 2, 8: 7}","[8, 13, 32, 66]",87131322661,Dy1Al1Ge2O7
Ca2Al2SiO7,mp-1227499,4.3406,2.30615469,0.0002074473611139993,"{20: 2, 13: 2, 14: 1, 8: 7}","[8, 13, 14, 20]",87132141202,Ca2Al2Si1O7
Al2Si2O7,mp-755043,5.0535000000000005,3.42533592,0.022963085833334063,"{13: 2, 14: 2, 8: 7}","[8, 13, 14]",87132142,Al2Si2O7
Al2PO7,mp-1105677,0.0,0.34026665,0.31596337962878795,"{13: 2, 15: 1, 8: 7}","[8, 13, 15]",87132151,Al2P1O7
K2Al2O7,mp-725525,0.3795,0.04565093,0.4935036380587112,"{19: 2, 13: 2, 8: 7}","[8, 13, 19]",87132192,K2Al2O7
K8Al2O7,mp-778430,2.2214,1.03930382,0.030406970000001365,"{19: 8, 13: 2, 8: 7}","[8, 13, 19]",87132198,K8Al2O7
Ti2Al2O7,mp-1261252,0.6019999999999994,5.14594642,0.5260096772727163,"{22: 2, 13: 2, 8: 7}","[8, 13, 22]",87132222,Ti2Al2O7
Al2VO7,mp-1106178,0.0,-0.84143453,0.2989187214659088,"{13: 2, 23: 1, 8: 7}","[8, 13, 23]",87132231,Al2V1O7
Al2V2O7,mp-1261949,0.0,6.2029093,0.4461391686363818,"{13: 2, 23: 2, 8: 7}","[8, 13, 23]",87132232,Al2V2O7
Al2Cr2O7,mp-1262197,0.09250000000000025,4.74344333,0.4192044416528935,"{13: 2, 24: 2, 8: 7}","[8, 13, 24]",87132242,Al2Cr2O7
Mn2Al2O7,mp-1255912,1.5857999999999999,6.50186133,0.3246361337379504,"{25: 2, 13: 2, 8: 7}","[8, 13, 25]",87132252,Mn2Al2O7
Al2Co2O7,mp-1248317,0.5769000000000002,5.50701385,0.2791673425619834,"{13: 2, 27: 2, 8: 7}","[8, 13, 27]",87132272,Al2Co2O7
Al2Ge2O7,mp-9751,3.4097999999999997,2.60427805,0.03151349272727,"{13: 2, 32: 2, 8: 7}","[8, 13, 32]",87132322,Al2Ge2O7
SrLa2Al2O7,mp-1218238,2.9162,6.15554921,0.020115197850369526,"{38: 1, 57: 2, 13: 2, 8: 7}","[8, 13, 38, 57]",87132381572,Sr1La2Al2O7
SrEu2Al2O7,mp-983228,0.0,3.82596044,0.1480357135416579,"{38: 1, 63: 2, 13: 2, 8: 7}","[8, 13, 38, 63]",87132381632,Sr1Eu2Al2O7
SrGd2Al2O7,mp-545404,0.03310000000000013,5.19868072,0.02861806062499106,"{38: 1, 64: 2, 13: 2, 8: 7}","[8, 13, 38, 64]",87132381642,Sr1Gd2Al2O7
SrHo2Al2O7,mp-1208627,4.053800000000001,4.08496651,0.04724232177081156,"{38: 1, 67: 2, 13: 2, 8: 7}","[8, 13, 38, 67]",87132381672,Sr1Ho2Al2O7
Al2Mo2O7,mp-1262001,0.5063000000000004,5.26928462,0.33371097727272314,"{13: 2, 42: 2, 8: 7}","[8, 13, 42]",87132422,Al2Mo2O7
Al2Sn2O7,mp-1260244,1.3515999999999995,7.58758079,0.5461903081818358,"{13: 2, 50: 2, 8: 7}","[8, 13, 50]",87132502,Al2Sn2O7
Al2Sb2O7,mp-1252698,0.0002999999999993008,8.77057211,0.6697028077272638,"{13: 2, 51: 2, 8: 7}","[8, 13, 51]",87132512,Al2Sb2O7
Eu3Al2O7,mp-1212916,0.0,4.3451616,0.042369717708341526,"{63: 3, 13: 2, 8: 7}","[8, 13, 63]",87132633,Eu3Al2O7
Al2W2O7,mp-1266390,1.0333999999999994,5.43866973,0.30598030727272274,"{13: 2, 74: 2, 8: 7}","[8, 13, 74]",87132742,Al2W2O7
Al2Bi2O7,mp-1262076,0.0,5.888832,0.6663137842975262,"{13: 2, 83: 2, 8: 7}","[8, 13, 83]",87132832,Al2Bi2O7
CaSmAl3O7,mp-1227109,4.2347,6.45012085,0.0038489609028209415,"{20: 1, 62: 1, 13: 3, 8: 7}","[8, 13, 20, 62]",87133201621,Ca1Sm1Al3O7
Na12Mg5Al2Si29O72,mp-1173868,4.8614,3.37098536,0.046652152916664136,"{11: 12, 12: 5, 13: 2, 14: 29, 8: 72}","[8, 11, 12, 13, 14]",87211121251321429,Na12Mg5Al2Si29O72
Na7AlSn11(PO4)18,mp-686729,3.319,1.73983476,0.006877076434227192,"{11: 7, 13: 1, 50: 11, 15: 18, 8: 72}","[8, 11, 13, 15, 50]",87211713115185011,Na7Al1Sn11P18O72
KMg8Al17Si19O72,mp-720328,3.7898,1.66954532,0.05062057340172377,"{19: 1, 12: 8, 13: 17, 14: 19, 8: 72}","[8, 12, 13, 14, 19]",87212813171419191,K1Mg8Al17Si19O72
Al16As9O76,mp-1196667,0.0,-1.33928376,0.8436042739918932,"{13: 16, 33: 9, 8: 76}","[8, 13, 33]",8761316339,Al16As9O76
NaMg6AlO8,mp-1031510,3.2520999999999995,4.74439092,0.10718937546875029,"{11: 1, 12: 6, 13: 1, 8: 8}","[8, 11, 12, 13]",88111126131,Na1Mg6Al1O8
NaTi3AlO8,mp-1220885,2.5385,2.61482583,0.012988240346142987,"{11: 1, 22: 3, 13: 1, 8: 8}","[8, 11, 13, 22]",88111131223,Na1Ti3Al1O8
NaAl(MoO4)2,mp-561398,3.4421,0.17359478,0.004785381996521565,"{11: 1, 13: 1, 42: 2, 8: 8}","[8, 11, 13, 42]",88111131422,Na1Al1Mo2O8
Na3Al4O8,mp-1210303,0.0,0.15931139,0.4203776078636343,"{11: 3, 13: 4, 8: 8}","[8, 11, 13]",88113134,Na3Al4O8
KMgAl(MoO4)2,mp-2241357,0.2025999999999999,3.68609719,0.4165383432051115,"{19: 1, 12: 1, 13: 1, 42: 2, 8: 8}","[8, 12, 13, 19, 42]",88121131191422,K1Mg1Al1Mo2O8
SrLa3MgAlO8,mp-1218241,2.8049,5.80895007,0.03324461736111495,"{38: 1, 57: 3, 12: 1, 13: 1, 8: 8}","[8, 12, 13, 38, 57]",88121131381573,Sr1La3Mg1Al1O8
CsMgAl(MoO4)2,mp-2234041,0.0,2.17852422,0.4058989720192381,"{55: 1, 12: 1, 13: 1, 42: 2, 8: 8}","[8, 12, 13, 42, 55]",88121131422551,Cs1Mg1Al1Mo2O8
MgAlTl(MoO4)2,mp-2241198,0.0,2.7989195,0.4071574277884382,"{12: 1, 13: 1, 81: 1, 42: 2, 8: 8}","[8, 12, 13, 42, 81]",88121131422811,Mg1Al1Tl1Mo2O8
MgAlAg(WO4)2,mp-2220125,2.4118000000000004,2.69965705,0.1946541656410261,"{12: 1, 13: 1, 47: 1, 74: 2, 8: 8}","[8, 12, 13, 47, 74]",88121131471742,Mg1Al1Ag1W2O8
MgAlTe(WO4)2,mp-2228209,1.4968000000000004,3.49379109,0.23206120217949522,"{12: 1, 13: 1, 52: 1, 74: 2, 8: 8}","[8, 12, 13, 52, 74]",88121131521742,Mg1Al1Te1W2O8
MgNb2Al2O8,mp-2218439,0.1905000000000001,4.62052747,0.18011756659340783,"{12: 1, 41: 2, 13: 2, 8: 8}","[8, 12, 13, 41]",88121132412,Mg1Nb2Al2O8
Mg6AlSiO8,mp-1031567,0.0,8.55313418,0.35683732374999977,"{12: 6, 13: 1, 14: 1, 8: 8}","[8, 12, 13, 14]",88126131141,Mg6Al1Si1O8
KMg6AlO8,mp-1033058,1.4922000000000004,5.33892516,0.31175932699218745,"{19: 1, 12: 6, 13: 1, 8: 8}","[8, 12, 13, 19]",88126131191,K1Mg6Al1O8
CaMg6AlO8,mp-1033062,0.0,9.71804418,0.22022885944444415,"{20: 1, 12: 6, 13: 1, 8: 8}","[8, 12, 13, 20]",88126131201,Ca1Mg6Al1O8
Mg6TiAlO8,mp-1033087,0.0,9.72271075,0.25825792599999886,"{12: 6, 22: 1, 13: 1, 8: 8}","[8, 12, 13, 22]",88126131221,Mg6Ti1Al1O8
Mg6AlVO8,mp-1033159,0.0,8.596446,0.2166160338715244,"{12: 6, 13: 1, 23: 1, 8: 8}","[8, 12, 13, 23]",88126131231,Mg6Al1V1O8
Mg6AlCrO8,mp-1033120,0.0,9.15077816,0.20243946359374565,"{12: 6, 13: 1, 24: 1, 8: 8}","[8, 12, 13, 24]",88126131241,Mg6Al1Cr1O8
Mg6MnAlO8,mp-1033146,0.0,9.45947127,0.22288273193965402,"{12: 6, 25: 1, 13: 1, 8: 8}","[8, 12, 13, 25]",88126131251,Mg6Mn1Al1O8
Mg6AlCoO8,mp-1033099,0.0,8.39474619,0.16234252046875053,"{12: 6, 13: 1, 27: 1, 8: 8}","[8, 12, 13, 27]",88126131271,Mg6Al1Co1O8
Mg6AlZnO8,mp-1033130,0.0,9.42486997,0.19548716749999961,"{12: 6, 13: 1, 30: 1, 8: 8}","[8, 12, 13, 30]",88126131301,Mg6Al1Zn1O8
RbMg6AlO8,mp-1031545,0.22050000000000036,5.87450634,0.4520017537500003,"{37: 1, 12: 6, 13: 1, 8: 8}","[8, 12, 13, 37]",88126131371,Rb1Mg6Al1O8
SrMg6AlO8,mp-1033028,0.0,9.00743062,0.3163559858668137,"{38: 1, 12: 6, 13: 1, 8: 8}","[8, 12, 13, 38]",88126131381,Sr1Mg6Al1O8
Mg6NbAlO8,mp-1033032,0.0,9.11796762,0.3720655772656247,"{12: 6, 41: 1, 13: 1, 8: 8}","[8, 12, 13, 41]",88126131411,Mg6Nb1Al1O8
Mg6AlCdO8,mp-1032988,0.0,9.2204753,0.25756721234375046,"{12: 6, 13: 1, 48: 1, 8: 8}","[8, 12, 13, 48]",88126131481,Mg6Al1Cd1O8
Mg6AlSnO8,mp-1033157,0.0,8.77991881,0.39543952984374986,"{12: 6, 13: 1, 50: 1, 8: 8}","[8, 12, 13, 50]",88126131501,Mg6Al1Sn1O8
CsMg6AlO8,mp-1033065,0.0,6.96738772,0.6443947300000001,"{55: 1, 12: 6, 13: 1, 8: 8}","[8, 12, 13, 55]",88126131551,Cs1Mg6Al1O8
HfMg6AlO8,mp-1032931,0.0,7.82762002,0.343057389265625,"{72: 1, 12: 6, 13: 1, 8: 8}","[8, 12, 13, 72]",88126131721,Hf1Mg6Al1O8
Mg6AlBiO8,mp-1033073,0.04180000000000028,8.17767155,0.457593900156251,"{12: 6, 13: 1, 83: 1, 8: 8}","[8, 12, 13, 83]",88126131831,Mg6Al1Bi1O8
AlSi3O8,mp-1229057,0.0,-1.09653304,0.11760068670454693,"{13: 1, 14: 3, 8: 8}","[8, 13, 14]",88131143,Al1Si3O8
AlSi3AgO8,mp-1228941,3.0442,1.75081986,0.024487899615384556,"{13: 1, 14: 3, 47: 1, 8: 8}","[8, 13, 14, 47]",88131143471,Al1Si3Ag1O8
AlGa(PO4)2,mp-1228948,4.8858,-0.5616363,0.013131696388878566,"{13: 1, 31: 1, 15: 2, 8: 8}","[8, 13, 15, 31]",88131152311,Al1Ga1P2O8
AlTl(SO4)2,mp-1214834,4.9822,0.97273662,0.005946099479179345,"{13: 1, 81: 1, 16: 2, 8: 8}","[8, 13, 16, 81]",88131162811,Al1Tl1S2O8
Ca2AlClO8,mp-1102410,0.0,-0.64898705,0.8175323877678551,"{20: 2, 13: 1, 17: 1, 8: 8}","[8, 13, 17, 20]",88131171202,Ca2Al1Cl1O8
Ti3AlSe2ClO8,mp-1048587,0.39579999999999993,2.24581452,0.5289408135693687,"{22: 3, 13: 1, 34: 2, 17: 1, 8: 8}","[8, 13, 17, 22, 34]",88131171223342,Ti3Al1Se2Cl1O8
AlV3Se2ClO8,mp-1045114,1.2699000000000003,2.74365411,0.3933211181191565,"{13: 1, 23: 3, 34: 2, 17: 1, 8: 8}","[8, 13, 17, 23, 34]",88131171233342,Al1V3Se2Cl1O8
AlCo3Se2ClO8,mp-1264957,1.8001000000000003,1.45042124,0.2031931930208346,"{13: 1, 27: 3, 34: 2, 17: 1, 8: 8}","[8, 13, 17, 27, 34]",88131171273342,Al1Co3Se2Cl1O8
AlMo3Se2ClO8,mp-1266944,0.19700000000000006,4.68551661,0.5058533136888963,"{13: 1, 42: 3, 34: 2, 17: 1, 8: 8}","[8, 13, 17, 34, 42]",88131171342423,Al1Mo3Se2Cl1O8
AlSn3Se2ClO8,mp-1250779,2.614,3.82946045,0.2508447809652008,"{13: 1, 50: 3, 34: 2, 17: 1, 8: 8}","[8, 13, 17, 34, 50]",88131171342503,Al1Sn3Se2Cl1O8
AlSb3Se2ClO8,mp-1048241,0.0,4.53407785,0.44140814248958105,"{13: 1, 51: 3, 34: 2, 17: 1, 8: 8}","[8, 13, 17, 34, 51]",88131171342513,Al1Sb3Se2Cl1O8
AlW3Se2ClO8,mp-1045980,1.4888000000000001,0.55710937,0.3546325264652772,"{13: 1, 74: 3, 34: 2, 17: 1, 8: 8}","[8, 13, 17, 34, 74]",88131171342743,Al1W3Se2Cl1O8
AlBi3Se2ClO8,mp-1048242,0.0,4.12360567,0.37310334695110203,"{13: 1, 83: 3, 34: 2, 17: 1, 8: 8}","[8, 13, 17, 34, 83]",88131171342833,Al1Bi3Se2Cl1O8
KTi3AlO8,mp-1223316,2.5699,5.05017492,0.039513837255238826,"{19: 1, 22: 3, 13: 1, 8: 8}","[8, 13, 19, 22]",88131191223,K1Ti3Al1O8
TiAl(WO4)2,mp-1047613,0.2755000000000001,5.24133642,0.09027251145833404,"{22: 1, 13: 1, 74: 2, 8: 8}","[8, 13, 22, 74]",88131221742,Ti1Al1W2O8
RbTi3AlO8,mp-1219548,2.5876,2.5907121,0.03498154991257785,"{37: 1, 22: 3, 13: 1, 8: 8}","[8, 13, 22, 37]",88131223371,Rb1Ti3Al1O8
CsTi3AlO8,mp-1225908,2.5601,2.84245307,0.07779785692307506,"{55: 1, 22: 3, 13: 1, 8: 8}","[8, 13, 22, 55]",88131223551,Cs1Ti3Al1O8
AlV(TeO4)2,mp-1194859,2.8360999999999996,5.7428046,0.008606022430544868,"{13: 1, 23: 1, 52: 2, 8: 8}","[8, 13, 23, 52]",88131231522,Al1V1Te2O8
AlV(WO4)2,mp-1042105,1.7233999999999998,4.43108892,0.02167559916666484,"{13: 1, 23: 1, 74: 2, 8: 8}","[8, 13, 23, 74]",88131231742,Al1V1W2O8
AlCr(WO4)2,mp-1041805,1.5151000000000003,4.30040885,0.04596592291666646,"{13: 1, 24: 1, 74: 2, 8: 8}","[8, 13, 24, 74]",88131241742,Al1Cr1W2O8
AlCr3O8,mp-1229068,0.0,1.22893878,0.3053608067045408,"{13: 1, 24: 3, 8: 8}","[8, 13, 24]",88131243,Al1Cr3O8
MnAl(WO4)2,mp-1578402,1.7209000000000003,4.269744,0.05796423250001048,"{25: 1, 13: 1, 74: 2, 8: 8}","[8, 13, 25, 74]",88131251742,Mn1Al1W2O8
AlCo(WO4)2,mp-1252502,1.6189999999999998,5.87867754,0.05182110447917054,"{13: 1, 27: 1, 74: 2, 8: 8}","[8, 13, 27, 74]",88131271742,Al1Co1W2O8
RbAl(SeO4)2,mp-1209251,3.0179,-0.35277951,0.026836118555553234,"{37: 1, 13: 1, 34: 2, 8: 8}","[8, 13, 34, 37]",88131342371,Rb1Al1Se2O8
AlTl(SeO4)2,mp-1214828,3.2568,0.2782963,0.04778800982640341,"{13: 1, 81: 1, 34: 2, 8: 8}","[8, 13, 34, 81]",88131342811,Al1Tl1Se2O8
AlMo(WO4)2,mp-1041813,1.4055999999999997,4.82148516,0.09228350208333147,"{13: 1, 42: 1, 74: 2, 8: 8}","[8, 13, 42, 74]",88131421742,Al1Mo1W2O8
AlAg(WO4)2,mp-1047674,1.5337999999999994,4.04232094,0.11723920937500054,"{13: 1, 47: 1, 74: 2, 8: 8}","[8, 13, 47, 74]",88131471742,Al1Ag1W2O8
AlSn(WO4)2,mp-1042285,0.16970000000000063,6.17082181,0.0929225162500007,"{13: 1, 50: 1, 74: 2, 8: 8}","[8, 13, 50, 74]",88131501742,Al1Sn1W2O8
AlSb(WO4)2,mp-1041643,1.6134000000000004,5.20625023,0.1691184137499988,"{13: 1, 51: 1, 74: 2, 8: 8}","[8, 13, 51, 74]",88131511742,Al1Sb1W2O8
AlTe(WO4)2,mp-1041870,0.3343999999999996,5.91316183,0.18947298656250133,"{13: 1, 52: 1, 74: 2, 8: 8}","[8, 13, 52, 74]",88131521742,Al1Te1W2O8
TaAl(WO4)2,mp-1047653,1.8681999999999999,4.41747588,0.12546905270833442,"{73: 1, 13: 1, 74: 2, 8: 8}","[8, 13, 73, 74]",88131731742,Ta1Al1W2O8
AlRe(WO4)2,mp-1042310,0.0,5.09843874,0.25970932461805596,"{13: 1, 75: 1, 74: 2, 8: 8}","[8, 13, 74, 75]",88131742751,Al1Re1W2O8
AlBi(WO4)2,mp-1042146,2.3077,3.65846823,0.07504739624999957,"{13: 1, 83: 1, 74: 2, 8: 8}","[8, 13, 74, 83]",88131742831,Al1Bi1W2O8
AlW3O8,mp-1042107,1.4906999999999995,4.5494473,0.057422477916665216,"{13: 1, 74: 3, 8: 8}","[8, 13, 74]",88131743,Al1W3O8
Ca2Al2SiO8,mp-1227478,0.0,2.12563823,0.13893461295453946,"{20: 2, 13: 2, 14: 1, 8: 8}","[8, 13, 14, 20]",88132141202,Ca2Al2Si1O8
CaAl2Si2(ClO4)2,mp-1227373,0.0,-0.62483753,0.32118255271212526,"{20: 1, 13: 2, 14: 2, 17: 2, 8: 8}","[8, 13, 14, 17, 20]",88132142172201,Ca1Al2Si2Cl2O8
CaAl2Si2(WO4)2,mp-1215070,0.7232999999999996,4.05744867,0.8228500390000022,"{20: 1, 13: 2, 14: 2, 74: 2, 8: 8}","[8, 13, 14, 20, 74]",88132142201742,Ca1Al2Si2W2O8