formula,material_id,band_gap,efermi,energy_above_hull,comp_atoms,sorted_keys_comp_atoms,comp_number,new_formula
Na3AlGa(PO4)3,mp-2715331,4.2608,2.30346209,0.02798443458332578,"{11: 3, 13: 1, 31: 1, 15: 3, 8: 12}","[8, 11, 13, 15, 31]",812113131153311,Na3Al1Ga1P3O12
Na3AlIn(PO4)3,mp-2715416,3.8687000000000005,2.40721278,0.030479709166665536,"{11: 3, 13: 1, 49: 1, 15: 3, 8: 12}","[8, 11, 13, 15, 49]",812113131153491,Na3Al1In1P3O12
Na3LaAl(PO4)3,mp-2715298,4.427,2.36948722,0.07396656830208581,"{11: 3, 57: 1, 13: 1, 15: 3, 8: 12}","[8, 11, 13, 15, 57]",812113131153571,Na3La1Al1P3O12
Na3Al2(PO4)3,mp-2715262,5.0625,2.70212153,0.011856669302068745,"{11: 3, 13: 2, 15: 3, 8: 12}","[8, 11, 13, 15]",812113132153,Na3Al2P3O12
Na3Al2(AsO4)3,mp-556676,3.4868000000000006,1.65930854,0.004764052624999238,"{11: 3, 13: 2, 33: 3, 8: 12}","[8, 11, 13, 33]",812113132333,Na3Al2As3O12
Na4MgAl(PO4)3,mp-2715031,4.647399999999999,2.53492266,0.01607999664020987,"{11: 4, 12: 1, 13: 1, 15: 3, 8: 12}","[8, 11, 12, 13, 15]",812114121131153,Na4Mg1Al1P3O12
Na4ScAlSi(PO6)2,mp-2714619,4.3371,2.35874253,0.045804168749993934,"{11: 4, 21: 1, 13: 1, 14: 1, 15: 2, 8: 12}","[8, 11, 13, 14, 15, 21]",812114131141152211,Na4Sc1Al1Si1P2O12
Na4AlGaSi(PO6)2,mp-2714550,3.9603,2.69531984,0.048427479424604236,"{11: 4, 13: 1, 31: 1, 14: 1, 15: 2, 8: 12}","[8, 11, 13, 14, 15, 31]",812114131141152311,Na4Al1Ga1Si1P2O12
Na4AlInSi(PO6)2,mp-2714470,3.4644999999999997,2.91681307,0.056795971964286984,"{11: 4, 13: 1, 49: 1, 14: 1, 15: 2, 8: 12}","[8, 11, 13, 14, 15, 49]",812114131141152491,Na4Al1In1Si1P2O12
Na4LaAlSi(PO6)2,mp-2714351,3.7712999999999997,2.67595218,0.10666756466270044,"{11: 4, 57: 1, 13: 1, 14: 1, 15: 2, 8: 12}","[8, 11, 13, 14, 15, 57]",812114131141152571,Na4La1Al1Si1P2O12
Na4TiAlSi2PO12,mp-2715724,2.6197,2.610896,0.054184480017857695,"{11: 4, 22: 1, 13: 1, 14: 2, 15: 1, 8: 12}","[8, 11, 13, 14, 15, 22]",812114131142151221,Na4Ti1Al1Si2P1O12
Na4AlSi2GePO12,mp-2716223,3.0694000000000004,2.81025536,0.07552054129960517,"{11: 4, 13: 1, 14: 2, 32: 1, 15: 1, 8: 12}","[8, 11, 13, 14, 15, 32]",812114131142151321,Na4Al1Si2Ge1P1O12
Na4ZrAlSi2PO12,mp-2716236,4.1534,2.14257974,0.0608410950198488,"{11: 4, 40: 1, 13: 1, 14: 2, 15: 1, 8: 12}","[8, 11, 13, 14, 15, 40]",812114131142151401,Na4Zr1Al1Si2P1O12
Na4AlSi2SnPO12,mp-2716193,3.4021,2.94690569,0.058469239315473764,"{11: 4, 13: 1, 14: 2, 50: 1, 15: 1, 8: 12}","[8, 11, 13, 14, 15, 50]",812114131142151501,Na4Al1Si2Sn1P1O12
Na4HfAlSi2PO12,mp-2715690,4.232600000000001,2.30394702,0.050609002619041554,"{11: 4, 72: 1, 13: 1, 14: 2, 15: 1, 8: 12}","[8, 11, 13, 14, 15, 72]",812114131142151721,Na4Hf1Al1Si2P1O12
Na4ScAlSi2SO12,mp-2714328,4.011,2.55893003,0.09719211954861073,"{11: 4, 21: 1, 13: 1, 14: 2, 16: 1, 8: 12}","[8, 11, 13, 14, 16, 21]",812114131142161211,Na4Sc1Al1Si2S1O12
Na4AlGaSi2SO12,mp-2714424,3.7239000000000004,2.75733174,0.12188984299603156,"{11: 4, 13: 1, 31: 1, 14: 2, 16: 1, 8: 12}","[8, 11, 13, 14, 16, 31]",812114131142161311,Na4Al1Ga1Si2S1O12
Na4AlInSi2SO12,mp-2714511,3.2731999999999997,2.8141964,0.10806439190476347,"{11: 4, 13: 1, 49: 1, 14: 2, 16: 1, 8: 12}","[8, 11, 13, 14, 16, 49]",812114131142161491,Na4Al1In1Si2S1O12
Na4LaAlSi2SO12,mp-2714322,3.5606999999999998,2.74022452,0.13423974255952054,"{11: 4, 57: 1, 13: 1, 14: 2, 16: 1, 8: 12}","[8, 11, 13, 14, 16, 57]",812114131142161571,Na4La1Al1Si2S1O12
Na4NbAl(SiO4)3,mp-2716384,2.6896,2.38918105,0.054904603908728866,"{11: 4, 41: 1, 13: 1, 14: 3, 8: 12}","[8, 11, 13, 14, 41]",812114131143411,Na4Nb1Al1Si3O12
Na4TaAl(SiO4)3,mp-2716346,3.5408,2.5316616,0.04641086902777225,"{11: 4, 73: 1, 13: 1, 14: 3, 8: 12}","[8, 11, 13, 14, 73]",812114131143731,Na4Ta1Al1Si3O12
Na4CaAl(PO4)3,mp-2715214,3.9978999999999996,1.96742686,0.07776572161210282,"{11: 4, 20: 1, 13: 1, 15: 3, 8: 12}","[8, 11, 13, 15, 20]",812114131153201,Na4Ca1Al1P3O12
Na4AlZn(PO4)3,mp-2715013,4.110199999999999,2.57680373,0.0473268422380988,"{11: 4, 13: 1, 30: 1, 15: 3, 8: 12}","[8, 11, 13, 15, 30]",812114131153301,Na4Al1Zn1P3O12
Na4Al2Si(PO6)2,mp-2714518,4.5648,3.00908433,0.038047720902781634,"{11: 4, 13: 2, 14: 1, 15: 2, 8: 12}","[8, 11, 13, 14, 15]",812114132141152,Na4Al2Si1P2O12
Na4Al2Si2SO12,mp-2714483,4.128500000000001,3.07362017,0.1216941656746009,"{11: 4, 13: 2, 14: 2, 16: 1, 8: 12}","[8, 11, 13, 14, 16]",812114132142161,Na4Al2Si2S1O12
Na4Al2GaSi3BrO12,mp-1221240,4.4147,-0.31310357,0.0010576610869543757,"{11: 4, 13: 2, 31: 1, 14: 3, 35: 1, 8: 12}","[8, 11, 13, 14, 31, 35]",812114132143311351,Na4Al2Ga1Si3Br1O12
Na4Al6ClO12,mp-1210204,0.37190000000000006,-0.48275276,0.18469485159091192,"{11: 4, 13: 6, 17: 1, 8: 12}","[8, 11, 13, 17]",812114136171,Na4Al6Cl1O12
Ca2MgAl2(SiO4)3,mp-677029,4.887700000000001,3.40829331,0.014325700375109385,"{20: 2, 12: 1, 13: 2, 14: 3, 8: 12}","[8, 12, 13, 14, 20]",812121132143202,Ca2Mg1Al2Si3O12
MgAl2(PO4)3,mp-1222232,0.0,-2.56511107,0.0667009059953676,"{12: 1, 13: 2, 15: 3, 8: 12}","[8, 12, 13, 15]",812121132153,Mg1Al2P3O12
MgAl4Tl4O12,mp-1234785,1.0541,4.25412709,0.19590835165223375,"{12: 1, 13: 4, 81: 4, 8: 12}","[8, 12, 13, 81]",812121134814,Mg1Al4Tl4O12
CaMg2Al4SiO12,mp-1227133,0.14329999999999998,2.45929294,0.12084239009090769,"{20: 1, 12: 2, 13: 4, 14: 1, 8: 12}","[8, 12, 13, 14, 20]",812122134141201,Ca1Mg2Al4Si1O12
CaMg2Al6O12,mp-1227128,3.2782999999999998,5.59972036,0.08149761476192996,"{20: 1, 12: 2, 13: 6, 8: 12}","[8, 12, 13, 20]",812122136201,Ca1Mg2Al6O12
Mg3Al(SiO4)3,mp-1222440,0.0,-2.25932794,0.17475658581339815,"{12: 3, 13: 1, 14: 3, 8: 12}","[8, 12, 13, 14]",812123131143,Mg3Al1Si3O12
KMg3Al(SiO4)3,mp-1223539,0.0,1.74930504,0.09241376528124245,"{19: 1, 12: 3, 13: 1, 14: 3, 8: 12}","[8, 12, 13, 14, 19]",812123131143191,K1Mg3Al1Si3O12
Mg3Al2(SiO4)3,mp-6073,4.9394,4.59358741,0.03907302530000045,"{12: 3, 13: 2, 14: 3, 8: 12}","[8, 12, 13, 14]",812123132143,Mg3Al2Si3O12
NbAlSi(SO6)2,mp-2713477,2.1717,0.79597563,0.053422010098038264,"{41: 1, 13: 1, 14: 1, 16: 2, 8: 12}","[8, 13, 14, 16, 41]",812131141162411,Nb1Al1Si1S2O12
TaAlSi(SO6)2,mp-2713135,2.8565,0.9994233,0.05986678269607815,"{73: 1, 13: 1, 14: 1, 16: 2, 8: 12}","[8, 13, 14, 16, 73]",812131141162731,Ta1Al1Si1S2O12
Mn3Al(SiO4)3,mp-1154487,0.6549000000000005,3.55677021,0.252459233642357,"{25: 3, 13: 1, 14: 3, 8: 12}","[8, 13, 14, 25]",812131143253,Mn3Al1Si3O12
AlCo3(SiO4)3,mp-1163946,0.43520000000000003,3.84937147,0.30729365495216054,"{13: 1, 27: 3, 14: 3, 8: 12}","[8, 13, 14, 27]",812131143273,Al1Co3Si3O12
Ca2Al(SiO3)4,mp-1214160,0.5954000000000002,2.72462932,0.15458089221690852,"{20: 2, 13: 1, 14: 4, 8: 12}","[8, 13, 14, 20]",812131144202,Ca2Al1Si4O12
CsAlSi5O12,mp-1226440,4.5621,0.55904136,0.014545220789475621,"{55: 1, 13: 1, 14: 5, 8: 12}","[8, 13, 14, 55]",812131145551,Cs1Al1Si5O12
TiAlP(SO6)2,mp-2712829,2.4535,0.84209457,0.013385232843137196,"{22: 1, 13: 1, 15: 1, 16: 2, 8: 12}","[8, 13, 15, 16, 22]",812131151162221,Ti1Al1P1S2O12
AlGeP(SO6)2,mp-2712854,2.5332999999999997,1.45121911,0.02994686941176994,"{13: 1, 32: 1, 15: 1, 16: 2, 8: 12}","[8, 13, 15, 16, 32]",812131151162321,Al1Ge1P1S2O12
ZrAlP(SO6)2,mp-2712960,4.173500000000001,0.45016115,0.026236921225489596,"{40: 1, 13: 1, 15: 1, 16: 2, 8: 12}","[8, 13, 15, 16, 40]",812131151162401,Zr1Al1P1S2O12
AlSnP(SO6)2,mp-2712928,3.1449000000000007,1.44494868,0.02920315521447492,"{13: 1, 50: 1, 15: 1, 16: 2, 8: 12}","[8, 13, 15, 16, 50]",812131151162501,Al1Sn1P1S2O12
HfAlP(SO6)2,mp-2713094,4.9456,0.62256182,0.025887469558823817,"{72: 1, 13: 1, 15: 1, 16: 2, 8: 12}","[8, 13, 15, 16, 72]",812131151162721,Hf1Al1P1S2O12
NbAlP2SO12,mp-2713365,2.6818,0.73356426,0.017728794411759452,"{41: 1, 13: 1, 15: 2, 16: 1, 8: 12}","[8, 13, 15, 16, 41]",812131152161411,Nb1Al1P2S1O12
TaAlP2SO12,mp-2713423,3.426,0.88578836,0.01658341728759538,"{73: 1, 13: 1, 15: 2, 16: 1, 8: 12}","[8, 13, 15, 16, 73]",812131152161731,Ta1Al1P2S1O12
K2AlSn(PO4)3,mp-1224126,3.6794000000000002,2.03562247,0.009065457960523382,"{19: 2, 13: 1, 50: 1, 15: 3, 8: 12}","[8, 13, 15, 19, 50]",812131153192501,K2Al1Sn1P3O12
KAl(PO3)4,mp-1019802,5.1796999999999995,0.23677226,0.0011541809722226404,"{19: 1, 13: 1, 15: 4, 8: 12}","[8, 13, 15, 19]",812131154191,K1Al1P4O12
Al(SO6)2,mp-1204923,0.0,-1.19802008,0.6499515676944467,"{13: 1, 16: 2, 8: 12}","[8, 13, 16]",812131162,Al1S2O12
ScAl(SO4)3,mp-2713743,4.2706,0.64629892,0.016131638578442242,"{21: 1, 13: 1, 16: 3, 8: 12}","[8, 13, 16, 21]",812131163211,Sc1Al1S3O12
AlGa(SO4)3,mp-2713730,4.4475999999999996,0.9552698,0.012898546372553277,"{13: 1, 31: 1, 16: 3, 8: 12}","[8, 13, 16, 31]",812131163311,Al1Ga1S3O12
AlIn(SO4)3,mp-2713949,3.9637,0.97231455,0.022074447941186293,"{13: 1, 49: 1, 16: 3, 8: 12}","[8, 13, 16, 49]",812131163491,Al1In1S3O12
LaAl(SO4)3,mp-2713959,4.5630999999999995,0.71861073,0.0499075769607904,"{57: 1, 13: 1, 16: 3, 8: 12}","[8, 13, 16, 57]",812131163571,La1Al1S3O12
CaAl2(SiO6)2,mp-1182213,0.631,1.03199694,0.3144276295142632,"{20: 1, 13: 2, 14: 2, 8: 12}","[8, 13, 14, 20]",812132142201,Ca1Al2Si2O12
Ca3Al2(SiO6)2,mp-1228003,0.0,2.25349515,0.23540710000399567,"{20: 3, 13: 2, 14: 2, 8: 12}","[8, 13, 14, 20]",812132142203,Ca3Al2Si2O12
K2Al2(SiO4)3,mp-1181274,0.38670000000000004,0.18415958,0.23420921980263198,"{19: 2, 13: 2, 14: 3, 8: 12}","[8, 13, 14, 19]",812132143192,K2Al2Si3O12
CaAl2(SiO4)3,mp-1214062,0.44229999999999997,0.06860056,0.2638834717171701,"{20: 1, 13: 2, 14: 3, 8: 12}","[8, 13, 14, 20]",812132143201,Ca1Al2Si3O12
Ca2Al2(SiO4)3,mp-1227582,0.0,1.850362,0.13574494557416372,"{20: 2, 13: 2, 14: 3, 8: 12}","[8, 13, 14, 20]",812132143202,Ca2Al2Si3O12
Ca3Al2(SiO4)3,mp-6008,4.992699999999999,3.84070321,0.000915122861107065,"{20: 3, 13: 2, 14: 3, 8: 12}","[8, 13, 14, 20]",812132143203,Ca3Al2Si3O12
Ti3Al2(SiO4)3,mp-1364639,0.36489999999999867,9.17515441,0.21580865388095383,"{22: 3, 13: 2, 14: 3, 8: 12}","[8, 13, 14, 22]",812132143223,Ti3Al2Si3O12
Al2V3(SiO4)3,mp-1163942,2.0694,6.69908123,0.09364412410416101,"{13: 2, 23: 3, 14: 3, 8: 12}","[8, 13, 14, 23]",812132143233,Al2V3Si3O12
Al2Cr3(SiO4)3,mp-1364177,2.3564,5.77174858,0.07300726316666939,"{13: 2, 24: 3, 14: 3, 8: 12}","[8, 13, 14, 24]",812132143243,Al2Cr3Si3O12
Mn3Al2(SiO4)3,mp-6480,3.5477,4.69693765,0.009527368899998834,"{25: 3, 13: 2, 14: 3, 8: 12}","[8, 13, 14, 25]",812132143253,Mn3Al2Si3O12
Al2Co3(SiO4)3,mp-6186,2.9450000000000003,4.95401193,0.04983038624999203,"{13: 2, 27: 3, 14: 3, 8: 12}","[8, 13, 14, 27]",812132143273,Al2Co3Si3O12
Sr3Al2(SiO4)3,mp-14048,4.4318,3.34349859,0.104925333374986,"{38: 3, 13: 2, 14: 3, 8: 12}","[8, 13, 14, 38]",812132143383,Sr3Al2Si3O12
Al2Cd3(SiO4)3,mp-14047,2.9522999999999997,3.59095029,0.006446239499896755,"{13: 2, 48: 3, 14: 3, 8: 12}","[8, 13, 14, 48]",812132143483,Al2Cd3Si3O12
Al2Si3(SnO4)3,mp-1163929,2.123899999999999,7.11480882,0.1760924834166735,"{13: 2, 14: 3, 50: 3, 8: 12}","[8, 13, 14, 50]",812132143503,Al2Si3Sn3O12
Al2Si3(WO4)3,mp-1328088,0.11599999999999966,8.61117117,0.7126820150416702,"{13: 2, 14: 3, 74: 3, 8: 12}","[8, 13, 14, 74]",812132143743,Al2Si3W3O12
CaAl2Si4(ClO4)3,mp-1227752,0.07830000000000001,-0.02627924,0.2533656385416654,"{20: 1, 13: 2, 14: 4, 17: 3, 8: 12}","[8, 13, 14, 17, 20]",812132144173201,Ca1Al2Si4Cl3O12
KAl2(SiO3)4,mp-1211834,1.0188000000000001,3.20693249,0.09671796853268777,"{19: 1, 13: 2, 14: 4, 8: 12}","[8, 13, 14, 19]",812132144191,K1Al2Si4O12
CaAl2(SiO3)4,mp-1214005,3.1603000000000003,4.87985891,0.20719358570175483,"{20: 1, 13: 2, 14: 4, 8: 12}","[8, 13, 14, 20]",812132144201,Ca1Al2Si4O12
Al2Ga(PO4)3,mp-1228998,5.0458,5.38923803,0.018775855555550613,"{13: 2, 31: 1, 15: 3, 8: 12}","[8, 13, 15, 31]",812132153311,Al2Ga1P3O12
Al2Tl3(PO4)3,mp-1199100,3.4362999999999997,2.46630645,0.00819295420832944,"{13: 2, 81: 3, 15: 3, 8: 12}","[8, 13, 15, 81]",812132153813,Al2Tl3P3O12
CaAl2O12,mp-1215043,0.22330000000000005,-2.30871275,0.6842393877998125,"{20: 1, 13: 2, 8: 12}","[8, 13, 20]",812132201,Ca1Al2O12
Ca3Al2O12,mp-1200701,0.45120000000000005,-0.79593776,0.4158314174369746,"{20: 3, 13: 2, 8: 12}","[8, 13, 20]",812132203,Ca3Al2O12
Mn3Al2(GeO4)3,mp-1211470,2.3798000000000004,3.35369759,0.004613981250002119,"{25: 3, 13: 2, 32: 3, 8: 12}","[8, 13, 25, 32]",812132253323,Mn3Al2Ge3O12
Al2(WO4)3,mp-19516,4.5569,-0.50652196,0.05974144257355363,"{13: 2, 74: 3, 8: 12}","[8, 13, 74]",812132743,Al2W3O12
KAl3(SiO4)3,mp-1223770,0.6673000000000002,2.23239065,0.1062464556618794,"{19: 1, 13: 3, 14: 3, 8: 12}","[8, 13, 14, 19]",812133143191,K1Al3Si3O12
K3Al3Si3(WO3)4,mp-1212431,0.02729999999999988,3.99397195,0.9916204815,"{19: 3, 13: 3, 14: 3, 74: 4, 8: 12}","[8, 13, 14, 19, 74]",812133143193744,K3Al3Si3W4O12
K4Al3(SiO4)3,mp-1019788,0.0,3.63179277,0.012380072664776698,"{19: 4, 13: 3, 14: 3, 8: 12}","[8, 13, 14, 19]",812133143194,K4Al3Si3O12
RbAl3Cd(SiO4)3,mp-1250508,2.795,-1.34781068,0.06982292000000268,"{37: 1, 13: 3, 48: 1, 14: 3, 8: 12}","[8, 13, 14, 37, 48]",812133143371481,Rb1Al3Cd1Si3O12
CsAl3(SiO4)3,mp-1226735,3.0296000000000003,2.13802608,0.1988473046092487,"{55: 1, 13: 3, 14: 3, 8: 12}","[8, 13, 14, 55]",812133143551,Cs1Al3Si3O12
Eu3Sc2Al3O12,mp-1213328,0.17289999999999983,3.05381864,0.07615175368750116,"{63: 3, 21: 2, 13: 3, 8: 12}","[8, 13, 21, 63]",812133212633,Eu3Sc2Al3O12
Tm3Sc2Al3O12,mp-1207916,4.9796000000000005,7.63350158,0.0038203339625138,"{69: 3, 21: 2, 13: 3, 8: 12}","[8, 13, 21, 69]",812133212693,Tm3Sc2Al3O12
Sr3LaTaAl3O12,mp-1232343,0.0,4.52149097,0.03304702121250003,"{38: 3, 57: 1, 73: 1, 13: 3, 8: 12}","[8, 13, 38, 57, 73]",812133383571731,Sr3La1Ta1Al3O12
Sr3NdTaAl3O12,mp-1232353,0.0,3.85432699,0.04192389187499579,"{38: 3, 60: 1, 73: 1, 13: 3, 8: 12}","[8, 13, 38, 60, 73]",812133383601731,Sr3Nd1Ta1Al3O12
Ca3Al4SiO12,mp-1227806,0.0,2.11812911,0.18428026418698096,"{20: 3, 13: 4, 14: 1, 8: 12}","[8, 13, 14, 20]",812134141203,Ca3Al4Si1O12
KAl4(SiO6)2,mp-727941,0.49629999999999996,1.11600422,0.38892184895334747,"{19: 1, 13: 4, 14: 2, 8: 12}","[8, 13, 14, 19]",812134142191,K1Al4Si2O12
CaAl4(SiO6)2,mp-1226977,2.8867,6.45702483,0.2080405686921818,"{20: 1, 13: 4, 14: 2, 8: 12}","[8, 13, 14, 20]",812134142201,Ca1Al4Si2O12
CaAl4Tl4O12,mp-1233248,0.8502999999999998,4.04114756,0.16295815920634293,"{20: 1, 13: 4, 81: 4, 8: 12}","[8, 13, 20, 81]",812134201814,Ca1Al4Tl4O12
Al4Zn3Cr2O12,mp-1228406,3.5397000000000003,7.0771114,0.0024768688095253566,"{13: 4, 30: 3, 24: 2, 8: 12}","[8, 13, 24, 30]",812134242303,Al4Zn3Cr2O12
Al4(CoO4)3,mp-1358877,0.0,3.09816405,0.22193592849282773,"{13: 4, 27: 3, 8: 12}","[8, 13, 27]",812134273,Al4Co3O12
LaPr3Al4O12,mp-1222844,3.9075999999999995,9.62199071,0.0017020790000010777,"{57: 1, 59: 3, 13: 4, 8: 12}","[8, 13, 57, 59]",812134571593,La1Pr3Al4O12
Nd3GdAl4O12,mp-1220286,2.9123,4.77459166,0.006367531599943632,"{60: 3, 64: 1, 13: 4, 8: 12}","[8, 13, 60, 64]",812134603641,Nd3Gd1Al4O12
SmGd3Al4O12,mp-1219063,3.2490000000000006,7.59090362,0.006933821175024946,"{62: 1, 64: 3, 13: 4, 8: 12}","[8, 13, 62, 64]",812134621643,Sm1Gd3Al4O12
Al5(CoO4)3,mp-1252778,0.3208000000000002,4.62743978,0.1217698896250079,"{13: 5, 27: 3, 8: 12}","[8, 13, 27]",812135273,Al5Co3O12
La3Al5O12,mp-780432,3.7947999999999995,5.39479331,0.033636704375002324,"{57: 3, 13: 5, 8: 12}","[8, 13, 57]",812135573,La3Al5O12
Eu3Al5O12,mp-21757,0.0,3.74770411,0.08751601537499809,"{63: 3, 13: 5, 8: 12}","[8, 13, 63]",812135633,Eu3Al5O12
Sr7Ca2Al3(O4F)3,mp-1218613,4.1698,6.80317433,0.029223408078705937,"{38: 7, 20: 2, 13: 3, 8: 12, 9: 3}","[8, 9, 13, 20, 38]",81293133202387,Sr7Ca2Al3O12F3
RbNa2Al3Si3O13,mp-1219624,0.18829999999999997,0.60190862,0.09218586022726782,"{37: 1, 11: 2, 13: 3, 14: 3, 8: 13}","[8, 11, 13, 14, 37]",813112133143371,Rb1Na2Al3Si3O13
RbNa2Al3Ge3O13,mp-1219623,0.2783,-0.14012663,0.08625449477789005,"{37: 1, 11: 2, 13: 3, 32: 3, 8: 13}","[8, 11, 13, 32, 37]",813112133323371,Rb1Na2Al3Ge3O13
Na4Al3Ge3O13,mp-1221239,0.9989,0.49800834,0.048727870385372185,"{11: 4, 13: 3, 32: 3, 8: 13}","[8, 11, 13, 32]",813114133323,Na4Al3Ge3O13
La5AlSi2O13,mp-1223240,4.157800000000001,5.18796294,0.0032575316666729748,"{57: 5, 13: 1, 14: 2, 8: 13}","[8, 13, 14, 57]",813131142575,La5Al1Si2O13
AlSb3Pb4O13,mp-1228843,1.3571999999999997,5.6518357,0.00451186944755122,"{13: 1, 51: 3, 82: 4, 8: 13}","[8, 13, 51, 82]",813131513824,Al1Sb3Pb4O13
CaAl2Si3O13,mp-1202493,0.5198,0.19236628,0.32780641333731975,"{20: 1, 13: 2, 14: 3, 8: 13}","[8, 13, 14, 20]",813132143201,Ca1Al2Si3O13
Ca2MnAl2Si3O13,mp-1227903,0.0,3.50443016,0.08311163146825962,"{20: 2, 25: 1, 13: 2, 14: 3, 8: 13}","[8, 13, 14, 20, 25]",813132143202251,Ca2Mn1Al2Si3O13
K3Al2Si4O13,mp-736542,0.0,-1.41481738,0.03796569090909507,"{19: 3, 13: 2, 14: 4, 8: 13}","[8, 13, 14, 19]",813132144193,K3Al2Si4O13
Al2P3O13,mp-1201085,0.015900000000000025,-0.92158781,0.6299468663888863,"{13: 2, 15: 3, 8: 13}","[8, 13, 15]",813132153,Al2P3O13
Ca2Al3Si3O13,mp-732195,0.0950000000000002,3.42634497,0.07410392232684071,"{20: 2, 13: 3, 14: 3, 8: 13}","[8, 13, 14, 20]",813133143202,Ca2Al3Si3O13
Al3Si3Pb2O13,mp-1200284,0.06409999999999982,4.04360294,0.08663604836309169,"{13: 3, 14: 3, 82: 2, 8: 13}","[8, 13, 14, 82]",813133143822,Al3Si3Pb2O13
Ca4Al6O13,mp-7531,3.9417999999999997,0.98036617,0.01348162108686779,"{20: 4, 13: 6, 8: 13}","[8, 13, 20]",813136204,Ca4Al6O13
Ca3TiAl2Si3O13F2,mp-43114,3.0993,3.01675598,0.02148912041665696,"{20: 3, 22: 1, 13: 2, 14: 3, 8: 13, 9: 2}","[8, 9, 13, 14, 20, 22]",81392132143203221,Ca3Ti1Al2Si3O13F2
NaAl(SO7)2,mp-1199224,0.0,-2.25268171,0.6560386081944447,"{11: 1, 13: 1, 16: 2, 8: 14}","[8, 11, 13, 16]",814111131162,Na1Al1S2O14
NaAl3(PO7)2,mp-1200599,0.00029999999999996696,0.85391739,0.372881806784088,"{11: 1, 13: 3, 15: 2, 8: 14}","[8, 11, 13, 15]",814111133152,Na1Al3P2O14
NaAl3(SO7)2,mp-1189579,0.0,0.76452344,0.2961641172954632,"{11: 1, 13: 3, 16: 2, 8: 14}","[8, 11, 13, 16]",814111133162,Na1Al3S2O14
NaAl3Cr2O14,mp-1180189,0.0,0.15544494,0.29857670163066974,"{11: 1, 13: 3, 24: 2, 8: 14}","[8, 11, 13, 24]",814111133242,Na1Al3Cr2O14
Na2Al(P2O7)2,mp-1191319,0.23440000000000003,0.27077418,0.1031690493253965,"{11: 2, 13: 1, 15: 4, 8: 14}","[8, 11, 13, 15]",814112131154,Na2Al1P4O14
Na2AlCr(P2O7)2,mp-1221476,3.3801,1.9327333,0.005104995075758012,"{11: 2, 13: 1, 24: 1, 15: 4, 8: 14}","[8, 11, 13, 15, 24]",814112131154241,Na2Al1Cr1P4O14
Na2Al2Si3O14,mp-1204609,1.4657999999999998,0.64002078,0.26437736961309355,"{11: 2, 13: 2, 14: 3, 8: 14}","[8, 11, 13, 14]",814112132143,Na2Al2Si3O14
Na3Al3Si3O14,mp-1221765,0.3687,0.67827286,0.1779211010325925,"{11: 3, 13: 3, 14: 3, 8: 14}","[8, 11, 13, 14]",814113133143,Na3Al3Si3O14
Ca2MgAl2Si3O14,mp-1214260,0.006399999999999739,2.30277476,0.19552421716253754,"{20: 2, 12: 1, 13: 2, 14: 3, 8: 14}","[8, 12, 13, 14, 20]",814121132143202,Ca2Mg1Al2Si3O14
Ca4MgAl2Si3O14,mp-1227598,4.308999999999999,2.10175233,0.02615541315971992,"{20: 4, 12: 1, 13: 2, 14: 3, 8: 14}","[8, 12, 13, 14, 20]",814121132143204,Ca4Mg1Al2Si3O14
KAl(SO7)2,mp-1205042,0.07510000000000039,-3.34260837,1.9538805181944436,"{19: 1, 13: 1, 16: 2, 8: 14}","[8, 13, 16, 19]",814131162191,K1Al1S2O14
CaAl2(Si2O7)2,mp-1227927,0.16410000000000002,-0.36124986,0.23453478405123107,"{20: 1, 13: 2, 14: 4, 8: 14}","[8, 13, 14, 20]",814132144201,Ca1Al2Si4O14
La3Al2Ga3SnO14,mp-1223112,3.6378000000000004,3.77521315,0.0019501476086976055,"{57: 3, 13: 2, 31: 3, 50: 1, 8: 14}","[8, 13, 31, 50, 57]",814132313501573,La3Al2Ga3Sn1O14
Ca2Al3Si3O14,mp-1214293,0.0,2.66322992,0.1607190275619823,"{20: 2, 13: 3, 14: 3, 8: 14}","[8, 13, 14, 20]",814133143202,Ca2Al3Si3O14
Mn2Al3Si3O14,mp-1210830,0.0,3.68723891,0.23136179996729211,"{25: 2, 13: 3, 14: 3, 8: 14}","[8, 13, 14, 25]",814133143252,Mn2Al3Si3O14
CaAl3PSO14,mp-1226903,0.0,1.52282444,0.3358876382121192,"{20: 1, 13: 3, 15: 1, 16: 1, 8: 14}","[8, 13, 15, 16, 20]",814133151161201,Ca1Al3P1S1O14
SrAl3PSO14,mp-1218535,0.0,1.11271638,0.3178196693371209,"{38: 1, 13: 3, 15: 1, 16: 1, 8: 14}","[8, 13, 15, 16, 38]",814133151161381,Sr1Al3P1S1O14
SrAl3(PO7)2,mp-1179134,0.00670000000000015,1.17643347,0.34411944296212216,"{38: 1, 13: 3, 15: 2, 8: 14}","[8, 13, 15, 38]",814133152381,Sr1Al3P2O14