formula,material_id,band_gap,efermi,energy_above_hull,comp_atoms,sorted_keys_comp_atoms,comp_number,new_formula
BPd2,mp-7424,0.0,5.2143708,0.0,"{5: 1, 46: 2}","[5, 46]",51462,B1Pd2
BPd3,mp-20517,0.0,5.08191203,0.0,"{5: 1, 46: 3}","[5, 46]",51463,B1Pd3
LaBPd3,mp-3846,0.0,6.92841046,0.14408425519999923,"{57: 1, 5: 1, 46: 3}","[5, 46, 57]",51463571,La1B1Pd3
CeBPd3,mp-19948,0.0,6.6209927,0.20786606866666446,"{58: 1, 5: 1, 46: 3}","[5, 46, 58]",51463581,Ce1B1Pd3
PrBPd3,mp-2976,0.0,5.14670399,0.11091275293333336,"{59: 1, 5: 1, 46: 3}","[5, 46, 59]",51463591,Pr1B1Pd3
NdBPd3,mp-10120,0.0,5.10998996,0.1113346617333324,"{60: 1, 5: 1, 46: 3}","[5, 46, 60]",51463601,Nd1B1Pd3
SmBPd3,mp-3428,0.0,4.96328576,0.10793925681818095,"{62: 1, 5: 1, 46: 3}","[5, 46, 62]",51463621,Sm1B1Pd3
EuBPd3,mp-20040,0.0,4.68011849,0.07280895046428526,"{63: 1, 5: 1, 46: 3}","[5, 46, 63]",51463631,Eu1B1Pd3
GdBPd3,mp-20967,0.0,4.82154731,0.12072131063636249,"{64: 1, 5: 1, 46: 3}","[5, 46, 64]",51463641,Gd1B1Pd3
TbBPd3,mp-3022,0.0,5.16835018,0.11274995509090502,"{65: 1, 5: 1, 46: 3}","[5, 46, 65]",51463651,Tb1B1Pd3
DyBPd3,mp-10060,0.0,5.14098084,0.11293425036364013,"{66: 1, 5: 1, 46: 3}","[5, 46, 66]",51463661,Dy1B1Pd3
HoBPd3,mp-3693,0.0,5.09577252,0.11294318209089838,"{67: 1, 5: 1, 46: 3}","[5, 46, 67]",51463671,Ho1B1Pd3
ErBPd3,mp-10061,0.0,5.1037359,0.11476224599999796,"{68: 1, 5: 1, 46: 3}","[5, 46, 68]",51463681,Er1B1Pd3
TmBPd3,mp-10134,0.0,5.07170472,0.11403531081818485,"{69: 1, 5: 1, 46: 3}","[5, 46, 69]",51463691,Tm1B1Pd3
LuBPd3,mp-3105,0.0,5.03894417,0.11490506962962854,"{71: 1, 5: 1, 46: 3}","[5, 46, 71]",51463711,Lu1B1Pd3
BPd4,mp-1228682,0.0,4.19437406,0.2419539392499992,"{5: 1, 46: 4}","[5, 46]",51464,B1Pd4
BPd5,mp-1190529,0.0,4.63012109,0.0,"{5: 1, 46: 5}","[5, 46]",51465,B1Pd5
BPd6,mp-1214755,0.0,3.9564266,0.0,"{5: 1, 46: 6}","[5, 46]",51466,B1Pd6
Ce2BPd6,mp-1226779,0.0,6.84200522,0.11222538814815053,"{58: 2, 5: 1, 46: 6}","[5, 46, 58]",51466582,Ce2B1Pd6
Eu2BPd6,mp-1225365,0.0,4.36958198,0.0,"{63: 2, 5: 1, 46: 6}","[5, 46, 63]",51466632,Eu2B1Pd6
Er2BPd6,mp-1225046,0.0,5.3164457,0.012347829747479722,"{68: 2, 5: 1, 46: 6}","[5, 46, 68]",51466682,Er2B1Pd6
HfAgB,mp-1100399,0.0,3.06224967,1.4555748130555592,"{72: 1, 47: 1, 5: 1}","[5, 47, 72]",51471721,Hf1Ag1B1
Sr4B14O25,mp-559330,5.206200000000001,1.06678092,0.0,"{38: 4, 5: 14, 8: 25}","[5, 8, 38]",514825384,Sr4B14O25
La4B14O27,mp-645962,3.9245000000000005,3.37075295,0.0,"{57: 4, 5: 14, 8: 27}","[5, 8, 57]",514827574,La4B14O27
Ce4B14O27,mp-1019597,0.16739999999999977,6.56200785,0.018457673481480086,"{58: 4, 5: 14, 8: 27}","[5, 8, 58]",514827584,Ce4B14O27
Cd3B,mp-1183580,0.0,3.12242417,0.8491517252083334,"{48: 3, 5: 1}","[5, 48]",51483,Cd3B1
La3InB,mp-20590,0.0,7.04290865,0.20274191400000063,"{57: 3, 49: 1, 5: 1}","[5, 49, 57]",51491573,La3In1B1
In2ReB,mp-631547,0.0,7.73640969,1.6446095745000022,"{49: 2, 75: 1, 5: 1}","[5, 49, 75]",51492751,In2Re1B1
In3B,mp-1184483,0.0,6.86447941,0.9006224002083343,"{49: 3, 5: 1}","[5, 49]",51493,In3B1
SnB,mp-978886,0.0,6.45416685,0.7711706804166667,"{50: 1, 5: 1}","[5, 50]",51501,Sn1B1
Sn3B,mp-1187032,0.0,7.38185678,0.921080893958333,"{50: 3, 5: 1}","[5, 50]",51503,Sn3B1
BSb,mp-997618,0.7506000000000004,7.39875977,0.273972750416668,"{5: 1, 51: 1}","[5, 51]",51511,B1Sb1
NaB15,mp-2315,0.0,5.19894855,0.0,"{11: 1, 5: 15}","[5, 11]",515111,Na1B15
BiBTe,mp-631511,0.0,6.19064503,1.2535360886111104,"{83: 1, 5: 1, 52: 1}","[5, 52, 83]",51521831,Bi1B1Te1
TlBTe2,mp-631520,0.0,6.18963878,1.1698621656250001,"{81: 1, 5: 1, 52: 2}","[5, 52, 81]",51522811,Tl1B1Te2
Ta4BTe8,mp-505499,0.0,5.73404393,0.0,"{73: 4, 5: 1, 52: 8}","[5, 52, 73]",51528734,Ta4B1Te8
BI3,mp-23189,2.6901,-0.6082331,0.0,"{5: 1, 53: 3}","[5, 53]",51533,B1I3
Zr4(B5Ir4)3,mp-1215396,0.0,8.66422155,0.0,"{40: 4, 5: 15, 77: 12}","[5, 40, 77]",5154047712,Zr4B15Ir12
CsB,mp-1060982,0.0,1.05151543,2.1456535114511492,"{55: 1, 5: 1}","[5, 55]",51551,Cs1B1
LaReB,mp-631508,0.0,7.48293785,1.431116302777781,"{57: 1, 75: 1, 5: 1}","[5, 57, 75]",51571751,La1Re1B1
LaBPt2,mp-31052,0.0,7.95654057,0.0,"{57: 1, 5: 1, 78: 2}","[5, 57, 78]",51571782,La1B1Pt2
LaBPt3,mp-1018633,0.0,7.94067383,0.16968911550000598,"{57: 1, 5: 1, 78: 3}","[5, 57, 78]",51571783,La1B1Pt3
LaBPt4,mp-1211262,0.0,7.98450874,0.0,"{57: 1, 5: 1, 78: 4}","[5, 57, 78]",51571784,La1B1Pt4
La5BPb3,mp-1105575,0.0,7.2848976,0.12336724124999598,"{57: 5, 5: 1, 82: 3}","[5, 57, 82]",51575823,La5B1Pb3
CeBPt2,mp-10468,0.0,7.84086318,0.015580327968748975,"{58: 1, 5: 1, 78: 2}","[5, 58, 78]",51581782,Ce1B1Pt2
CeBPt3,mp-22435,0.0,8.16854071,0.0,"{58: 1, 5: 1, 78: 3}","[5, 58, 78]",51581783,Ce1B1Pt3
CeBPt4,mp-20051,0.0,7.73695499,0.0,"{58: 1, 5: 1, 78: 4}","[5, 58, 78]",51581784,Ce1B1Pt4
CsAg2(B5O8)3,mp-679997,3.5033000000000003,0.21747745,0.0,"{55: 1, 47: 2, 5: 15, 8: 24}","[5, 8, 47, 55]",515824472551,Cs1Ag2B15O24
Th2B15,mp-1217367,0.0,6.9924511,0.011059157205885128,"{90: 2, 5: 15}","[5, 90]",515902,Th2B15
PrBPt2,mp-1209526,0.0,6.02584771,0.0,"{59: 1, 5: 1, 78: 2}","[5, 59, 78]",51591782,Pr1B1Pt2
PrBPt3,mp-11596,0.0,6.63589899,0.0,"{59: 1, 5: 1, 78: 3}","[5, 59, 78]",51591783,Pr1B1Pt3
PrBPt4,mp-13483,0.0,6.47777626,0.0,"{59: 1, 5: 1, 78: 4}","[5, 59, 78]",51591784,Pr1B1Pt4
NdBPt2,mp-569341,0.0,5.75614931,0.0,"{60: 1, 5: 1, 78: 2}","[5, 60, 78]",51601782,Nd1B1Pt2
NdBPt3,mp-11597,0.0,6.55258416,0.0,"{60: 1, 5: 1, 78: 3}","[5, 60, 78]",51601783,Nd1B1Pt3
NdBPt4,mp-1209829,0.0,6.44301754,0.0,"{60: 1, 5: 1, 78: 4}","[5, 60, 78]",51601784,Nd1B1Pt4
Mg10B16Ir19,mp-568548,0.0,7.00916186,0.0,"{12: 10, 5: 16, 77: 19}","[5, 12, 77]",51612107719,Mg10B16Ir19
Co5B16,mp-1194572,0.0,7.51862775,0.029816534722222343,"{27: 5, 5: 16}","[5, 27]",516275,Co5B16
EuBPt4,mp-1103637,0.0,5.81305857,0.0,"{63: 1, 5: 1, 78: 4}","[5, 63, 78]",51631784,Eu1B1Pt4
Er2BPt6,mp-1225050,0.0,6.72801182,0.0,"{68: 2, 5: 1, 78: 6}","[5, 68, 78]",51682786,Er2B1Pt6
Rb2Cd3(B4O7)4,mp-1200744,4.5081,0.09991722,0.005010448167362291,"{37: 2, 48: 3, 5: 16, 8: 28}","[5, 8, 37, 48]",516828372483,Rb2Cd3B16O28
Cs2Cd3(B4O7)4,mp-1201213,4.5525,0.33336225,0.0019591232448910034,"{55: 2, 48: 3, 5: 16, 8: 28}","[5, 8, 48, 55]",516828483552,Cs2Cd3B16O28
TmBPt2,mp-1103146,0.0,5.94304015,0.0,"{69: 1, 5: 1, 78: 2}","[5, 69, 78]",51691782,Tm1B1Pt2
BN,mp-604884,4.3683,2.25632505,0.0,"{5: 1, 7: 1}","[5, 7]",5171,B1N1
Na2BN,mp-1189680,0.0,2.19550081,0.5787397235991376,"{11: 2, 5: 1, 7: 1}","[5, 7, 11]",5171112,Na2B1N1
BPBr2NCl3,mp-568514,2.9078,-0.33850727,0.05745217925000379,"{5: 1, 15: 1, 35: 2, 7: 1, 17: 3}","[5, 7, 15, 17, 35]",5171151173352,B1P1Br2N1Cl3
BNCl,mp-726087,0.0,-1.6707046,0.7178638500000023,"{5: 1, 7: 1, 17: 1}","[5, 7, 17]",5171171,B1N1Cl1
BNCl2,mp-23045,2.8370999999999995,-0.46903595,0.24423907874999884,"{5: 1, 7: 1, 17: 2}","[5, 7, 17]",5171172,B1N1Cl2
BNCl4,mp-1247897,0.5600999999999998,-3.2919379,0.42688248305555465,"{5: 1, 7: 1, 17: 4}","[5, 7, 17]",5171174,B1N1Cl4
LuBPt2,mp-1095320,0.0,5.94184872,0.0,"{71: 1, 5: 1, 78: 2}","[5, 71, 78]",51711782,Lu1B1Pt2
Zr2BN,mp-1215435,0.0,5.73380572,0.11345460875000057,"{40: 2, 5: 1, 7: 1}","[5, 7, 40]",5171402,Zr2B1N1
SrBNO,mp-554759,3.2544999999999997,2.48474972,0.031448794166665905,"{38: 1, 5: 1, 7: 1, 8: 1}","[5, 7, 8, 38]",517181381,Sr1B1N1O1
Si8BNO18,mp-728690,0.0,-1.41878959,0.26740489796130795,"{14: 8, 5: 1, 7: 1, 8: 18}","[5, 7, 8, 14]",5171818148,Si8B1N1O18
BN(OF2)2,mp-555207,3.0021999999999998,-2.93167039,0.0,"{5: 1, 7: 1, 8: 2, 9: 4}","[5, 7, 8, 9]",51718294,B1N1O2F4
VBP2NO9,mp-1207936,1.3636000000000001,-0.13240636,0.41110034732142786,"{23: 1, 5: 1, 15: 2, 7: 1, 8: 9}","[5, 7, 8, 15, 23]",517189152231,V1B1P2N1O9
UBN,mp-5311,0.0,11.9347842,0.0,"{92: 1, 5: 1, 7: 1}","[5, 7, 92]",5171921,U1B1N1
K3B17,mp-684709,0.0,2.82417695,0.11827181580833379,"{19: 3, 5: 17}","[5, 19]",517193,K3B17
BNF4,mp-1182455,2.7230999999999996,-4.00689525,0.7460453397499966,"{5: 1, 7: 1, 9: 4}","[5, 7, 9]",517194,B1N1F4
BNF8,mp-4674,2.9979,-2.83626763,0.0,"{5: 1, 7: 1, 9: 8}","[5, 7, 9]",517198,B1N1F8
HfB,mp-345,0.0,5.47241848,0.3499170749999969,"{72: 1, 5: 1}","[5, 72]",51721,Hf1B1
KNa2BN2,mp-1019888,1.8180999999999998,1.39552809,0.0,"{19: 1, 11: 2, 5: 1, 7: 2}","[5, 7, 11, 19]",5172112191,K1Na2B1N2
Na3BN2,mp-28630,1.6485000000000003,1.43576793,0.0,"{11: 3, 5: 1, 7: 2}","[5, 7, 11]",5172113,Na3B1N2
Mg2BN2Cl,mp-581639,3.6701,1.90908453,0.02583329843750093,"{12: 2, 5: 1, 7: 2, 17: 1}","[5, 7, 12, 17]",5172122171,Mg2B1N2Cl1
Mg2BBrN2,mp-1102794,3.3419,1.62577456,0.030306329479167005,"{12: 2, 5: 1, 35: 1, 7: 2}","[5, 7, 12, 35]",5172122351,Mg2B1Br1N2
AlBN2,mp-1008557,3.0501000000000005,6.95383772,0.3846442475000007,"{13: 1, 5: 1, 7: 2}","[5, 7, 13]",5172131,Al1B1N2
BP2N2Cl7,mp-569608,2.9211,-0.35824385,0.0016078472916678521,"{5: 1, 15: 2, 7: 2, 17: 7}","[5, 7, 15, 17]",5172152177,B1P2N2Cl7
BN2Cl,mp-1106370,0.483,0.0585445,1.123198117500003,"{5: 1, 7: 2, 17: 1}","[5, 7, 17]",5172171,B1N2Cl1
Ca2BN2Cl,mp-23632,3.333,2.18110453,0.0,"{20: 2, 5: 1, 7: 2, 17: 1}","[5, 7, 17, 20]",5172171202,Ca2B1N2Cl1
Sr2BN2Cl,mp-23131,2.7508,1.73988163,0.0,"{38: 2, 5: 1, 7: 2, 17: 1}","[5, 7, 17, 38]",5172171382,Sr2B1N2Cl1
K3BN2,mp-1029756,1.5852000000000002,1.08516139,0.03594743602777761,"{19: 3, 5: 1, 7: 2}","[5, 7, 19]",5172193,K3B1N2
Ca3BI3N2,mp-1195197,3.9459999999999997,1.44950382,0.0,"{20: 3, 5: 1, 53: 3, 7: 2}","[5, 7, 20, 53]",5172203533,Ca3B1I3N2
ScBN2,mp-1245522,1.8730000000000002,5.00895121,0.2564796474999991,"{21: 1, 5: 1, 7: 2}","[5, 7, 21]",5172211,Sc1B1N2
CrBN2,mp-1246479,0.6791999999999998,5.22241172,0.40542755124999985,"{24: 1, 5: 1, 7: 2}","[5, 7, 24]",5172241,Cr1B1N2
Hf2BIr6,mp-1223830,0.0,8.27120926,0.0,"{72: 2, 5: 1, 77: 6}","[5, 72, 77]",51722776,Hf2B1Ir6
Hf2BiB,mp-631558,0.0,5.98007639,1.4865406254166675,"{72: 2, 83: 1, 5: 1}","[5, 72, 83]",51722831,Hf2Bi1B1
GaBN2,mp-1007823,3.1499000000000006,5.75573523,0.3843638125000002,"{31: 1, 5: 1, 7: 2}","[5, 7, 31]",5172311,Ga1B1N2
Sr2BBrN2,mp-1077553,2.4076,1.51197353,0.0,"{38: 2, 5: 1, 35: 1, 7: 2}","[5, 7, 35, 38]",5172351382,Sr2B1Br1N2
Eu2BBrN2,mp-1077381,0.0,4.64389404,0.0,"{63: 2, 5: 1, 35: 1, 7: 2}","[5, 7, 35, 63]",5172351632,Eu2B1Br1N2
Rb3BN2,mp-1247386,1.2192000000000003,2.71199652,0.1093596936111112,"{37: 3, 5: 1, 7: 2}","[5, 7, 37]",5172373,Rb3B1N2
Sr2BIN2,mp-569810,2.5325999999999995,1.77565438,0.0,"{38: 2, 5: 1, 53: 1, 7: 2}","[5, 7, 38, 53]",5172382531,Sr2B1I1N2
InBN2,mp-1246039,1.7912,4.70560179,0.3147836399999999,"{49: 1, 5: 1, 7: 2}","[5, 7, 49]",5172491,In1B1N2
Eu2BIN2,mp-1192731,0.18949999999999978,4.47893743,0.0,"{63: 2, 5: 1, 53: 1, 7: 2}","[5, 7, 53, 63]",5172531632,Eu2B1I1N2
Cs3BN2,mp-1247247,0.6065999999999998,2.83017509,0.15961527883620974,"{55: 3, 5: 1, 7: 2}","[5, 7, 55]",5172553,Cs3B1N2
LaBN2,mp-29597,2.1727999999999996,6.9589824,0.0,"{57: 1, 5: 1, 7: 2}","[5, 7, 57]",5172571,La1B1N2
CeBN2,mp-29595,0.0,8.69433899,0.07258627208333301,"{58: 1, 5: 1, 7: 2}","[5, 7, 58]",5172581,Ce1B1N2
PrBN2,mp-9028,2.1062000000000003,3.85478774,0.0,"{59: 1, 5: 1, 7: 2}","[5, 7, 59]",5172591,Pr1B1N2
NdBN2,mp-1192144,2.1679999999999997,3.83755335,0.0,"{60: 1, 5: 1, 7: 2}","[5, 7, 60]",5172601,Nd1B1N2
SmBN2,mp-1192040,2.3704,3.73306888,0.0,"{62: 1, 5: 1, 7: 2}","[5, 7, 62]",5172621,Sm1B1N2
EuBN2,mp-1019734,0.0,3.12614175,0.0,"{63: 1, 5: 1, 7: 2}","[5, 7, 63]",5172631,Eu1B1N2
GdBN2,mp-1192012,2.1031,5.7583301,0.0,"{64: 1, 5: 1, 7: 2}","[5, 7, 64]",5172641,Gd1B1N2
BS2N2OF7,mp-556762,4.9587,-2.03714304,0.23526242509615614,"{5: 1, 16: 2, 7: 2, 8: 1, 9: 7}","[5, 7, 8, 9, 16]",51728197162,B1S2N2O1F7
La3BN2O3,mp-1019895,1.2114000000000011,7.27938992,0.03452849328704133,"{57: 3, 5: 1, 7: 2, 8: 3}","[5, 7, 8, 57]",517283573,La3B1N2O3
Ca2BN2F,mp-10233,2.9265,2.47755298,0.0,"{20: 2, 5: 1, 7: 2, 9: 1}","[5, 7, 9, 20]",517291202,Ca2B1N2F1
Sr2BN2F,mp-10234,2.5675,2.0463315,0.0,"{38: 2, 5: 1, 7: 2, 9: 1}","[5, 7, 9, 38]",517291382,Sr2B1N2F1
Hf9BW4,mp-1212438,0.0,5.19599798,0.020374634285708737,"{72: 9, 5: 1, 74: 4}","[5, 72, 74]",51729744,Hf9B1W4
Hf9Re4B,mp-1193562,0.0,5.5351145,0.0,"{72: 9, 75: 4, 5: 1}","[5, 72, 75]",51729754,Hf9Re4B1
Hf9BOs4,mp-1193665,0.0,5.8235527,0.10370432607143698,"{72: 9, 5: 1, 76: 4}","[5, 72, 76]",51729764,Hf9B1Os4
TaB,mp-1097,0.0,7.93101406,0.0,"{73: 1, 5: 1}","[5, 73]",51731,Ta1B1
Mg3BN3,mp-28955,1.3798,3.37584973,0.030753059821428508,"{12: 3, 5: 1, 7: 3}","[5, 7, 12]",5173123,Mg3B1N3
BN3Cl2,mp-27486,3.0347,-1.53716228,0.17586858402777672,"{5: 1, 7: 3, 17: 2}","[5, 7, 17]",5173172,B1N3Cl2
Ta2B,mp-1032,0.0,6.41356212,0.03365034711111292,"{73: 2, 5: 1}","[5, 73]",51732,Ta2B1
Ca3BN3,mp-30315,0.5682,4.22677379,0.0,"{20: 3, 5: 1, 7: 3}","[5, 7, 20]",5173203,Ca3B1N3
Sr3BN3,mp-1029665,0.4152,2.9556099,0.08747651726190497,"{38: 3, 5: 1, 7: 3}","[5, 7, 38]",5173383,Sr3B1N3
Zr4BN3,mp-1246929,0.0,6.53901389,0.006753295624999822,"{40: 4, 5: 1, 7: 3}","[5, 7, 40]",5173404,Zr4B1N3
BMoN3,mp-1246423,1.0201000000000002,0.9895695,0.3811303927999994,"{5: 1, 42: 1, 7: 3}","[5, 7, 42]",5173421,B1Mo1N3
Ta2BN3,mp-972309,0.0,5.40890469,1.1313573713888943,"{73: 2, 5: 1, 7: 3}","[5, 7, 73]",5173732,Ta2B1N3
La6B(NO2)3,mp-560824,1.0926,7.26402808,0.004528767070310025,"{57: 6, 5: 1, 7: 3, 8: 6}","[5, 7, 8, 57]",517386576,La6B1N3O6
BW,mp-7832,0.0,9.03897167,0.0,"{5: 1, 74: 1}","[5, 74]",51741,B1W1
Al3BN4,mp-1019380,3.3606000000000007,6.4541594,0.2518434000000003,"{13: 3, 5: 1, 7: 4}","[5, 7, 13]",5174133,Al3B1N4
ReBW,mp-1219534,0.0,8.22513851,0.034621256944440404,"{75: 1, 5: 1, 74: 1}","[5, 74, 75]",51741751,Re1B1W1
BW2,mp-1113,0.0,7.79395943,0.0,"{5: 1, 74: 2}","[5, 74]",51742,B1W2
Ga3BN4,mp-1019743,2.3955,4.37024359,0.2234889624999994,"{31: 3, 5: 1, 7: 4}","[5, 7, 31]",5174313,Ga3B1N4
BS4N4F3,mp-16813,1.8149,-0.32622795,0.19156156645833278,"{5: 1, 16: 4, 7: 4, 9: 3}","[5, 7, 9, 16]",517493164,B1S4N4F3
BS4(NF)4,mp-1201734,0.42069999999999996,0.37801718,0.19395055615384393,"{5: 1, 16: 4, 7: 4, 9: 4}","[5, 7, 9, 16]",517494164,B1S4N4F4
ReB,mp-28893,0.0,4.84720051,0.35085773275000065,"{75: 1, 5: 1}","[5, 75]",51751,Re1B1
Re3B,mp-15671,0.0,8.08525993,0.0,"{75: 3, 5: 1}","[5, 75]",51753,Re3B1
BOs,mp-997617,0.0,8.5792653,0.0,"{5: 1, 76: 1}","[5, 76]",51761,B1Os1
BOs3,mp-1183263,0.0,8.44162066,0.8959248875000014,"{5: 1, 76: 3}","[5, 76]",51763,B1Os3
BIr,mp-1183252,0.0,8.99016396,0.0,"{5: 1, 77: 1}","[5, 77]",51771,B1Ir1
BPt,mp-1096829,0.0,7.46293432,0.19370460770833375,"{5: 1, 78: 1}","[5, 78]",51781,B1Pt1
BPt2,mp-1077788,0.0,7.23534583,0.0,"{5: 1, 78: 2}","[5, 78]",51782,B1Pt2
BPt3,mp-861943,0.0,5.87431163,0.11299173750000335,"{5: 1, 78: 3}","[5, 78]",51783,B1Pt3
BAu,mp-1183149,0.0,4.36360734,0.8404483029166663,"{5: 1, 79: 1}","[5, 79]",51791,B1Au1
B17F27,mp-30935,2.5751,-2.30382041,0.16120769014204583,"{5: 17, 9: 27}","[5, 9]",517927,B17F27
BAu3,mp-1183146,0.0,5.07366794,0.8769440827083343,"{5: 1, 79: 3}","[5, 79]",51793,B1Au3
BW4N9,mp-1246918,0.9237000000000002,4.28286775,0.30748695142856874,"{5: 1, 74: 4, 7: 9}","[5, 7, 74]",5179744,B1W4N9
Hg3B,mp-1184725,0.0,2.91652989,1.0553065914583328,"{80: 3, 5: 1}","[5, 80]",51803,Hg3B1
Mg2B(PO5)2,mp-1193704,0.044499999999999984,0.95672697,0.16882828114881843,"{12: 2, 5: 1, 15: 2, 8: 10}","[5, 8, 12, 15]",51810122152,Mg2B1P2O10
La3Si2BO10,mp-773117,4.3318,4.3630881,0.0,"{57: 3, 14: 2, 5: 1, 8: 10}","[5, 8, 14, 57]",51810142573,La3Si2B1O10
Ce3Si2BO10,mp-558019,0.0,7.28154267,0.009212066015594544,"{58: 3, 14: 2, 5: 1, 8: 10}","[5, 8, 14, 58]",51810142583,Ce3Si2B1O10
Pr3Si2BO10,mp-1196034,4.7116,2.48937794,0.0,"{59: 3, 14: 2, 5: 1, 8: 10}","[5, 8, 14, 59]",51810142593,Pr3Si2B1O10
Sm3Si2BO10,mp-13500,4.8153,2.39009307,0.0,"{62: 3, 14: 2, 5: 1, 8: 10}","[5, 8, 14, 62]",51810142623,Sm3Si2B1O10
Eu3Si2BO10,mp-1196416,0.0,2.10825995,0.07348393361979433,"{63: 3, 14: 2, 5: 1, 8: 10}","[5, 8, 14, 63]",51810142633,Eu3Si2B1O10
Gd3Si2BO10,mp-1198316,2.807,2.35966489,0.012347486901038707,"{64: 3, 14: 2, 5: 1, 8: 10}","[5, 8, 14, 64]",51810142643,Gd3Si2B1O10
Mn3BPO10,mp-1197087,0.0,1.51018073,0.27854527433332077,"{25: 3, 5: 1, 15: 1, 8: 10}","[5, 8, 15, 25]",51810151253,Mn3B1P1O10
Bi4BPO10,mp-1196273,2.8219000000000003,3.74439307,0.0,"{83: 4, 5: 1, 15: 1, 8: 10}","[5, 8, 15, 83]",51810151834,Bi4B1P1O10
ScB(PO5)2,mp-1209202,0.28259999999999996,-0.95921164,0.31637359309524093,"{21: 1, 5: 1, 15: 2, 8: 10}","[5, 8, 15, 21]",51810152211,Sc1B1P2O10
Co2BiB(PO5)2,mp-1201553,2.0164999999999997,3.38466553,0.06128605593750347,"{27: 2, 83: 1, 5: 1, 15: 2, 8: 10}","[5, 8, 15, 27, 83]",51810152272831,Co2Bi1B1P2O10
Sr4Mn3BO10,mp-1208742,0.0,3.27255504,0.006508369521571744,"{38: 4, 25: 3, 5: 1, 8: 10}","[5, 8, 25, 38]",51810253384,Sr4Mn3B1O10
Bi5BO10,mp-769030,0.01890000000000036,3.42773721,0.0995412856250022,"{83: 5, 5: 1, 8: 10}","[5, 8, 83]",51810835,Bi5B1O10
NaMgBP2O11,mp-1213265,0.6935,-0.27506712,0.46970357352964687,"{11: 1, 12: 1, 5: 1, 15: 2, 8: 11}","[5, 8, 11, 12, 15]",51811111121152,Na1Mg1B1P2O11
NaZnBP2O11,mp-1211826,0.7682,-0.3115861,0.47098556031250105,"{11: 1, 30: 1, 5: 1, 15: 2, 8: 11}","[5, 8, 11, 15, 30]",51811111152301,Na1Zn1B1P2O11
CsBS3O11,mp-1019717,5.643800000000001,-1.12428989,0.0,"{55: 1, 5: 1, 16: 3, 8: 11}","[5, 8, 16, 55]",51811163551,Cs1B1S3O11
Na6B18Se17,mp-1220895,2.1085000000000003,1.21619753,0.0,"{11: 6, 5: 18, 34: 17}","[5, 11, 34]",5181163417,Na6B18Se17
K2Si5BO12,mp-1211911,0.0,5.73061894,0.10178527443750696,"{19: 2, 14: 5, 5: 1, 8: 12}","[5, 8, 14, 19]",51812145192,K2Si5B1O12
V2B(PO4)3,mp-560575,0.0,3.61822535,0.058178012870371276,"{23: 2, 5: 1, 15: 3, 8: 12}","[5, 8, 15, 23]",51812153232,V2B1P3O12
Cr2B(PO4)3,mp-559723,3.0596999999999994,1.26514239,0.005144450833332925,"{24: 2, 5: 1, 15: 3, 8: 12}","[5, 8, 15, 24]",51812153242,Cr2B1P3O12
In2B(PO4)3,mp-1198577,3.9141,1.39831302,0.0005175841666549275,"{49: 2, 5: 1, 15: 3, 8: 12}","[5, 8, 15, 49]",51812153492,In2B1P3O12
BP3(PbO4)3,mp-1203864,3.9628,2.58540365,0.00057345050439217,"{5: 1, 15: 3, 82: 3, 8: 12}","[5, 8, 15, 82]",51812153823,B1P3Pb3O12
K3B(SO4)3,mp-1019789,5.2623,-0.40880603,0.0,"{19: 3, 5: 1, 16: 3, 8: 12}","[5, 8, 16, 19]",51812163193,K3B1S3O12
Rb3B(SO4)3,mp-1020716,5.1274,-0.47347855,0.0,"{37: 3, 5: 1, 16: 3, 8: 12}","[5, 8, 16, 37]",51812163373,Rb3B1S3O12
GdB(SO4)3,mp-1194925,2.6591,3.0231958,0.0,"{64: 1, 5: 1, 16: 3, 8: 12}","[5, 8, 16, 64]",51812163641,Gd1B1S3O12
KBS4(ClO3)4,mp-560423,4.3746,-1.86748289,0.0,"{19: 1, 5: 1, 16: 4, 17: 4, 8: 12}","[5, 8, 16, 17, 19]",51812164174191,K1B1S4Cl4O12
Rb3B(SeO4)3,mp-1201509,3.0595,-0.94336226,0.0,"{37: 3, 5: 1, 34: 3, 8: 12}","[5, 8, 34, 37]",51812343373,Rb3B1Se3O12
Cs3B(SeO4)3,mp-1201201,3.1535,2.35501963,0.0,"{55: 3, 5: 1, 34: 3, 8: 12}","[5, 8, 34, 55]",51812343553,Cs3B1Se3O12
Na4Al3Si3B(O3F)4,mp-1173755,0.532,0.52994488,0.217129381848312,"{11: 4, 13: 3, 14: 3, 5: 1, 8: 12, 9: 4}","[5, 8, 9, 11, 13, 14]",5181294114133143,Na4Al3Si3B1O12F4
Tl3B,mp-1187632,0.0,5.53177147,0.9822966577083321,"{81: 3, 5: 1}","[5, 81]",51813,Tl3B1
La5Si2BO13,mp-1223205,4.153599999999999,5.36827657,0.010973682380951644,"{57: 5, 14: 2, 5: 1, 8: 13}","[5, 8, 14, 57]",51813142575,La5Si2B1O13
Gd5Si2BO13,mp-1225149,2.6556,5.28008356,0.011494694603172206,"{64: 5, 14: 2, 5: 1, 8: 13}","[5, 8, 14, 64]",51813142645,Gd5Si2B1O13
Tb5Si2BO13,mp-1217661,4.5166,3.03413991,0.0,"{65: 5, 14: 2, 5: 1, 8: 13}","[5, 8, 14, 65]",51813142655,Tb5Si2B1O13
Dy5Si2BO13,mp-1225574,4.5395,2.99960431,0.026577750119047394,"{66: 5, 14: 2, 5: 1, 8: 13}","[5, 8, 14, 66]",51813142665,Dy5Si2B1O13
KSi5BO13,mp-1223419,0.31980000000000003,0.48350531,0.12402976925000164,"{19: 1, 14: 5, 5: 1, 8: 13}","[5, 8, 14, 19]",51813145191,K1Si5B1O13
K3BSb4O13,mp-558607,1.8698000000000001,2.19045625,0.0,"{19: 3, 5: 1, 51: 4, 8: 13}","[5, 8, 19, 51]",51813193514,K3B1Sb4O13
Ca3Er3Ge2BO13,mp-41109,3.6346,1.7912494,0.0,"{20: 3, 68: 3, 32: 2, 5: 1, 8: 13}","[5, 8, 20, 32, 68]",51813203322683,Ca3Er3Ge2B1O13
NaB(S2O7)2,mp-1020655,5.5222,-1.47449236,0.0,"{11: 1, 5: 1, 16: 4, 8: 14}","[5, 8, 11, 16]",51814111164,Na1B1S4O14
Na2AlB(As2O7)2,mp-556195,2.7451,1.38111611,0.0056282412218342515,"{11: 2, 13: 1, 5: 1, 33: 4, 8: 14}","[5, 8, 11, 13, 33]",51814112131334,Na2Al1B1As4O14