formula,material_id,band_gap,efermi,energy_above_hull,comp_atoms,sorted_keys_comp_atoms,comp_number,new_formula
Ti2BRh6,mp-571126,0.0,7.02599705,0.0,"{22: 2, 5: 1, 45: 6}","[5, 22, 45]",51222456,Ti2B1Rh6
Cr3B12Rh25,mp-1226568,0.0,7.01641965,0.0255714042499946,"{24: 3, 5: 12, 45: 25}","[5, 24, 45]",5122434525,Cr3B12Rh25
Ti6Ge2B,mp-1080829,0.0,6.51183631,0.0,"{22: 6, 32: 2, 5: 1}","[5, 22, 32]",51226322,Ti6Ge2B1
Co3Re25B12,mp-1226569,0.0,8.02001577,0.005179053574991599,"{27: 3, 75: 25, 5: 12}","[5, 27, 75]",5122737525,Co3Re25B12
VB,mp-9973,0.0,7.54884625,0.0,"{23: 1, 5: 1}","[5, 23]",51231,V1B1
V5Ge3B,mp-1106398,0.0,7.82953522,0.0,"{23: 5, 32: 3, 5: 1}","[5, 23, 32]",51235323,V5Ge3B1
SrLaB12,mp-1218188,0.0,6.89445247,0.0,"{38: 1, 57: 1, 5: 12}","[5, 38, 57]",512381571,Sr1La1B12
SrSmB12,mp-1217758,0.0,5.79647265,0.0,"{38: 1, 62: 1, 5: 12}","[5, 38, 62]",512381621,Sr1Sm1B12
ZrB12,mp-1084,0.0,7.01851369,0.02063499115384282,"{40: 1, 5: 12}","[5, 40]",512401,Zr1B12
CrB,mp-1080664,0.0,8.55124396,0.0,"{24: 1, 5: 1}","[5, 24]",51241,Cr1B1
CrCoB,mp-1226217,0.0,7.11034244,0.08203478416666599,"{24: 1, 27: 1, 5: 1}","[5, 24, 27]",51241271,Cr1Co1B1
CrBW,mp-1226225,0.0,7.49354751,0.11915862750000272,"{24: 1, 5: 1, 74: 1}","[5, 24, 74]",51241741,Cr1B1W1
Hf(Nb2B3)4,mp-1224510,0.0,7.37284468,0.006436147619037769,"{72: 1, 41: 8, 5: 12}","[5, 41, 72]",512418721,Hf1Nb8B12
Cr2B,mp-15809,0.0,7.56991724,0.06716988333333163,"{24: 2, 5: 1}","[5, 24]",51242,Cr2B1
Cr4B,mp-1226275,0.0,6.5315607,0.30313661650000157,"{24: 4, 5: 1}","[5, 24]",51244,Cr4B1
MnB,mp-8365,0.0,7.6099241,0.0,"{25: 1, 5: 1}","[5, 25]",51251,Mn1B1
MnCoB,mp-1221661,0.0,7.06390029,0.035679645833334384,"{25: 1, 27: 1, 5: 1}","[5, 25, 27]",51251271,Mn1Co1B1
Mn2B,mp-20318,0.0,7.60206213,0.09845301683908225,"{25: 2, 5: 1}","[5, 25]",51252,Mn2B1
Mn4B,mp-1221769,0.0,6.58341193,0.10306404682758696,"{25: 4, 5: 1}","[5, 25]",51254,Mn4B1
Mn5BPd15,mp-1221871,0.0,4.56602788,0.009898589285712411,"{25: 5, 5: 1, 46: 15}","[5, 25, 46]",512554615,Mn5B1Pd15
LaCeB12,mp-1222912,0.0,8.39956937,0.0,"{57: 1, 58: 1, 5: 12}","[5, 57, 58]",512571581,La1Ce1B12
LaSmB12,mp-1222703,0.0,7.6114413,0.0,"{57: 1, 62: 1, 5: 12}","[5, 57, 62]",512571621,La1Sm1B12
LaEuB12,mp-1222902,0.0,7.2234733,0.0,"{57: 1, 63: 1, 5: 12}","[5, 57, 63]",512571631,La1Eu1B12
LaGdB12,mp-1222806,0.0,7.46219943,0.0,"{57: 1, 64: 1, 5: 12}","[5, 57, 64]",512571641,La1Gd1B12
LaTmB12,mp-1222699,0.0,7.67294702,0.04342405531250115,"{57: 1, 69: 1, 5: 12}","[5, 57, 69]",512571691,La1Tm1B12
CeSmB12,mp-1226503,0.0,7.34954159,0.0013214650000001882,"{58: 1, 62: 1, 5: 12}","[5, 58, 62]",512581621,Ce1Sm1B12
CeEuB12,mp-1226734,0.0,6.77515212,0.0,"{58: 1, 63: 1, 5: 12}","[5, 58, 63]",512581631,Ce1Eu1B12
CeThB12,mp-1226486,0.0,8.49518418,0.0,"{58: 1, 90: 1, 5: 12}","[5, 58, 90]",512581901,Ce1Th1B12
Ce8Re13B12,mp-1202101,0.0,8.34712151,0.0,"{58: 8, 75: 13, 5: 12}","[5, 58, 75]",5125887513,Ce8Re13B12
PrB12,mp-1004753,0.0,5.54305186,0.06963110730769095,"{59: 1, 5: 12}","[5, 59]",512591,Pr1B12
PrSmB12,mp-1219729,0.0,6.54948053,0.0,"{59: 1, 62: 1, 5: 12}","[5, 59, 62]",512591621,Pr1Sm1B12
NdB12,mp-1004756,0.0,5.53475422,0.07411886807692092,"{60: 1, 5: 12}","[5, 60]",512601,Nd1B12
NdEuB12,mp-1220180,0.0,5.93144774,0.0,"{60: 1, 63: 1, 5: 12}","[5, 60, 63]",512601631,Nd1Eu1B12
SmB12,mp-1004525,0.0,5.48935095,0.038252772692306536,"{62: 1, 5: 12}","[5, 62]",512621,Sm1B12
SmEuB12,mp-1219071,0.0,6.04692511,0.0,"{62: 1, 63: 1, 5: 12}","[5, 62, 63]",512621631,Sm1Eu1B12
SmGdB12,mp-1218985,0.0,6.33254329,0.0,"{62: 1, 64: 1, 5: 12}","[5, 62, 64]",512621641,Sm1Gd1B12
SmThB12,mp-1218983,0.0,7.58181016,5.231571428510051e-05,"{62: 1, 90: 1, 5: 12}","[5, 62, 90]",512621901,Sm1Th1B12
EuB12,mp-1096955,0.0,5.20679951,0.10249230115384478,"{63: 1, 5: 12}","[5, 63]",512631,Eu1B12
EuTmB12,mp-1225132,0.0,6.12449551,0.0325660660267868,"{63: 1, 69: 1, 5: 12}","[5, 63, 69]",512631691,Eu1Tm1B12
GdB12,mp-1006223,0.0,5.10453662,0.01760216653846136,"{64: 1, 5: 12}","[5, 64]",512641,Gd1B12
TbB12,mp-1104066,0.0,5.65854177,0.0,"{65: 1, 5: 12}","[5, 65]",512651,Tb1B12
DyB12,mp-1103476,0.0,5.66366173,0.0,"{66: 1, 5: 12}","[5, 66]",512661,Dy1B12
HoB12,mp-1104585,0.0,5.64952656,0.0,"{67: 1, 5: 12}","[5, 67]",512671,Ho1B12
ErB12,mp-1104598,0.0,5.67024088,0.0,"{68: 1, 5: 12}","[5, 68]",512681,Er1B12
TmB12,mp-1104905,0.0,5.66578808,0.0,"{69: 1, 5: 12}","[5, 69]",512691,Tm1B12
CoB,mp-20857,0.0,7.45021879,0.0,"{27: 1, 5: 1}","[5, 27]",51271,Co1B1
LuB12,mp-1104289,0.0,5.68758028,0.0,"{71: 1, 5: 12}","[5, 71]",512711,Lu1B12
CoBMo,mp-21347,0.0,8.0979496,0.0024559533333334826,"{27: 1, 5: 1, 42: 1}","[5, 27, 42]",51271421,Co1B1Mo1
La2Co14B,mp-1197631,0.0,6.49169639,0.026666843167568288,"{57: 2, 27: 14, 5: 1}","[5, 27, 57]",512714572,La2Co14B1
PrNdCo14B,mp-1219868,0.0,5.03686443,0.0011550499264707526,"{59: 1, 60: 1, 27: 14, 5: 1}","[5, 27, 59, 60]",512714591601,Pr1Nd1Co14B1
Pr2Co14B,mp-1197003,0.0,5.09272201,0.0,"{59: 2, 27: 14, 5: 1}","[5, 27, 59]",512714592,Pr2Co14B1
TbNdCo14B,mp-1217550,0.0,5.02248574,0.0,"{65: 1, 60: 1, 27: 14, 5: 1}","[5, 27, 60, 65]",512714601651,Tb1Nd1Co14B1
Nd2Co14B,mp-4164,0.0,4.82046679,0.008447319705867429,"{60: 2, 27: 14, 5: 1}","[5, 27, 60]",512714602,Nd2Co14B1
Sm2Co14B,mp-1195895,0.0,4.88886608,0.0,"{62: 2, 27: 14, 5: 1}","[5, 27, 62]",512714622,Sm2Co14B1
Tb2Co14B,mp-1196092,0.0,4.97596234,0.0,"{65: 2, 27: 14, 5: 1}","[5, 27, 65]",512714652,Tb2Co14B1
TaCoB,mp-1193187,0.0,6.78240169,0.0,"{73: 1, 27: 1, 5: 1}","[5, 27, 73]",51271731,Ta1Co1B1
CoBW,mp-22759,0.0,7.59706448,0.0,"{27: 1, 5: 1, 74: 1}","[5, 27, 74]",51271741,Co1B1W1
CoReB,mp-21464,0.0,8.13712115,0.008917875833333255,"{27: 1, 75: 1, 5: 1}","[5, 27, 75]",51271751,Co1Re1B1
Co2B,mp-493,0.0,6.8287012,0.023685056666666426,"{27: 2, 5: 1}","[5, 27]",51272,Co2B1
HfB12,mp-1001600,0.0,7.23419016,0.05643777115383841,"{72: 1, 5: 12}","[5, 72]",512721,Hf1B12
Co3B,mp-20373,0.0,5.99285586,0.017804337499999434,"{27: 3, 5: 1}","[5, 27]",51273,Co3B1
Co4B,mp-1226103,0.0,5.91872688,0.05670506599999925,"{27: 4, 5: 1}","[5, 27]",51274,Co4B1
B12W,mp-1001602,0.0,7.64580402,0.28236336602564194,"{5: 12, 74: 1}","[5, 74]",512741,B12W1
LaCo4B,mp-1095566,0.0,7.11036484,0.019673982005812718,"{57: 1, 27: 4, 5: 1}","[5, 27, 57]",51274571,La1Co4B1
CeCo4B,mp-21878,0.0,6.91499608,0.052262459791664106,"{58: 1, 27: 4, 5: 1}","[5, 27, 58]",51274581,Ce1Co4B1
PrCo4B,mp-11610,0.0,5.03029475,0.02838616088709678,"{59: 1, 27: 4, 5: 1}","[5, 27, 59]",51274591,Pr1Co4B1
NdCo4B,mp-3689,0.0,4.97064771,0.021331891656974022,"{60: 1, 27: 4, 5: 1}","[5, 27, 60]",51274601,Nd1Co4B1
SmCo4B,mp-1102597,0.0,5.11718891,0.011845197401971319,"{62: 1, 27: 4, 5: 1}","[5, 27, 62]",51274621,Sm1Co4B1
GdCo4B,mp-13268,0.0,5.09720911,0.005880115196010394,"{64: 1, 27: 4, 5: 1}","[5, 27, 64]",51274641,Gd1Co4B1
TbCo4B,mp-1102265,0.0,5.18217315,0.009287253072916002,"{65: 1, 27: 4, 5: 1}","[5, 27, 65]",51274651,Tb1Co4B1
DyCo4B,mp-1103593,0.0,5.13375282,0.010079246363630112,"{66: 1, 27: 4, 5: 1}","[5, 27, 66]",51274661,Dy1Co4B1
HoCo4B,mp-1103652,0.0,5.02371457,0.012575242878780202,"{67: 1, 27: 4, 5: 1}","[5, 27, 67]",51274671,Ho1Co4B1
ErCo4B,mp-1103089,0.0,5.07128352,0.015426827171712176,"{68: 1, 27: 4, 5: 1}","[5, 27, 68]",51274681,Er1Co4B1
TmCo4B,mp-1102752,0.0,5.04286797,0.015668136217949602,"{69: 1, 27: 4, 5: 1}","[5, 27, 69]",51274691,Tm1Co4B1
LuCo4B,mp-1210782,0.0,4.94413888,0.020768879958334985,"{71: 1, 27: 4, 5: 1}","[5, 27, 71]",51274711,Lu1Co4B1
UCo4B,mp-1103581,0.0,8.28483404,0.028661780000009074,"{92: 1, 27: 4, 5: 1}","[5, 27, 92]",51274921,U1Co4B1
Cs(BO)12,mp-1192281,0.0,-1.8075696,1.0771028385218084,"{55: 1, 5: 12, 8: 12}","[5, 8, 55]",512812551,Cs1B12O12
UB12O13,mp-1194333,0.3621,0.86354805,1.2455542985336514,"{92: 1, 5: 12, 8: 13}","[5, 8, 92]",512813921,U1B12O13
Cs2B12OF12,mp-729572,0.26890000000000003,-0.49945259,0.3830256877983551,"{55: 2, 5: 12, 8: 1, 9: 12}","[5, 8, 9, 55]",51281912552,Cs2B12O1F12
K3Na(B3O5)4,mp-1224582,5.3008999999999995,4.92429068,0.002398689344127014,"{19: 3, 11: 1, 5: 12, 8: 20}","[5, 8, 11, 19]",512820111193,K3Na1B12O20
Na2Co2(B4O7)3,mp-704577,3.3019,1.47560785,0.08151724969969365,"{11: 2, 27: 2, 5: 12, 8: 21}","[5, 8, 11, 27]",512821112272,Na2Co2B12O21
Mg(BO2)12,mp-1201208,0.0,-1.5522478,0.27445252085585814,"{12: 1, 5: 12, 8: 24}","[5, 8, 12]",512824121,Mg1B12O24
B12Pb6O25,mp-1200351,1.4325,3.7807231,0.06165274853820524,"{5: 12, 82: 6, 8: 25}","[5, 8, 82]",512825826,B12Pb6O25
Ti5(B6O13)2,mp-684065,0.0,6.35970744,0.03286720604263493,"{22: 5, 5: 12, 8: 26}","[5, 8, 22]",512826225,Ti5B12O26
Ce2B12Br2O27,mp-1228669,0.0,0.21616825,0.24024111639535306,"{58: 2, 5: 12, 35: 2, 8: 27}","[5, 8, 35, 58]",512827352582,Ce2B12Br2O27
Pr2B12Br2O27,mp-1220740,0.3813,-0.02864931,0.16301106421511413,"{59: 2, 5: 12, 35: 2, 8: 27}","[5, 8, 35, 59]",512827352592,Pr2B12Br2O27
K2Co(B2O5)6,mp-1181383,0.04919999999999991,-1.20371772,0.4837134599321118,"{19: 2, 27: 1, 5: 12, 8: 30}","[5, 8, 19, 27]",512830192271,K2Co1B12O30
SrB12O7,mp-1189346,0.8162,1.55905414,0.7718150875833762,"{38: 1, 5: 12, 8: 7}","[5, 8, 38]",51287381,Sr1B12O7
ThB12,mp-12570,0.0,7.25664081,0.02804835038461384,"{90: 1, 5: 12}","[5, 90]",512901,Th1B12
Cs3B12AsF18,mp-1203209,2.384,-0.47552092,0.25751901664215726,"{55: 3, 5: 12, 33: 1, 9: 18}","[5, 9, 33, 55]",512918331553,Cs3B12As1F18
UB12,mp-22319,0.0,7.88469628,0.0,"{92: 1, 5: 12}","[5, 92]",512921,U1B12
NpB12,mp-1103809,0.0,8.15932994,0.0,"{93: 1, 5: 12}","[5, 93]",512931,Np1B12
PuB12,mp-1104892,0.0,7.82479716,0.0,"{94: 1, 5: 12}","[5, 94]",512941,Pu1B12
ZnBSe2,mp-631528,0.0,4.66596709,1.5398544802604182,"{30: 1, 5: 1, 34: 2}","[5, 30, 34]",51301342,Zn1B1Se2
Zn2BIr2,mp-28787,0.0,6.17836617,0.0,"{30: 2, 5: 1, 77: 2}","[5, 30, 77]",51302772,Zn2B1Ir2
Zn3B,mp-971859,0.0,4.14110592,0.6166455127083337,"{30: 3, 5: 1}","[5, 30]",51303,Zn3B1
Ga2BSb,mp-631553,0.0,5.2202724,0.9977435483333323,"{31: 2, 5: 1, 51: 1}","[5, 31, 51]",51312511,Ga2B1Sb1
Ga3B,mp-1184351,0.0,3.33823631,0.5120426958333333,"{31: 3, 5: 1}","[5, 31]",51313,Ga3B1
Ta5Ga3B,mp-1208348,0.0,5.65905405,0.0,"{73: 5, 31: 3, 5: 1}","[5, 31, 73]",51313735,Ta5Ga3B1
B13P,mp-1228630,0.0,4.57062911,0.11884821470238194,"{5: 13, 15: 1}","[5, 15]",513151,B13P1
B13P2,mp-13862,0.0,5.36077042,0.9580476367222239,"{5: 13, 15: 2}","[5, 15]",513152,B13P2
Ga8BIr4,mp-28924,0.0,5.67897991,0.0,"{31: 8, 5: 1, 77: 4}","[5, 31, 77]",51318774,Ga8B1Ir4
GeB,mp-1184565,0.0,5.48480439,0.550217262916668,"{32: 1, 5: 1}","[5, 32]",51321,Ge1B1
In2GeB,mp-631527,0.0,6.99861587,0.9178466289583334,"{49: 2, 32: 1, 5: 1}","[5, 32, 49]",51321492,In2Ge1B1
Nb5Ge2B,mp-1189789,0.0,5.50653391,0.2303099591666662,"{41: 5, 32: 2, 5: 1}","[5, 32, 41]",51322415,Nb5Ge2B1
Ta5Ge2B,mp-1218007,0.0,6.07818146,0.251008404062496,"{73: 5, 32: 2, 5: 1}","[5, 32, 73]",51322735,Ta5Ge2B1
Ge3B,mp-1184555,0.0,6.23275034,0.9841349989583339,"{32: 3, 5: 1}","[5, 32]",51323,Ge3B1
Nb5Ge3B,mp-1105818,0.0,6.95828949,0.0,"{41: 5, 32: 3, 5: 1}","[5, 32, 41]",51323415,Nb5Ge3B1
Tb5Ge3B,mp-1190063,0.0,4.130251,0.14177109658334786,"{65: 5, 32: 3, 5: 1}","[5, 32, 65]",51323655,Tb5Ge3B1
Dy5Ge3B,mp-1181755,0.0,4.1224625,0.13170280756944308,"{66: 5, 32: 3, 5: 1}","[5, 32, 66]",51323665,Dy5Ge3B1
Ta5Ge3B,mp-1189895,0.0,7.63792024,0.0015612477777793288,"{73: 5, 32: 3, 5: 1}","[5, 32, 73]",51323735,Ta5Ge3B1
Gd4CoB13,mp-1198624,0.0,5.48449659,0.15722556793981113,"{64: 4, 27: 1, 5: 13}","[5, 27, 64]",513271644,Gd4Co1B13
Tb4CoB13,mp-22573,0.0,5.77901892,0.1266363183333361,"{65: 4, 27: 1, 5: 13}","[5, 27, 65]",513271654,Tb4Co1B13
Dy4CoB13,mp-1200694,0.0,5.81656761,0.11406798222222392,"{66: 4, 27: 1, 5: 13}","[5, 27, 66]",513271664,Dy4Co1B13
Ho4CoB13,mp-1202390,0.0,5.76739273,0.10615756423611344,"{67: 4, 27: 1, 5: 13}","[5, 27, 67]",513271674,Ho4Co1B13
Er4CoB13,mp-1202869,0.0,5.78402282,0.10073117152777922,"{68: 4, 27: 1, 5: 13}","[5, 27, 68]",513271684,Er4Co1B13
Tm4CoB13,mp-1201455,0.0,5.77138358,0.09539661687500267,"{69: 4, 27: 1, 5: 13}","[5, 27, 69]",513271694,Tm4Co1B13
Lu4CoB13,mp-20518,0.0,5.85109932,0.08773340368055749,"{71: 4, 27: 1, 5: 13}","[5, 27, 71]",513271714,Lu4Co1B13
BAs,mp-10044,1.2036999999999995,5.92325565,0.08038976749999982,"{5: 1, 33: 1}","[5, 33]",51331,B1As1
BTe2As,mp-631524,0.0,7.51242145,1.2027740964583344,"{5: 1, 52: 2, 33: 1}","[5, 33, 52]",51331522,B1Te2As1
Rb3BAs2,mp-9718,1.2941000000000003,0.87985452,0.0,"{37: 3, 5: 1, 33: 2}","[5, 33, 37]",51332373,Rb3B1As2
Cs3BAs2,mp-573658,1.4845,1.52110264,0.0,"{55: 3, 5: 1, 33: 2}","[5, 33, 55]",51332553,Cs3B1As2
Sn2BSe,mp-631557,0.0,6.90144122,1.0610351658333315,"{50: 2, 5: 1, 34: 1}","[5, 34, 50]",51341502,Sn2B1Se1
BSe2,mp-1214789,1.7712,0.31636213,0.0,"{5: 1, 34: 2}","[5, 34]",51342,B1Se2
RbBSe3,mp-10552,1.4394,1.50784018,0.0021489520166646514,"{37: 1, 5: 1, 34: 3}","[5, 34, 37]",51343371,Rb1B1Se3
CsBSe3,mp-573358,1.7167000000000001,1.73894469,0.0,"{55: 1, 5: 1, 34: 3}","[5, 34, 55]",51343551,Cs1B1Se3
TlBSe3,mp-29959,0.9154,3.09927188,0.0,"{81: 1, 5: 1, 34: 3}","[5, 34, 81]",51343811,Tl1B1Se3
Tl3BSe3,mp-28490,1.2251999999999996,2.78282022,0.0,"{81: 3, 5: 1, 34: 3}","[5, 34, 81]",51343813,Tl3B1Se3
BBr,mp-685043,1.2319,-1.49520557,0.012856942777776936,"{5: 1, 35: 1}","[5, 35]",51351,B1Br1
BPd2Br,mp-631580,0.0,4.8940456,1.3443384020833289,"{5: 1, 46: 2, 35: 1}","[5, 35, 46]",51351462,B1Pd2Br1
Ag2BBr,mp-631581,0.0,4.1528842,1.2809010885416683,"{47: 2, 5: 1, 35: 1}","[5, 35, 47]",51351472,Ag2B1Br1
Cs4Zr6BBr17,mp-1203593,1.0312000000000001,1.5359984,0.0,"{55: 4, 40: 6, 5: 1, 35: 17}","[5, 35, 40, 55]",513517406554,Cs4Zr6B1Br17
Rb8Zr6BBr20,mp-1209464,0.08999999999999986,2.02385383,0.0,"{37: 8, 40: 6, 5: 1, 35: 20}","[5, 35, 37, 40]",513520378406,Rb8Zr6B1Br20
BBr3,mp-23225,3.8273,-2.83168899,0.0,"{5: 1, 35: 3}","[5, 35]",51353,B1Br3
Pr3BBr3,mp-1209395,0.0,3.5407051,0.0,"{59: 3, 5: 1, 35: 3}","[5, 35, 59]",51353593,Pr3B1Br3
Gd3BBr3,mp-1212672,0.0,3.83546635,0.0,"{64: 3, 5: 1, 35: 3}","[5, 35, 64]",51353643,Gd3B1Br3
Tb3BBr3,mp-1208486,0.0,4.00225331,0.0,"{65: 3, 5: 1, 35: 3}","[5, 35, 65]",51353653,Tb3B1Br3
Tb4BBr6,mp-29847,0.0,2.91532101,0.0,"{65: 4, 5: 1, 35: 6}","[5, 35, 65]",51356654,Tb4B1Br6
RbB,mp-1061023,0.0,0.12300154,2.172314421666667,"{37: 1, 5: 1}","[5, 37]",51371,Rb1B1
B13N2,mp-534,0.0,8.34162047,0.13549375927777962,"{5: 13, 7: 2}","[5, 7]",51372,B13N2
SrBPd4,mp-1191090,0.0,4.18146297,0.0,"{38: 1, 5: 1, 46: 4}","[5, 38, 46]",51381464,Sr1B1Pd4
SrBiB,mp-631552,0.0,2.56405043,1.5807060342735078,"{38: 1, 83: 1, 5: 1}","[5, 38, 83]",51381831,Sr1Bi1B1
Sm3B13O29,mp-1203984,0.02049999999999999,0.16423447,0.49208953679629364,"{62: 3, 5: 13, 8: 29}","[5, 8, 62]",513829623,Sm3B13O29
ZrB,mp-1014246,0.0,4.05376707,0.32960014250000036,"{40: 1, 5: 1}","[5, 40]",51401,Zr1B1
ZrBRh3,mp-1068661,0.0,6.4804011,0.0,"{40: 1, 5: 1, 45: 3}","[5, 40, 45]",51401453,Zr1B1Rh3
ZrAgB,mp-961701,0.0,2.79610725,1.4195500305555555,"{40: 1, 47: 1, 5: 1}","[5, 40, 47]",51401471,Zr1Ag1B1
ZrBTe,mp-631518,0.0,5.10695439,1.694497984999991,"{40: 1, 5: 1, 52: 1}","[5, 40, 52]",51401521,Zr1B1Te1
Zr2BIr6,mp-1078623,0.0,8.44818681,0.0,"{40: 2, 5: 1, 77: 6}","[5, 40, 77]",51402776,Zr2B1Ir6
Zr5Sn3B,mp-1188408,0.0,6.51071241,0.0,"{40: 5, 50: 3, 5: 1}","[5, 40, 50]",51405503,Zr5Sn3B1
Zr6BI12,mp-760421,0.0,4.3120093,0.0,"{40: 6, 5: 1, 53: 12}","[5, 40, 53]",514065312,Zr6B1I12
CsZr6BI14,mp-571410,0.7638000000000003,3.38904542,0.0,"{55: 1, 40: 6, 5: 1, 53: 14}","[5, 40, 53, 55]",514065314551,Cs1Zr6B1I14
Zr9BMo4,mp-1192463,0.0,5.11970434,0.03748617285713962,"{40: 9, 5: 1, 42: 4}","[5, 40, 42]",51409424,Zr9B1Mo4
Zr9BW4,mp-1192767,0.0,4.75858028,0.060493504285712874,"{40: 9, 5: 1, 74: 4}","[5, 40, 74]",51409744,Zr9B1W4
Zr9Re4B,mp-1193442,0.0,5.08890941,0.019858034971427685,"{40: 9, 75: 4, 5: 1}","[5, 40, 75]",51409754,Zr9Re4B1
NbB,mp-2580,0.0,7.03086902,0.0,"{41: 1, 5: 1}","[5, 41]",51411,Nb1B1
NaAlB14,mp-34763,1.5847999999999995,5.94362232,0.0,"{11: 1, 13: 1, 5: 14}","[5, 11, 13]",514111131,Na1Al1B14
NbBRu,mp-1105360,0.0,7.39976628,0.010994721868694768,"{41: 1, 5: 1, 44: 1}","[5, 41, 44]",51411441,Nb1B1Ru1
NbBRh3,mp-1206988,0.0,6.76320125,0.23062063333333072,"{41: 1, 5: 1, 45: 3}","[5, 41, 45]",51411453,Nb1B1Rh3
NbBW,mp-631531,0.0,3.99925244,2.1398556049999975,"{41: 1, 5: 1, 74: 1}","[5, 41, 74]",51411741,Nb1B1W1
NbBOs,mp-1195339,0.0,7.74622975,0.0009411447222191782,"{41: 1, 5: 1, 76: 1}","[5, 41, 76]",51411761,Nb1B1Os1
TbAlB14,mp-1201619,0.0,8.61411994,0.04975251052989016,"{65: 1, 13: 1, 5: 14}","[5, 13, 65]",514131651,Tb1Al1B14
DyAlB14,mp-1201129,0.0,8.6154629,0.050985186460595244,"{66: 1, 13: 1, 5: 14}","[5, 13, 66]",514131661,Dy1Al1B14
HoAlB14,mp-569726,0.0,8.60154464,0.05158441036344996,"{67: 1, 13: 1, 5: 14}","[5, 13, 67]",514131671,Ho1Al1B14
ErAlB14,mp-1198758,0.0,8.61643455,0.05282824069972669,"{68: 1, 13: 1, 5: 14}","[5, 13, 68]",514131681,Er1Al1B14
LuAlB14,mp-1197767,0.0,8.55432526,0.05401301373665568,"{71: 1, 13: 1, 5: 14}","[5, 13, 71]",514131711,Lu1Al1B14
Ca7(B7Rh10)2,mp-568511,0.0,4.52097631,0.0,"{20: 7, 5: 14, 45: 20}","[5, 20, 45]",5142074520,Ca7B14Rh20
BMo,mp-1890,0.0,9.71915682,0.0,"{5: 1, 42: 1}","[5, 42]",51421,B1Mo1
BMoW,mp-1228637,0.0,8.2022338,0.041023881666667705,"{5: 1, 42: 1, 74: 1}","[5, 42, 74]",51421741,B1Mo1W1
ReBMo,mp-1219525,0.0,8.69754097,0.05135541333333293,"{75: 1, 5: 1, 42: 1}","[5, 42, 75]",51421751,Re1B1Mo1
BMo2,mp-2501,0.0,8.6262136,0.02714571083333084,"{5: 1, 42: 2}","[5, 42]",51422,B1Mo2
Hf9BMo4,mp-18024,0.0,5.59088805,0.002711930357143899,"{72: 9, 5: 1, 42: 4}","[5, 42, 72]",51424729,Hf9B1Mo4
TcB,mp-1002188,0.0,8.10664975,0.10273136659090909,"{43: 1, 5: 1}","[5, 43]",51431,Tc1B1
Tc3B,mp-1087495,0.0,8.79495061,0.0,"{43: 3, 5: 1}","[5, 43]",51433,Tc3B1
BRu,mp-1214978,0.0,6.09691514,1.0946214083333334,"{5: 1, 44: 1}","[5, 44]",51441,B1Ru1
TaBRu,mp-1195237,0.0,7.98037185,0.0,"{73: 1, 5: 1, 44: 1}","[5, 44, 73]",51441731,Ta1B1Ru1
BRu3,mp-1183231,0.0,8.19646587,0.6042154179166666,"{5: 1, 44: 3}","[5, 44]",51443,B1Ru3
BRh,mp-567164,0.0,7.39308391,0.0,"{5: 1, 45: 1}","[5, 45]",51451,B1Rh1
ErBPd2Rh,mp-1225489,0.0,5.69334423,0.0706293201568684,"{68: 1, 5: 1, 46: 2, 45: 1}","[5, 45, 46, 68]",51451462681,Er1B1Pd2Rh1
BRh2,mp-21502,0.0,7.00154612,0.07446695583333351,"{5: 1, 45: 2}","[5, 45]",51452,B1Rh2
ErBPtRh2,mp-1225493,0.0,6.16427073,0.0,"{68: 1, 5: 1, 78: 1, 45: 2}","[5, 45, 68, 78]",51452681781,Er1B1Pt1Rh2
LaBRh3,mp-3088,0.0,7.71238095,0.0,"{57: 1, 5: 1, 45: 3}","[5, 45, 57]",51453571,La1B1Rh3
CeBRh3,mp-510376,0.0,7.58051223,0.0,"{58: 1, 5: 1, 45: 3}","[5, 45, 58]",51453581,Ce1B1Rh3
PrBRh3,mp-5200,0.0,5.76641024,0.0,"{59: 1, 5: 1, 45: 3}","[5, 45, 59]",51453591,Pr1B1Rh3
NdBRh3,mp-3591,0.0,5.72959537,0.0,"{60: 1, 5: 1, 45: 3}","[5, 45, 60]",51453601,Nd1B1Rh3
SmBRh3,mp-4982,0.0,5.63253023,0.0,"{62: 1, 5: 1, 45: 3}","[5, 45, 62]",51453621,Sm1B1Rh3
EuBRh3,mp-510377,0.0,5.2314687,0.024343480000002415,"{63: 1, 5: 1, 45: 3}","[5, 45, 63]",51453631,Eu1B1Rh3
GdBRh3,mp-19840,0.0,5.29811856,0.0,"{64: 1, 5: 1, 45: 3}","[5, 45, 64]",51453641,Gd1B1Rh3
TbBRh3,mp-3869,0.0,5.80939212,0.0,"{65: 1, 5: 1, 45: 3}","[5, 45, 65]",51453651,Tb1B1Rh3
DyBRh3,mp-3183,0.0,5.77188972,0.0,"{66: 1, 5: 1, 45: 3}","[5, 45, 66]",51453661,Dy1B1Rh3
HoBRh3,mp-3710,0.0,5.72779266,0.0,"{67: 1, 5: 1, 45: 3}","[5, 45, 67]",51453671,Ho1B1Rh3
ErBRh3,mp-3769,0.0,5.74681413,0.0,"{68: 1, 5: 1, 45: 3}","[5, 45, 68]",51453681,Er1B1Rh3
TmBRh3,mp-5438,0.0,5.72030745,0.0,"{69: 1, 5: 1, 45: 3}","[5, 45, 69]",51453691,Tm1B1Rh3
LuBRh3,mp-3717,0.0,5.720234,0.0,"{71: 1, 5: 1, 45: 3}","[5, 45, 71]",51453711,Lu1B1Rh3
HfBRh3,mp-1017578,0.0,6.63210732,0.0,"{72: 1, 5: 1, 45: 3}","[5, 45, 72]",51453721,Hf1B1Rh3
ThBRh3,mp-1206772,0.0,7.7373823,0.0,"{90: 1, 5: 1, 45: 3}","[5, 45, 90]",51453901,Th1B1Rh3
UBRh3,mp-1069774,0.0,8.69405617,0.05523639378571232,"{92: 1, 5: 1, 45: 3}","[5, 45, 92]",51453921,U1B1Rh3
Sn4BRh6,mp-30061,0.0,7.85278288,0.0,"{50: 4, 5: 1, 45: 6}","[5, 45, 50]",51456504,Sn4B1Rh6
Eu4BPd12,mp-1225374,0.0,3.90101441,0.009952115588230726,"{63: 4, 5: 1, 46: 12}","[5, 46, 63]",514612634,Eu4B1Pd12
BIrPd,mp-28897,0.0,6.40485695,0.0,"{5: 1, 77: 1, 46: 1}","[5, 46, 77]",51461771,B1Ir1Pd1