formula,material_id,band_gap,efermi,energy_above_hull,comp_atoms,sorted_keys_comp_atoms,comp_number,new_formula
Li6B4O9,mp-1020024,4.8958,0.02971725,0.0070382422368417,"{3: 6, 5: 4, 8: 9}","[3, 5, 8]",365489,Li6B4O9
Li6MnFe5(BO3)6,mp-779627,2.8379000000000003,1.92934451,0.0056252979861097,"{3: 6, 25: 1, 26: 5, 5: 6, 8: 18}","[3, 5, 8, 25, 26]",3656818251265,Li6Mn1Fe5B6O18
Li6Mn5Fe(BO3)6,mp-778872,2.3787,1.95911794,0.0023301725694366,"{3: 6, 25: 5, 26: 1, 5: 6, 8: 18}","[3, 5, 8, 25, 26]",3656818255261,Li6Mn5Fe1B6O18
Li7B18O,mp-2468835,0.0,2.39642681,0.0293302140961504,"{3: 7, 5: 18, 8: 1}","[3, 5, 8]",3751881,Li7B18O1
Li7Bi(BO4)2,mp-768747,2.143,1.68108583,0.0981787840277768,"{3: 7, 83: 1, 5: 2, 8: 8}","[3, 5, 8, 83]",375288831,Li7Bi1B2O8
Li7Mn(BO3)3,mp-1222860,3.5681000000000003,4.26652109,0.0036715909999989,"{3: 7, 25: 1, 5: 3, 8: 9}","[3, 5, 8, 25]",375389251,Li7Mn1B3O9
Li7Mn8(BO3)8,mp-779028,0.0,1.92064468,0.0274316551595843,"{3: 7, 25: 8, 5: 8, 8: 24}","[3, 5, 8, 25]",3758824258,Li7Mn8B8O24
Li7Fe8(BO3)8,mp-1176890,0.0151999999999996,3.56129132,0.0152432217553055,"{3: 7, 26: 8, 5: 8, 8: 24}","[3, 5, 8, 26]",3758824268,Li7Fe8B8O24
Li8B2O7,mp-768921,5.2822,1.18669977,0.0667439764705912,"{3: 8, 5: 2, 8: 7}","[3, 5, 8]",385287,Li8B2O7
Li8MnFe7(BO3)8,mp-1176839,3.299,1.70139652,0.0010686436979163,"{3: 8, 25: 1, 26: 7, 5: 8, 8: 24}","[3, 5, 8, 25, 26]",3858824251267,Li8Mn1Fe7B8O24
Li8Mn3Fe5(BO3)8,mp-775252,2.6574,4.88497314,0.0033436283854149,"{3: 8, 25: 3, 26: 5, 5: 8, 8: 24}","[3, 5, 8, 25, 26]",3858824253265,Li8Mn3Fe5B8O24
Li8Mn5Fe3(BO3)8,mp-778302,3.0729,4.86699184,0.0048703336979114,"{3: 8, 25: 5, 26: 3, 5: 8, 8: 24}","[3, 5, 8, 25, 26]",3858824255263,Li8Mn5Fe3B8O24
Li8Mn7Fe(BO3)8,mp-775268,2.9600000000000004,1.9984616,0.007009459010411,"{3: 8, 25: 7, 26: 1, 5: 8, 8: 24}","[3, 5, 8, 25, 26]",3858824257261,Li8Mn7Fe1B8O24
Li9Cr4(BO3)8,mp-759279,0.5138,0.67901095,0.0910506907731418,"{3: 9, 24: 4, 5: 8, 8: 24}","[3, 5, 8, 24]",3958824244,Li9Cr4B8O24
Li9Mn4(BO3)8,mp-759917,0.6737,1.45387083,0.0793645483777778,"{3: 9, 25: 4, 5: 8, 8: 24}","[3, 5, 8, 25]",3958824254,Li9Mn4B8O24
Li9Fe4(BO3)8,mp-1176790,0.0,0.31741984,0.0751882038222211,"{3: 9, 26: 4, 5: 8, 8: 24}","[3, 5, 8, 26]",3958824264,Li9Fe4B8O24
Be(B6C)2,mp-1104026,0.0,5.06321842,0.0411194964583367,"{4: 1, 5: 12, 6: 2}","[4, 5, 6]",4151262,Be1B12C2
BeCo2B,mp-1096558,0.2488000000000001,-3.47918274,3.03847169875,"{4: 1, 27: 2, 5: 1}","[4, 5, 27]",4151272,Be1Co2B1
ZrBeB,mp-1215258,0.0,4.81785215,0.0070662133333341,"{40: 1, 4: 1, 5: 1}","[4, 5, 40]",4151401,Zr1Be1B1
BeBPt2,mp-1096043,0.0728999999999997,-4.68786826,2.1804926495208337,"{4: 1, 5: 1, 78: 2}","[4, 5, 78]",4151782,Be1B1Pt2
BeBO3,mp-1183422,0.0,5.77430245,1.6400017199166663,"{4: 1, 5: 1, 8: 3}","[4, 5, 8]",415183,Be1B1O3
Y2BeAlBO7,mp-1216100,4.9749,2.54264617,0.0,"{39: 2, 4: 1, 13: 1, 5: 1, 8: 7}","[4, 5, 8, 13, 39]",415187131392,Y2Be1Al1B1O7
Be(BC)2,mp-569299,0.2171000000000003,4.554929,0.0238246993333328,"{4: 1, 5: 2, 6: 2}","[4, 5, 6]",415262,Be1B2C2
CaBeB2O5,mp-554315,5.822699999999999,2.09997398,0.0042871669444224,"{20: 1, 4: 1, 5: 2, 8: 5}","[4, 5, 8, 20]",415285201,Ca1Be1B2O5
NaBe(BO2)3,mp-1020624,4.931,-0.45166291,0.001195700530375,"{11: 1, 4: 1, 5: 3, 8: 6}","[4, 5, 8, 11]",415386111,Na1Be1B3O6
Be(BO2)4,mp-727023,0.0,-0.93451972,0.1423444683333361,"{4: 1, 5: 4, 8: 8}","[4, 5, 8]",415488,Be1B4O8
Be2B,mp-1432,0.0,4.79997553,0.0546493959722225,"{4: 2, 5: 1}","[4, 5]",4251,Be2B1
NaBe2BO3F2,mp-556865,6.0856,-1.12661343,0.0055522730555601,"{11: 1, 4: 2, 5: 1, 8: 3, 9: 2}","[4, 5, 8, 9, 11]",42518392111,Na1Be2B1O3F2
KBe2BO3F2,mp-6870,6.0524,-1.45261855,0.0,"{19: 1, 4: 2, 5: 1, 8: 3, 9: 2}","[4, 5, 8, 9, 19]",42518392191,K1Be2B1O3F2
Be2BO4,mp-736232,0.1268,0.29736294,0.0826821115476201,"{4: 2, 5: 1, 8: 4}","[4, 5, 8]",425184,Be2B1O4
Be2BO5,mp-1079124,0.0,-0.43328575,0.3223640933854161,"{4: 2, 5: 1, 8: 5}","[4, 5, 8]",425185,Be2B1O5
BaBe2(BO2)2,mp-1214878,0.2307999999999999,3.02576157,0.4733056211481461,"{56: 1, 4: 2, 5: 2, 8: 4}","[4, 5, 8, 56]",425284561,Ba1Be2B2O4
SrBe2(BO3)2,mp-558981,5.3547,1.19219894,0.0076965372727242,"{38: 1, 4: 2, 5: 2, 8: 6}","[4, 5, 8, 38]",425286381,Sr1Be2B2O6
BaBe2(BO3)2,mp-555070,5.3821,1.27251551,0.0,"{56: 1, 4: 2, 5: 2, 8: 6}","[4, 5, 8, 56]",425286561,Ba1Be2B2O6
NaCaBe2B2O6F,mp-1193627,5.0458,1.07035461,0.0036189919230809,"{11: 1, 20: 1, 4: 2, 5: 2, 8: 6, 9: 1}","[4, 5, 8, 9, 11, 20]",42528691111201,Na1Ca1Be2B2O6F1
Sr2Be2B2O7,mp-556498,4.0798000000000005,1.65990551,0.0054582771153803,"{38: 2, 4: 2, 5: 2, 8: 7}","[4, 5, 8, 38]",425287382,Sr2Be2B2O7
KBe2B3O7,mp-1193116,5.5029,-0.09944659,0.0007822135042587,"{19: 1, 4: 2, 5: 3, 8: 7}","[4, 5, 8, 19]",425387191,K1Be2B3O7
RbBe2B3O7,mp-1020621,4.5047,-0.09262999,0.0142654388354337,"{37: 1, 4: 2, 5: 3, 8: 7}","[4, 5, 8, 37]",425387371,Rb1Be2B3O7
YBe2B5O11,mp-1020740,4.9403,1.01327099,0.0,"{39: 1, 4: 2, 5: 5, 8: 11}","[4, 5, 8, 39]",4255811391,Y1Be2B5O11
GdBe2B5O11,mp-1195691,0.3102,1.30534746,0.0,"{64: 1, 4: 2, 5: 5, 8: 11}","[4, 5, 8, 64]",4255811641,Gd1Be2B5O11
Be3B3P6N3O25,mp-1214690,0.0201,-0.60663135,0.5613399951562466,"{4: 3, 5: 3, 15: 6, 7: 3, 8: 25}","[4, 5, 7, 8, 15]",435373825156,Be3B3P6N3O25
Na3Be3B3P6O25,mp-1211231,1.0103,0.75977776,0.0774935483750001,"{11: 3, 4: 3, 5: 3, 15: 6, 8: 25}","[4, 5, 8, 11, 15]",4353825113156,Na3Be3B3P6O25
K3Be3B3P6O25,mp-1212145,0.002,0.65535561,0.0480426603124959,"{19: 3, 4: 3, 5: 3, 15: 6, 8: 25}","[4, 5, 8, 15, 19]",4353825156193,K3Be3B3P6O25
NaSr3Be3B3O9F4,mp-1192032,4.7554,1.08836928,0.037491461847833,"{11: 1, 38: 3, 4: 3, 5: 3, 8: 9, 9: 4}","[4, 5, 8, 9, 11, 38]",43538994111383,Na1Sr3Be3B3O9F4
CsBe4Al4(B3O7)4,mp-540725,0.064,,0.074682914015467,"{55: 1, 4: 4, 13: 4, 5: 12, 8: 28}","[4, 5, 8, 13, 55]",44512828134551,Cs1Be4Al4B12O28
Be4B25,mp-1227634,0.0,6.84281784,0.2133130901724129,"{4: 4, 5: 25}","[4, 5]",44525,Be4B25
Na2Be4B4O11,mp-1020144,4.983300000000001,0.80965338,0.0017968795238214,"{11: 2, 4: 4, 5: 4, 8: 11}","[4, 5, 8, 11]",4454811112,Na2Be4B4O11
CsNa2Be6(BO3)5,mp-866613,4.5093,0.56914838,0.000543553103447,"{55: 1, 11: 2, 4: 6, 5: 5, 8: 15}","[4, 5, 8, 11, 55]",4655815112551,Cs1Na2Be6B5O15
V3B100,mp-1216517,0.0,4.76856141,0.0327932938673152,"{23: 3, 5: 100}","[5, 23]",5100233,V3B100
Pr3Co29(Si2B5)2,mp-16084,0.0037000000000002,,0.0,"{59: 3, 27: 29, 14: 4, 5: 10}","[5, 14, 27, 59]",5101442729593,Pr3Co29Si4B10
Sm3Co29(Si2B5)2,mp-16086,0.0111000000000007,,0.0,"{62: 3, 27: 29, 14: 4, 5: 10}","[5, 14, 27, 62]",5101442729623,Sm3Co29Si4B10
Tb3Co29(Si2B5)2,mp-16088,0.0102999999999999,,0.0,"{65: 3, 27: 29, 14: 4, 5: 10}","[5, 14, 27, 65]",5101442729653,Tb3Co29Si4B10
Tm3Co29(Si2B5)2,mp-16092,0.0121999999999999,,0.0,"{69: 3, 27: 29, 14: 4, 5: 10}","[5, 14, 27, 69]",5101442729693,Tm3Co29Si4B10
Lu3Co29(Si2B5)2,mp-16093,0.0121999999999999,,0.0,"{71: 3, 27: 29, 14: 4, 5: 10}","[5, 14, 27, 71]",5101442729713,Lu3Co29Si4B10
Th2FeB10,mp-21902,0.0,8.06567571,0.0,"{90: 2, 26: 1, 5: 10}","[5, 26, 90]",510261902,Th2Fe1B10
Ho2NiB10,mp-1212324,0.0,6.2856517,0.0053254194891803,"{67: 2, 28: 1, 5: 10}","[5, 28, 67]",510281672,Ho2Ni1B10
Y3Ni19B10,mp-1199550,0.0,7.76053573,0.0103668809314987,"{39: 3, 28: 19, 5: 10}","[5, 28, 39]",5102819393,Y3Ni19B10
Gd3Ni19B10,mp-866774,0.0,7.75116946,0.0162779136949575,"{64: 3, 28: 19, 5: 10}","[5, 28, 64]",5102819643,Gd3Ni19B10
Tb3Ni19B10,mp-1197368,0.0,7.68725114,0.0111419903245257,"{65: 3, 28: 19, 5: 10}","[5, 28, 65]",5102819653,Tb3Ni19B10
Dy3Ni19B10,mp-1197227,0.0,7.7839701,0.0088127085714342,"{66: 3, 28: 19, 5: 10}","[5, 28, 66]",5102819663,Dy3Ni19B10
Ho3Ni19B10,mp-28151,0.0,7.6754553,0.1574311443164049,"{67: 3, 28: 19, 5: 10}","[5, 28, 67]",5102819673,Ho3Ni19B10
Er3Ni19B10,mp-1201895,0.0,7.7370212,0.0013586714488624,"{68: 3, 28: 19, 5: 10}","[5, 28, 68]",5102819683,Er3Ni19B10
Na5Sr2B10(CO13)2,mp-1210602,0.0,0.45844679,0.069482548472223,"{11: 5, 38: 2, 5: 10, 6: 2, 8: 26}","[5, 6, 8, 11, 38]",51062826115382,Na5Sr2B10C2O26
Tb4YNi10(B2C)5,mp-1217659,0.0,6.5876984,0.0071488959999985,"{65: 4, 39: 1, 28: 10, 5: 10, 6: 5}","[5, 6, 28, 39, 65]",510652810391654,Tb4Y1Ni10B10C5
Er4LuNi10(B2C)5,mp-1225907,0.0,6.69158912,0.0081860623333342,"{68: 4, 71: 1, 28: 10, 5: 10, 6: 5}","[5, 6, 28, 68, 71]",510652810684711,Er4Lu1Ni10B10C5
Cs2Na2B10O17,mp-559557,4.7125,0.39384728,0.0,"{55: 2, 11: 2, 5: 10, 8: 17}","[5, 8, 11, 55]",510817112552,Cs2Na2B10O17
Ba2B10O17,mp-1019522,5.6719,0.93205944,0.0021536630387437,"{56: 2, 5: 10, 8: 17}","[5, 8, 56]",510817562,Ba2B10O17
Ba4NaB10Cl(O9F)2,mp-1199057,5.2856,0.86287662,0.0053526249999817,"{56: 4, 11: 1, 5: 10, 17: 1, 8: 18, 9: 2}","[5, 8, 9, 11, 17, 56]",51081892111171564,Ba4Na1B10Cl1O18F2
NaB10Pb4Cl2O19,mp-1221108,1.2992,3.88427482,0.0600773616319427,"{11: 1, 5: 10, 82: 4, 17: 2, 8: 19}","[5, 8, 11, 17, 82]",510819111172824,Na1B10Pb4Cl2O19
Ba4B10Cl2O19,mp-1194958,0.0,0.68187501,0.1166345995089255,"{56: 4, 5: 10, 17: 2, 8: 19}","[5, 8, 17, 56]",510819172564,Ba4B10Cl2O19
B10Pb4Cl2O19,mp-1195990,0.4469000000000001,2.00885268,0.0545513734391533,"{5: 10, 82: 4, 17: 2, 8: 19}","[5, 8, 17, 82]",510819172824,B10Pb4Cl2O19
La4B10O21,mp-1019894,4.139400000000001,4.64196452,0.0126719129428565,"{57: 4, 5: 10, 8: 21}","[5, 8, 57]",510821574,La4B10O21
Pr4B10O21,mp-559104,4.990399999999999,3.06765408,0.0121985517856977,"{59: 4, 5: 10, 8: 21}","[5, 8, 59]",510821594,Pr4B10O21
B10Pb4O21,mp-1203744,0.1058000000000001,1.6889452,0.1004895523333173,"{5: 10, 82: 4, 8: 21}","[5, 8, 82]",510821824,B10Pb4O21
Bi6B10O21,mp-768871,1.1879999999999995,3.68628604,0.1016272039189187,"{83: 6, 5: 10, 8: 21}","[5, 8, 83]",510821836,Bi6B10O21
KU2(B5O12)2,mp-1201877,0.1959999999999999,0.11543086,0.1262564042342475,"{19: 1, 92: 2, 5: 10, 8: 24}","[5, 8, 19, 92]",510824191922,K1U2B10O24
Ca5TiSn4(BO3)10,mp-1227225,3.092,2.35734901,0.0052112130000123,"{20: 5, 22: 1, 50: 4, 5: 10, 8: 30}","[5, 8, 20, 22, 50]",510830205221504,Ca5Ti1Sn4B10O30
NaBS2,mp-15011,2.5684,1.56138891,0.008983460416668,"{11: 1, 5: 1, 16: 2}","[5, 11, 16]",51111162,Na1B1S2
Na3BP2,mp-29370,1.8451,1.37191348,0.0244345775000001,"{11: 3, 5: 1, 15: 2}","[5, 11, 15]",51113152,Na3B1P2
MgScB,mp-1100394,0.1575000000000002,3.51753013,0.3369056183333327,"{12: 1, 21: 1, 5: 1}","[5, 12, 21]",51121211,Mg1Sc1B1
Mg14AlB,mp-1028227,0.0,2.94926319,0.2136040247851567,"{12: 14, 13: 1, 5: 1}","[5, 12, 13]",511214131,Mg14Al1B1
CaMg14B,mp-1028149,0.0,3.38779255,0.2253659371354168,"{20: 1, 12: 14, 5: 1}","[5, 12, 20]",511214201,Ca1Mg14B1
Mg14CrB,mp-1026516,0.0,3.61862428,0.33345006890625,"{12: 14, 24: 1, 5: 1}","[5, 12, 24]",511214241,Mg14Cr1B1
Mg14FeB,mp-1028228,0.0,3.77080762,0.2945380548437502,"{12: 14, 26: 1, 5: 1}","[5, 12, 26]",511214261,Mg14Fe1B1
Mg14CoB,mp-1028436,0.0,3.4463515,0.2374087609374999,"{12: 14, 27: 1, 5: 1}","[5, 12, 27]",511214271,Mg14Co1B1
Mg14CuB,mp-1026902,0.0,3.83484224,0.1862047717187502,"{12: 14, 29: 1, 5: 1}","[5, 12, 29]",511214291,Mg14Cu1B1
Mg14ZnB,mp-1027954,0.0,3.65379512,0.2117834707562502,"{12: 14, 30: 1, 5: 1}","[5, 12, 30]",511214301,Mg14Zn1B1
Mg14GaB,mp-1026430,0.0,3.79092903,0.2088369160937497,"{12: 14, 31: 1, 5: 1}","[5, 12, 31]",511214311,Mg14Ga1B1
SrMg14B,mp-1026709,0.0,3.21438668,0.2395427296875003,"{38: 1, 12: 14, 5: 1}","[5, 12, 38]",511214381,Sr1Mg14B1
YMg14B,mp-1027987,0.0,3.47257612,0.2103563570312498,"{39: 1, 12: 14, 5: 1}","[5, 12, 39]",511214391,Y1Mg14B1
Mg14ZrB,mp-1099082,0.0,3.73252198,0.28314895375,"{12: 14, 40: 1, 5: 1}","[5, 12, 40]",511214401,Mg14Zr1B1
Mg14NbB,mp-1026514,0.0,3.76779794,0.3519727190625001,"{12: 14, 41: 1, 5: 1}","[5, 12, 41]",511214411,Mg14Nb1B1
Mg14CdB,mp-1026566,0.0,3.65479932,0.21139309921875,"{12: 14, 48: 1, 5: 1}","[5, 12, 48]",511214481,Mg14Cd1B1
Mg14SnB,mp-1026588,0.0,4.28161771,0.2125850432812501,"{12: 14, 50: 1, 5: 1}","[5, 12, 50]",511214501,Mg14Sn1B1
Mg14BSb,mp-1026462,0.0,4.05233611,0.2408831212890627,"{12: 14, 5: 1, 51: 1}","[5, 12, 51]",511214511,Mg14B1Sb1
CsMg14B,mp-1026611,0.0,3.13660088,0.3157048304418097,"{55: 1, 12: 14, 5: 1}","[5, 12, 55]",511214551,Cs1Mg14B1
BaMg14B,mp-1026603,0.0,3.26276053,0.2675635954427064,"{56: 1, 12: 14, 5: 1}","[5, 12, 56]",511214561,Ba1Mg14B1
LaMg14B,mp-1026772,0.0,3.79596539,0.21747537953125,"{57: 1, 12: 14, 5: 1}","[5, 12, 57]",511214571,La1Mg14B1
CeMg14B,mp-1027162,0.0,3.76428222,0.200941979453125,"{58: 1, 12: 14, 5: 1}","[5, 12, 58]",511214581,Ce1Mg14B1
Mg14BiB,mp-1026519,0.0,3.89207447,0.232564276875,"{12: 14, 83: 1, 5: 1}","[5, 12, 83]",511214831,Mg14Bi1B1
Mg15B,mp-1023515,0.0,3.46669481,0.1943297190624999,"{12: 15, 5: 1}","[5, 12]",511215,Mg15B1
Mg6AlB,mp-1023279,0.0,4.31814265,0.4116489045703133,"{12: 6, 13: 1, 5: 1}","[5, 12, 13]",51126131,Mg6Al1B1
KMg6B,mp-1021467,0.0,2.56786703,0.3529670775312503,"{19: 1, 12: 6, 5: 1}","[5, 12, 19]",51126191,K1Mg6B1
Mg6VB,mp-1021779,0.0,3.70441234,0.4420849150000001,"{12: 6, 23: 1, 5: 1}","[5, 12, 23]",51126231,Mg6V1B1
Mg6FeB,mp-1022325,0.0,3.60764422,0.2311673834375001,"{12: 6, 26: 1, 5: 1}","[5, 12, 26]",51126261,Mg6Fe1B1
Mg6CoB,mp-1022088,0.0,3.74670083,0.1483439893750002,"{12: 6, 27: 1, 5: 1}","[5, 12, 27]",51126271,Mg6Co1B1
Mg6NiB,mp-1099294,0.0,3.65206783,0.2355683505902779,"{12: 6, 28: 1, 5: 1}","[5, 12, 28]",51126281,Mg6Ni1B1
Mg6CuB,mp-1022116,0.0,4.02552222,0.2559613209374998,"{12: 6, 29: 1, 5: 1}","[5, 12, 29]",51126291,Mg6Cu1B1
Mg6ZnB,mp-1022656,0.0,3.611094,0.2596790127625001,"{12: 6, 30: 1, 5: 1}","[5, 12, 30]",51126301,Mg6Zn1B1
RbMg6B,mp-1017387,0.0,2.6933698,0.3863362580652265,"{37: 1, 12: 6, 5: 1}","[5, 12, 37]",51126371,Rb1Mg6B1
YMg6B,mp-1022629,0.0,3.56956956,0.3818432528125002,"{39: 1, 12: 6, 5: 1}","[5, 12, 39]",51126391,Y1Mg6B1
Mg6BSb,mp-1100151,0.0,4.49552124,0.3170054713281249,"{12: 6, 5: 1, 51: 1}","[5, 12, 51]",51126511,Mg6B1Sb1
BaMg6B,mp-1016647,0.0,2.92972738,0.3914146287723237,"{56: 1, 12: 6, 5: 1}","[5, 12, 56]",51126561,Ba1Mg6B1
CeMg6B,mp-1017491,0.0,3.93334168,0.3664998778906305,"{58: 1, 12: 6, 5: 1}","[5, 12, 58]",51126581,Ce1Mg6B1
Mg7B,mp-1016262,0.0,3.68623104,0.3819159881249998,"{12: 7, 5: 1}","[5, 12]",51127,Mg7B1
AlFe3B,mp-1206715,0.0,6.26874156,0.1686736869999965,"{13: 1, 26: 3, 5: 1}","[5, 13, 26]",51131263,Al1Fe3B1
AlAgB,mp-631568,0.0,5.0156043,0.9112557830999996,"{13: 1, 47: 1, 5: 1}","[5, 13, 47]",51131471,Al1Ag1B1
CeAl2BRu2,mp-1071272,0.0,7.55948545,0.0278263634374988,"{58: 1, 13: 2, 5: 1, 44: 2}","[5, 13, 44, 58]",51132442581,Ce1Al2B1Ru2
Al4Re12B,mp-1215160,0.0104000000000001,-2.78303058,4.438060745588238,"{13: 4, 75: 12, 5: 1}","[5, 13, 75]",511347512,Al4Re12B1
Fe6SiB,mp-1225187,0.0,6.4088115,0.1182733662499995,"{26: 6, 14: 1, 5: 1}","[5, 14, 26]",51141266,Fe6Si1B1
Hf20Si12B,mp-1224515,0.0,6.33200091,0.0107809527272806,"{72: 20, 14: 12, 5: 1}","[5, 14, 72]",5114127220,Hf20Si12B1
CeCo2SiB,mp-1226630,0.0,8.01191961,0.06228331831249,"{58: 1, 27: 2, 14: 1, 5: 1}","[5, 14, 27, 58]",51141272581,Ce1Co2Si1B1
YSiBRh3,mp-1215922,0.0,6.36884175,0.0762318612500205,"{39: 1, 14: 1, 5: 1, 45: 3}","[5, 14, 39, 45]",51141391453,Y1Si1B1Rh3
CeSiBRh3,mp-1226584,0.0,8.08729157,0.0836944025595176,"{58: 1, 14: 1, 5: 1, 45: 3}","[5, 14, 45, 58]",51141453581,Ce1Si1B1Rh3
BaSiB,mp-631544,0.0,2.98733032,1.550995508611113,"{56: 1, 14: 1, 5: 1}","[5, 14, 56]",51141561,Ba1Si1B1
CeSiBIr3,mp-1226531,0.0,9.04012379,0.0839006249999929,"{58: 1, 14: 1, 5: 1, 77: 3}","[5, 14, 58, 77]",51141581773,Ce1Si1B1Ir3
V5Si2B,mp-1188856,0.0,7.53373146,0.2456846906250014,"{23: 5, 14: 2, 5: 1}","[5, 14, 23]",51142235,V5Si2B1
ZrFe12Si2B,mp-653838,0.0,6.31754164,0.256660964947919,"{40: 1, 26: 12, 14: 2, 5: 1}","[5, 14, 26, 40]",511422612401,Zr1Fe12Si2B1
Fe5Si2B,mp-1188610,0.0,7.99662605,0.0397838879687517,"{26: 5, 14: 2, 5: 1}","[5, 14, 26]",51142265,Fe5Si2B1
Si3B,mp-972733,0.0,10.58701732,0.9233093758333332,"{14: 3, 5: 1}","[5, 14]",51143,Si3B1
V5Si3B,mp-1188823,0.0,8.37650774,0.0034944132407428,"{23: 5, 14: 3, 5: 1}","[5, 14, 23]",51143235,V5Si3B1
Cr5Si3B,mp-1189692,0.0,9.05589031,0.0588675697222225,"{24: 5, 14: 3, 5: 1}","[5, 14, 24]",51143245,Cr5Si3B1
Nd5Si3B,mp-1209928,0.0,4.07970953,0.2083757072777743,"{60: 5, 14: 3, 5: 1}","[5, 14, 60]",51143605,Nd5Si3B1
Tb5Si3B,mp-1189409,0.0,4.30619354,0.1640075369097182,"{65: 5, 14: 3, 5: 1}","[5, 14, 65]",51143655,Tb5Si3B1
Ho5Si3B,mp-13235,0.0,4.25074609,0.1606936390972215,"{67: 5, 14: 3, 5: 1}","[5, 14, 67]",51143675,Ho5Si3B1
Er5Si3B,mp-1213244,0.0,4.37362749,0.1584988187500009,"{68: 5, 14: 3, 5: 1}","[5, 14, 68]",51143685,Er5Si3B1
Lu5Si3B,mp-13234,0.0,4.338668,0.1589180905555522,"{71: 5, 14: 3, 5: 1}","[5, 14, 71]",51143715,Lu5Si3B1
B11Rh18,mp-1228811,0.0,7.09702479,0.0268745639655172,"{5: 11, 45: 18}","[5, 45]",5114518,B11Rh18
Y10Si6B,mp-1216165,0.0,4.42273275,0.0441023300919098,"{39: 10, 14: 6, 5: 1}","[5, 14, 39]",511463910,Y10Si6B1
BPS4,mp-27724,2.276,0.37956446,0.0,"{5: 1, 15: 1, 16: 4}","[5, 15, 16]",51151164,B1P1S4
Mn6BP,mp-1221372,0.0,7.78729701,0.032984043225575,"{25: 6, 5: 1, 15: 1}","[5, 15, 25]",51151256,Mn6B1P1
Fe6BP,mp-1225034,0.0,7.02498371,0.0271005540625015,"{26: 6, 5: 1, 15: 1}","[5, 15, 26]",51151266,Fe6B1P1
Co6BP,mp-1226141,0.0,7.10416421,0.0504652471874997,"{27: 6, 5: 1, 15: 1}","[5, 15, 27]",51151276,Co6B1P1
Cs3BAsP,mp-1229098,1.8444,3.38941751,0.0017885379166644,"{55: 3, 5: 1, 33: 1, 15: 1}","[5, 15, 33, 55]",51151331553,Cs3B1As1P1
Fe9BP2,mp-1225248,0.0,7.18842035,0.0171529897916666,"{26: 9, 5: 1, 15: 2}","[5, 15, 26]",51152269,Fe9B1P2
Cr12BP3,mp-1226178,0.0,8.15061189,0.0295487677343757,"{24: 12, 5: 1, 15: 3}","[5, 15, 24]",511532412,Cr12B1P3
BP4(SBr)3,mp-863030,2.6382,0.37219467,0.0076502537215912,"{5: 1, 15: 4, 16: 3, 35: 3}","[5, 15, 16, 35]",51154163353,B1P4S3Br3
BP4(SI)3,mp-1197482,2.1989,0.99692968,0.0467223071363607,"{5: 1, 15: 4, 16: 3, 53: 3}","[5, 15, 16, 53]",51154163533,B1P4S3I3
Nb2BS,mp-2647093,0.0,7.07158724,0.0067566278125017,"{41: 2, 5: 1, 16: 1}","[5, 16, 41]",51161412,Nb2B1S1
CuBS2,mp-12954,1.7424999999999995,6.42471159,0.0,"{29: 1, 5: 1, 16: 2}","[5, 16, 29]",51162291,Cu1B1S2
Rb3BS3,mp-29977,2.5462,0.78551673,0.0,"{37: 3, 5: 1, 16: 3}","[5, 16, 37]",51163373,Rb3B1S3
CeBS3,mp-1189296,0.0786999999999995,6.18864505,0.0126908937800003,"{58: 1, 5: 1, 16: 3}","[5, 16, 58]",51163581,Ce1B1S3
NdBS3,mp-1188683,2.3963,3.41791006,0.0009991580299999,"{60: 1, 5: 1, 16: 3}","[5, 16, 60]",51163601,Nd1B1S3
SmBS3,mp-972448,2.1425,3.54279966,0.0154988095300003,"{62: 1, 5: 1, 16: 3}","[5, 16, 62]",51163621,Sm1B1S3
TbBS3,mp-863748,2.3202,3.66283647,0.0371858120299988,"{65: 1, 5: 1, 16: 3}","[5, 16, 65]",51163651,Tb1B1S3
TlBS3,mp-28809,1.8034000000000003,3.5535573,0.0068765682499956,"{81: 1, 5: 1, 16: 3}","[5, 16, 81]",51163811,Tl1B1S3
Tl3BS3,mp-29337,1.4222,3.07582058,0.0,"{81: 3, 5: 1, 16: 3}","[5, 16, 81]",51163813,Tl3B1S3
BaBSbS4,mp-866301,2.3423000000000003,2.42408514,0.0,"{56: 1, 5: 1, 51: 1, 16: 4}","[5, 16, 51, 56]",51164511561,Ba1B1Sb1S4
BaBiBS4,mp-861618,1.9311,2.67599636,0.005593375436506,"{56: 1, 83: 1, 5: 1, 16: 4}","[5, 16, 56, 83]",51164561831,Ba1Bi1B1S4
BiBPbS4,mp-1227425,2.0872,5.30565102,0.004932426071428,"{83: 1, 5: 1, 82: 1, 16: 4}","[5, 16, 82, 83]",51164821831,Bi1B1Pb1S4
BCl,mp-1199460,0.0,-0.50010046,0.0114127631944436,"{5: 1, 17: 1}","[5, 17]",51171,B1Cl1
Hf6BCl14,mp-1212496,0.0160999999999997,2.53393458,0.0,"{72: 6, 5: 1, 17: 14}","[5, 17, 72]",511714726,Hf6B1Cl14
RbZr6BCl15,mp-1209995,0.0026000000000001,1.35605119,0.0,"{37: 1, 40: 6, 5: 1, 17: 15}","[5, 17, 37, 40]",511715371406,Rb1Zr6B1Cl15
CsRbZr6BCl15,mp-1213588,1.0453,2.07225951,0.0,"{55: 1, 37: 1, 40: 6, 5: 1, 17: 15}","[5, 17, 37, 40, 55]",511715371406551,Cs1Rb1Zr6B1Cl15
Ba2Zr6BCl17,mp-568105,0.8424999999999998,2.58133175,0.0,"{56: 2, 40: 6, 5: 1, 17: 17}","[5, 17, 40, 56]",511717406562,Ba2Zr6B1Cl17
BiBCl,mp-631539,0.0,4.10219609,2.0374418912962957,"{83: 1, 5: 1, 17: 1}","[5, 17, 83]",51171831,Bi1B1Cl1
BCl2,mp-23316,2.9183,-2.08217001,0.116294900648147,"{5: 1, 17: 2}","[5, 17]",51172,B1Cl2
Y3BCl3,mp-1207798,0.0,4.43793026,0.0,"{39: 3, 5: 1, 17: 3}","[5, 17, 39]",51173393,Y3B1Cl3
Sr2(BO2)11,mp-1198355,0.0,-0.2368323,0.3220196614563368,"{38: 2, 5: 11, 8: 22}","[5, 8, 38]",511822382,Sr2B11O22