formula,material_id,band_gap,efermi,energy_above_hull,comp_atoms,sorted_keys_comp_atoms,comp_number,new_formula
CsAg(BH)10,mp-699468,3.9226,-0.67417029,0.08614645454890901,"{55: 1, 47: 1, 5: 10, 1: 10}","[1, 5, 47, 55]",110510471551,Cs1Ag1B10H10
B11H10SI,mp-1203795,3.4062,1.89430563,0.0,"{5: 11, 1: 10, 16: 1, 53: 1}","[1, 5, 16, 53]",110511161531,B11H10S1I1
MnB12(H5O12)2,mp-1194831,4.6582,0.54475686,0.003385228492916781,"{25: 1, 5: 12, 1: 10, 8: 24}","[1, 5, 8, 25]",110512824251,Mn1B12H10O24
ZnB12(H5O12)2,mp-1195627,5.783799999999999,-0.63100536,0.005051400274830975,"{30: 1, 5: 12, 1: 10, 8: 24}","[1, 5, 8, 30]",110512824301,Zn1B12H10O24
CaB2(H5N)2,mp-1103502,3.7871,-0.56073939,0.08387726711111032,"{20: 1, 5: 2, 1: 10, 7: 2}","[1, 5, 7, 20]",1105272201,Ca1B2H10N2
MnB2P3H10N2ClO13,mp-1195729,4.4006,1.2816053,0.0015175310131798625,"{25: 1, 5: 2, 15: 3, 1: 10, 7: 2, 17: 1, 8: 13}","[1, 5, 7, 8, 15, 17, 25]",1105272813153171251,Mn1B2P3H10N2Cl1O13
CaB2H10O,mp-1198143,5.4184,2.27099685,0.15052932950891407,"{20: 1, 5: 2, 1: 10, 8: 1}","[1, 5, 8, 20]",1105281201,Ca1B2H10O1
CaB2H10O9,mp-24065,5.2523,-0.33108336,0.0076636956818108,"{20: 1, 5: 2, 1: 10, 8: 9}","[1, 5, 8, 20]",1105289201,Ca1B2H10O9
B3H10N,mp-1196163,5.9859,-3.79947284,0.11393017953571416,"{5: 3, 1: 10, 7: 1}","[1, 5, 7]",1105371,B3H10N1
NaB5H10O13,mp-540721,5.6657,-1.78590995,0.0019217801724149552,"{11: 1, 5: 5, 1: 10, 8: 13}","[1, 5, 8, 11]",11055813111,Na1B5H10O13
NaCaB5(H5O7)2,mp-707788,4.6955,-0.23681019,0.0072865477419252755,"{11: 1, 20: 1, 5: 5, 1: 10, 8: 14}","[1, 5, 8, 11, 20]",11055814111201,Na1Ca1B5H10O14
B6H10N,mp-31064,5.6566,-2.67094677,0.0,"{5: 6, 1: 10, 7: 1}","[1, 5, 7]",1105671,B6H10N1
MgB6(H2O3)5,mp-1195993,4.9457,4.14080791,0.025034238460938774,"{12: 1, 5: 6, 1: 10, 8: 15}","[1, 5, 8, 12]",11056815121,Mg1B6H10O15
B7H10,mp-27820,2.5117,-1.91165352,0.031991528021389826,"{5: 7, 1: 10}","[1, 5]",11057,B7H10
B8H10N,mp-733481,0.3415999999999999,-1.06958125,0.25315816956140313,"{5: 8, 1: 10, 7: 1}","[1, 5, 7]",1105871,B8H10N1
BiB12H11O3,mp-1194824,1.4049999999999998,-2.0764376,0.5827728100810186,"{83: 1, 5: 12, 1: 11, 8: 3}","[1, 5, 8, 83]",11151283831,Bi1B12H11O3
B5H11,mp-30529,4.6651,-3.65111586,0.02219420865767141,"{5: 5, 1: 11}","[1, 5]",11155,B5H11
B5H11N2,mp-27892,3.8592999999999997,-0.24607977,0.11293806758333513,"{5: 5, 1: 11, 7: 2}","[1, 5, 7]",1115572,B5H11N2
B9H11,mp-29654,2.9118,-1.99625916,0.0,"{5: 9, 1: 11}","[1, 5]",11159,B9H11
B9H11N4,mp-28668,3.0055,-1.76675817,0.5075881210416693,"{5: 9, 1: 11, 7: 4}","[1, 5, 7]",1115974,B9H11N4
Rb3B12H12Cl,mp-24798,4.954000000000001,-1.29506375,0.08240276714285599,"{37: 3, 5: 12, 1: 12, 17: 1}","[1, 5, 17, 37]",112512171373,Rb3B12H12Cl1
Cs3B12H12Cl,mp-24799,4.9577,-0.96204584,0.07881435499999956,"{55: 3, 5: 12, 1: 12, 17: 1}","[1, 5, 17, 55]",112512171553,Cs3B12H12Cl1
K3B12H12Br,mp-510549,4.7872,-1.16279457,0.08537117214285761,"{19: 3, 5: 12, 1: 12, 35: 1}","[1, 5, 19, 35]",112512193351,K3B12H12Br1
K3B12H12I,mp-24240,4.6690000000000005,-0.76810937,0.08574814642857209,"{19: 3, 5: 12, 1: 12, 53: 1}","[1, 5, 19, 53]",112512193531,K3B12H12I1
Ca(BH)12,mp-1196257,4.8911,2.84280377,0.0,"{20: 1, 5: 12, 1: 12}","[1, 5, 20]",112512201,Ca1B12H12
Rb3B12H12Br,mp-24796,4.7451,-1.26936135,0.08007141928571482,"{37: 3, 5: 12, 1: 12, 35: 1}","[1, 5, 35, 37]",112512351373,Rb3B12H12Br1
Cs3B12H12Br,mp-542819,4.7566,-0.87356941,0.07739154071428445,"{55: 3, 5: 12, 1: 12, 35: 1}","[1, 5, 35, 55]",112512351553,Cs3B12H12Br1
Rb3B12H12I,mp-24241,4.6171,-0.80725602,0.08257266107142769,"{37: 3, 5: 12, 1: 12, 53: 1}","[1, 5, 37, 53]",112512373531,Rb3B12H12I1
Sr(BH)12,mp-1200414,5.893599999999999,3.75991497,0.0,"{38: 1, 5: 12, 1: 12}","[1, 5, 38]",112512381,Sr1B12H12
Cs3B12H12I,mp-643710,4.535,-0.65541809,0.0813755817857098,"{55: 3, 5: 12, 1: 12, 53: 1}","[1, 5, 53, 55]",112512531553,Cs3B12H12I1
MgB12(H2O)6,mp-1199979,0.0,-3.53134597,1.1898412411947925,"{12: 1, 5: 12, 1: 12, 8: 6}","[1, 5, 8, 12]",11251286121,Mg1B12H12O6
CaB12(H3O2)4,mp-699475,0.031300000000000106,-1.27522654,0.881792809124307,"{20: 1, 5: 12, 1: 12, 8: 8}","[1, 5, 8, 20]",11251288201,Ca1B12H12O8
SrB12(H3O2)4,mp-1201030,0.1757,0.13211971,0.4375028276340114,"{38: 1, 5: 12, 1: 12, 8: 8}","[1, 5, 8, 38]",11251288381,Sr1B12H12O8
BH12N4F3,mp-1200814,4.9249,-2.61456564,0.058989785749997914,"{5: 1, 1: 12, 7: 4, 9: 3}","[1, 5, 7, 9]",112517493,B1H12N4F3
CaB2(H6O5)2,mp-554736,5.4565,-0.85401865,0.011343565499998043,"{20: 1, 5: 2, 1: 12, 8: 10}","[1, 5, 8, 20]",11252810201,Ca1B2H12O10
NaZn(BH4)3,mp-1203290,5.7671,-3.73271931,0.01624626772059612,"{11: 1, 30: 1, 5: 3, 1: 12}","[1, 5, 11, 30]",11253111301,Na1Zn1B3H12
Al(BH4)3,mp-569787,6.2431,-4.70100868,0.0,"{13: 1, 5: 3, 1: 12}","[1, 5, 13]",11253131,Al1B3H12
KSr(BH4)3,mp-1195216,5.7155000000000005,2.4802438,0.0,"{19: 1, 38: 1, 5: 3, 1: 12}","[1, 5, 19, 38]",11253191381,K1Sr1B3H12
KCd(BH4)3,mp-1199830,3.8411999999999997,-2.8756509,0.010778075000000165,"{19: 1, 48: 1, 5: 3, 1: 12}","[1, 5, 19, 48]",11253191481,K1Cd1B3H12
RbSr(BH4)3,mp-1194771,5.242800000000001,2.08511861,0.0,"{37: 1, 38: 1, 5: 3, 1: 12}","[1, 5, 37, 38]",11253371381,Rb1Sr1B3H12
CsSr(BH4)3,mp-1195599,5.3107,2.60162449,0.0,"{55: 1, 38: 1, 5: 3, 1: 12}","[1, 5, 38, 55]",11253381551,Cs1Sr1B3H12
La(BH4)3,mp-2646967,4.5244,-3.18740343,0.0,"{57: 1, 5: 3, 1: 12}","[1, 5, 57]",11253571,La1B3H12
Ce(BH4)3,mp-2646929,0.3439,-0.05555809,0.0,"{58: 1, 5: 3, 1: 12}","[1, 5, 58]",11253581,Ce1B3H12
B3H12N,mp-1200862,5.4716000000000005,-2.86571685,0.1139648403749991,"{5: 3, 1: 12, 7: 1}","[1, 5, 7]",1125371,B3H12N1
Lu(BH4)3,mp-2646923,4.7143,-3.49024984,0.0,"{71: 1, 5: 3, 1: 12}","[1, 5, 71]",11253711,Lu1B3H12
CsNaB4H12O13,mp-542533,4.9524,-1.20543421,0.00866285788305543,"{55: 1, 11: 1, 5: 4, 1: 12, 8: 13}","[1, 5, 8, 11, 55]",11254813111551,Cs1Na1B4H12O13
Ca3B4(H4O)3,mp-1182037,4.7904,-0.6903716,0.0,"{20: 3, 5: 4, 1: 12, 8: 3}","[1, 5, 8, 20]",1125483203,Ca3B4H12O3
B5H12NO12,mp-703444,5.5022,-2.06590704,0.0,"{5: 5, 1: 12, 7: 1, 8: 12}","[1, 5, 7, 8]",1125571812,B5H12N1O12
Cs3B6H12S4Br,mp-695929,4.9166,-0.2159295,0.0,"{55: 3, 5: 6, 1: 12, 16: 4, 35: 1}","[1, 5, 16, 35, 55]",11256164351553,Cs3B6H12S4Br1
Cs3B6H12Se4Br,mp-740711,4.4933000000000005,-0.47105265,0.0,"{55: 3, 5: 6, 1: 12, 34: 4, 35: 1}","[1, 5, 34, 35, 55]",11256344351553,Cs3B6H12Se4Br1
CdB6H12(N2O5)2,mp-1195051,4.3355999999999995,0.51133561,0.0,"{48: 1, 5: 6, 1: 12, 7: 4, 8: 10}","[1, 5, 7, 8, 48]",1125674810481,Cd1B6H12N4O10
MgB6(H3O4)4,mp-1205090,5.4762,-1.115723,0.012165577942858441,"{12: 1, 5: 6, 1: 12, 8: 16}","[1, 5, 8, 12]",11256816121,Mg1B6H12O16
CaMgB6H12O17,mp-781555,5.6314,-0.09263289,0.0029889800675695355,"{20: 1, 12: 1, 5: 6, 1: 12, 8: 17}","[1, 5, 8, 12, 20]",11256817121201,Ca1Mg1B6H12O17
B10H13,mp-706664,3.3079,-2.43319996,0.005489127574727526,"{5: 10, 1: 13}","[1, 5]",113510,B10H13
B10H13Cl,mp-1195877,3.6163000000000003,0.99465387,0.0011473294791759514,"{5: 10, 1: 13, 17: 1}","[1, 5, 17]",113510171,B10H13Cl1
B10H13Br,mp-1197561,3.3357,0.90531112,0.0001291800000009502,"{5: 10, 1: 13, 35: 1}","[1, 5, 35]",113510351,B10H13Br1
B10H13I,mp-1199051,2.5463,-1.80337041,0.0,"{5: 10, 1: 13, 53: 1}","[1, 5, 53]",113510531,B10H13I1
K2B10H13O2,mp-705494,3.7309,-0.67962843,0.21953583914084795,"{19: 2, 5: 10, 1: 13, 8: 2}","[1, 5, 8, 19]",11351082192,K2B10H13O2
MgB2H13N3,mp-1202237,4.9993,-1.40489545,0.04322986011513397,"{12: 1, 5: 2, 1: 13, 7: 3}","[1, 5, 7, 12]",1135273121,Mg1B2H13N3
CaB2H13N3,mp-1197534,4.6,-1.51239451,0.05525862600877218,"{20: 1, 5: 2, 1: 13, 7: 3}","[1, 5, 7, 20]",1135273201,Ca1B2H13N3
CaB3H13O12,mp-733877,5.2325,-0.85702086,0.01195304086206761,"{20: 1, 5: 3, 1: 13, 8: 12}","[1, 5, 8, 20]",11353812201,Ca1B3H13O12
Ca2B3(HO)13,mp-699451,5.0496,0.01808174,0.017391993629024327,"{20: 2, 5: 3, 1: 13, 8: 13}","[1, 5, 8, 20]",11353813202,Ca2B3H13O13
Be2BHO4,mp-23883,6.1491,0.38189803,0.0,"{4: 2, 5: 1, 1: 1, 8: 4}","[1, 4, 5, 8]",11425184,Be2B1H1O4
Sr3Be2B5HO13,mp-1218394,3.6266,2.2347431,0.03275477510415303,"{38: 3, 4: 2, 5: 5, 1: 1, 8: 13}","[1, 4, 5, 8, 38]",114255813383,Sr3Be2B5H1O13
Be(B3H7)2,mp-27748,4.3149999999999995,-2.93366716,0.016713402332249494,"{4: 1, 5: 6, 1: 14}","[1, 4, 5]",1144156,Be1B6H14
B10H14S,mp-1199941,2.5518,0.37997286,0.0,"{5: 10, 1: 14, 16: 1}","[1, 5, 16]",114510161,B10H14S1
CaB2(H7N)2,mp-866308,5.4223,-2.22989576,0.04712478842104684,"{20: 1, 5: 2, 1: 14, 7: 2}","[1, 5, 7, 20]",1145272201,Ca1B2H14N2
MnB2(H7N)2,mp-1195203,2.2965999999999998,-1.12662213,0.0839593324115242,"{25: 1, 5: 2, 1: 14, 7: 2}","[1, 5, 7, 25]",1145272251,Mn1B2H14N2
AlB3H14N,mp-1252808,1.5074999999999998,-3.58822991,0.22448083953947506,"{13: 1, 5: 3, 1: 14, 7: 1}","[1, 5, 7, 13]",1145371131,Al1B3H14N1
B6P2H14N2O19,mp-1197636,1.0871,0.64529756,0.12443216872094531,"{5: 6, 15: 2, 1: 14, 7: 2, 8: 19}","[1, 5, 7, 8, 15]",1145672819152,B6P2H14N2O19
MgB6H14O17,mp-1196351,5.2179,-1.06294172,0.012452851125001274,"{12: 1, 5: 6, 1: 14, 8: 17}","[1, 5, 8, 12]",11456817121,Mg1B6H14O17
CsB9H14,mp-27590,3.8007,-1.20259877,0.06399230270831069,"{55: 1, 5: 9, 1: 14}","[1, 5, 55]",11459551,Cs1B9H14
BH,mp-1238837,0.0,-2.93601005,0.0971375636553029,"{5: 1, 1: 1}","[1, 5]",1151,B1H1
Co3B11HO20,mp-1199160,2.1750000000000003,5.32772451,0.08793567209523623,"{27: 3, 5: 11, 1: 1, 8: 20}","[1, 5, 8, 27]",11511820273,Co3B11H1O20
Sr2B11HO21,mp-1209355,0.0,-0.58091653,0.2789199497486514,"{38: 2, 5: 11, 1: 1, 8: 21}","[1, 5, 8, 38]",11511821382,Sr2B11H1O21
Cs2B12HF12,mp-1213751,2.6744,-0.55392989,0.1750481825651562,"{55: 2, 5: 12, 1: 1, 9: 12}","[1, 5, 9, 55]",11512912552,Cs2B12H1F12
Ca2BHN2,mp-24266,3.0020000000000007,1.97189858,0.0,"{20: 2, 5: 1, 1: 1, 7: 2}","[1, 5, 7, 20]",115172202,Ca2B1H1N2
BHN4,mp-1200679,4.359,2.05743988,0.17055481555555652,"{5: 1, 1: 1, 7: 4}","[1, 5, 7]",115174,B1H1N4
BHS3O11,mp-1200187,5.696299999999999,-1.00909997,0.0,"{5: 1, 1: 1, 16: 3, 8: 11}","[1, 5, 8, 16]",1151811163,B1H1S3O11
BHO2,mp-1198592,6.2786,-1.41496723,0.0,"{5: 1, 1: 1, 8: 2}","[1, 5, 8]",115182,B1H1O2
Na2BHO3,mp-556125,3.8105999999999995,0.40732859,0.0,"{11: 2, 5: 1, 1: 1, 8: 3}","[1, 5, 8, 11]",115183112,Na2B1H1O3
MgBHO3,mp-23748,5.4376999999999995,1.43306323,0.0,"{12: 1, 5: 1, 1: 1, 8: 3}","[1, 5, 8, 12]",115183121,Mg1B1H1O3
CaBHO3,mp-1192226,4.963699999999999,0.66704906,0.0,"{20: 1, 5: 1, 1: 1, 8: 3}","[1, 5, 8, 20]",115183201,Ca1B1H1O3
BH(PbO2)2,mp-1105235,3.0854,1.93197363,0.0,"{5: 1, 1: 1, 82: 2, 8: 4}","[1, 5, 8, 82]",115184822,B1H1Pb2O4
CaSiBHO5,mp-554371,5.390499999999999,2.22370392,0.0019108412962953736,"{20: 1, 14: 1, 5: 1, 1: 1, 8: 5}","[1, 5, 8, 14, 20]",115185141201,Ca1Si1B1H1O5
K2BAs2HO8,mp-1224203,3.7036999999999995,3.0402329,0.0,"{19: 2, 5: 1, 33: 2, 1: 1, 8: 8}","[1, 5, 8, 19, 33]",115188192332,K2B1As2H1O8
NaInBP2HO9,mp-1198616,4.1928,1.36601454,0.0,"{11: 1, 49: 1, 5: 1, 15: 2, 1: 1, 8: 9}","[1, 5, 8, 11, 15, 49]",115189111152491,Na1In1B1P2H1O9
RbAlBP2HO9,mp-542130,5.2635,1.13374221,0.0,"{37: 1, 13: 1, 5: 1, 15: 2, 1: 1, 8: 9}","[1, 5, 8, 13, 15, 37]",115189131152371,Rb1Al1B1P2H1O9
CsAlBP2HO9,mp-542129,5.2653,1.25920677,0.0,"{55: 1, 13: 1, 5: 1, 15: 2, 1: 1, 8: 9}","[1, 5, 8, 13, 15, 55]",115189131152551,Cs1Al1B1P2H1O9
KScBP2HO9,mp-23808,4.6379,0.63339015,0.0,"{19: 1, 21: 1, 5: 1, 15: 2, 1: 1, 8: 9}","[1, 5, 8, 15, 19, 21]",115189152191211,K1Sc1B1P2H1O9
KVBP2HO9,mp-24827,1.7431,3.79036325,0.0,"{19: 1, 23: 1, 5: 1, 15: 2, 1: 1, 8: 9}","[1, 5, 8, 15, 19, 23]",115189152191231,K1V1B1P2H1O9
KInBP2HO9,mp-1193408,4.1152,1.13343572,0.0,"{19: 1, 49: 1, 5: 1, 15: 2, 1: 1, 8: 9}","[1, 5, 8, 15, 19, 49]",115189152191491,K1In1B1P2H1O9
RbScBP2HO9,mp-23809,4.806,0.67910777,0.0,"{37: 1, 21: 1, 5: 1, 15: 2, 1: 1, 8: 9}","[1, 5, 8, 15, 21, 37]",115189152211371,Rb1Sc1B1P2H1O9
RbVBP2HO9,mp-767613,1.7429000000000001,1.59214161,0.0,"{37: 1, 23: 1, 5: 1, 15: 2, 1: 1, 8: 9}","[1, 5, 8, 15, 23, 37]",115189152231371,Rb1V1B1P2H1O9
CoBP2HPbO9,mp-1193243,3.2483000000000004,2.48942417,0.029445781211117072,"{27: 1, 5: 1, 15: 2, 1: 1, 82: 1, 8: 9}","[1, 5, 8, 15, 27, 82]",115189152271821,Co1B1P2H1Pb1O9
RbGaBP2HO9,mp-24761,4.662599999999999,0.57338293,0.0001912982862863899,"{37: 1, 31: 1, 5: 1, 15: 2, 1: 1, 8: 9}","[1, 5, 8, 15, 31, 37]",115189152311371,Rb1Ga1B1P2H1O9
CsGaBP2HO9,mp-1201408,4.6544,0.63534832,0.0,"{55: 1, 31: 1, 5: 1, 15: 2, 1: 1, 8: 9}","[1, 5, 8, 15, 31, 55]",115189152311551,Cs1Ga1B1P2H1O9
RbInBP2HO9,mp-766175,3.8236000000000003,1.08413335,0.0,"{37: 1, 49: 1, 5: 1, 15: 2, 1: 1, 8: 9}","[1, 5, 8, 15, 37, 49]",115189152371491,Rb1In1B1P2H1O9
CaB2H,mp-1106103,0.0,3.87610862,0.8457579106250002,"{20: 1, 5: 2, 1: 1}","[1, 5, 20]",1152201,Ca1B2H1
NaB2HO4,mp-706489,5.126,-0.16831112,0.012367573540308818,"{11: 1, 5: 2, 1: 1, 8: 4}","[1, 5, 8, 11]",115284111,Na1B2H1O4
GdB2HO5,mp-1225228,3.1258,4.38426075,0.029422875979932428,"{64: 1, 5: 2, 1: 1, 8: 5}","[1, 5, 8, 64]",115285641,Gd1B2H1O5
TmB2HO5,mp-1201207,4.6471,6.0330492,0.13636235490739246,"{69: 1, 5: 2, 1: 1, 8: 5}","[1, 5, 8, 69]",115285691,Tm1B2H1O5
RbB2P2HO9,mp-758281,5.7824,0.36560564,0.0,"{37: 1, 5: 2, 15: 2, 1: 1, 8: 9}","[1, 5, 8, 15, 37]",115289152371,Rb1B2P2H1O9
CsB2P2HO9,mp-1198124,5.827,0.30468976,0.0,"{55: 1, 5: 2, 15: 2, 1: 1, 8: 9}","[1, 5, 8, 15, 55]",115289152551,Cs1B2P2H1O9
PrB2HF10,mp-861500,7.7517,-2.71478032,0.0,"{59: 1, 5: 2, 1: 1, 9: 10}","[1, 5, 9, 59]",1152910591,Pr1B2H1F10
NdB2HF10,mp-977417,7.554399999999999,-2.82482352,0.0,"{60: 1, 5: 2, 1: 1, 9: 10}","[1, 5, 9, 60]",1152910601,Nd1B2H1F10
Zn6B3HO11,mp-1216191,2.8322000000000003,-0.37912679,0.0,"{30: 6, 5: 3, 1: 1, 8: 11}","[1, 5, 8, 30]",1153811306,Zn6B3H1O11
Na2B3HO6,mp-706631,4.6148,0.71616466,0.0,"{11: 2, 5: 3, 1: 1, 8: 6}","[1, 5, 8, 11]",115386112,Na2B3H1O6
CaB3HO6,mp-1194867,5.8113,1.16723702,0.0,"{20: 1, 5: 3, 1: 1, 8: 6}","[1, 5, 8, 20]",115386201,Ca1B3H1O6
Al2B3HO8,mp-1199198,5.5664,4.48957611,0.0,"{13: 2, 5: 3, 1: 1, 8: 8}","[1, 5, 8, 13]",115388132,Al2B3H1O8
Bi2B3HO8,mp-1200581,3.2251999999999996,2.14113457,0.006536106190473845,"{83: 2, 5: 3, 1: 1, 8: 8}","[1, 5, 8, 83]",115388832,Bi2B3H1O8
Sr3Ga3B4HO14,mp-1218783,3.4341999999999997,1.22705472,0.013392926792846538,"{38: 3, 31: 3, 5: 4, 1: 1, 8: 14}","[1, 5, 8, 31, 38]",1154814313383,Sr3Ga3B4H1O14
MgB3H15O13,mp-706339,4.9097,-1.10628102,0.015383047656252202,"{12: 1, 5: 3, 1: 15, 8: 13}","[1, 5, 8, 12]",11553813121,Mg1B3H15O13
Mg2B4H15,mp-1204358,5.7331,-4.41485645,0.019948372500000033,"{12: 2, 5: 4, 1: 15}","[1, 5, 12]",11554122,Mg2B4H15
CsB6(H5N)3,mp-1201361,4.5834,2.35221039,0.13393109864000152,"{55: 1, 5: 6, 1: 15, 7: 3}","[1, 5, 7, 55]",1155673551,Cs1B6H15N3
Sr2B5HO10,mp-1202819,4.7715,0.90534883,0.0,"{38: 2, 5: 5, 1: 1, 8: 10}","[1, 5, 8, 38]",1155810382,Sr2B5H1O10
LaB5HO10,mp-1211684,0.1492,1.57792502,0.05141025742649141,"{57: 1, 5: 5, 1: 1, 8: 10}","[1, 5, 8, 57]",1155810571,La1B5H1O10
Be(B3H8)2,mp-1205430,6.2485,1.65974092,0.00047028185278286116,"{4: 1, 5: 6, 1: 16}","[1, 4, 5]",1164156,Be1B6H16
Na2MgB12(H4O7)4,mp-1221910,4.9665,4.33654766,0.015196178813527972,"{11: 2, 12: 1, 5: 12, 1: 16, 8: 28}","[1, 5, 8, 11, 12]",116512828112121,Na2Mg1B12H16O28
NaSc(BH4)4,mp-866649,4.5382,-3.26937812,0.0,"{11: 1, 21: 1, 5: 4, 1: 16}","[1, 5, 11, 21]",11654111211,Na1Sc1B4H16
K2Mg(BH4)4,mp-1197682,6.3148,2.89421948,0.015535453297100155,"{19: 2, 12: 1, 5: 4, 1: 16}","[1, 5, 12, 19]",11654121192,K2Mg1B4H16
KAl(BH4)4,mp-1195284,6.646599999999999,2.68062932,0.0,"{19: 1, 13: 1, 5: 4, 1: 16}","[1, 5, 13, 19]",11654131191,K1Al1B4H16
KSc(BH4)4,mp-866638,4.6518,-3.38901079,0.0,"{19: 1, 21: 1, 5: 4, 1: 16}","[1, 5, 19, 21]",11654191211,K1Sc1B4H16
KGd(BH4)4,mp-1194808,2.4168,-0.91849426,0.0,"{19: 1, 64: 1, 5: 4, 1: 16}","[1, 5, 19, 64]",11654191641,K1Gd1B4H16
K2Mn(BH4)4,mp-1203215,2.5177,0.63925876,0.01637960940217198,"{19: 2, 25: 1, 5: 4, 1: 16}","[1, 5, 19, 25]",11654192251,K2Mn1B4H16
K2Cd(BH4)4,mp-1197108,5.3008,1.81949689,0.002635782065213199,"{19: 2, 48: 1, 5: 4, 1: 16}","[1, 5, 19, 48]",11654192481,K2Cd1B4H16
Zr(BH4)4,mp-1191059,5.2943,0.37715433,0.0,"{40: 1, 5: 4, 1: 16}","[1, 5, 40]",11654401,Zr1B4H16
Hf(BH4)4,mp-28040,5.7195,-4.17570967,0.0,"{72: 1, 5: 4, 1: 16}","[1, 5, 72]",11654721,Hf1B4H16
U(BH4)4,mp-27350,0.07400000000000007,0.5788275,0.0,"{92: 1, 5: 4, 1: 16}","[1, 5, 92]",11654921,U1B4H16
Np(BH4)4,mp-505372,0.0,-1.66863117,0.0,"{93: 1, 5: 4, 1: 16}","[1, 5, 93]",11654931,Np1B4H16
AlB5H16(NO7)2,mp-1200079,4.7254000000000005,3.43037345,0.020375199802642463,"{13: 1, 5: 5, 1: 16, 7: 2, 8: 14}","[1, 5, 7, 8, 13]",1165572814131,Al1B5H16N2O14
NaCaB5H16O17,mp-698191,2.9061,0.87245929,0.25257177281250165,"{11: 1, 20: 1, 5: 5, 1: 16, 8: 17}","[1, 5, 8, 11, 20]",11655817111201,Na1Ca1B5H16O17
Cr(B3H8)2,mp-567148,1.0282,-0.93968414,0.05027848130434798,"{24: 1, 5: 6, 1: 16}","[1, 5, 24]",11656241,Cr1B6H16
Ca3B6(H4O5)4,mp-707129,5.4566,0.38711028,0.010383757277786287,"{20: 3, 5: 6, 1: 16, 8: 20}","[1, 5, 8, 20]",11656820203,Ca3B6H16O20
MnB2H17N3,mp-1195307,1.9165,0.79956335,0.07648496682908679,"{25: 1, 5: 2, 1: 17, 7: 3}","[1, 5, 7, 25]",1175273251,Mn1B2H17N3
CoBH18N6(ClF2)2,mp-1201834,3.1185,1.98232791,0.023347507005207824,"{27: 1, 5: 1, 1: 18, 7: 6, 17: 2, 9: 4}","[1, 5, 7, 9, 17, 27]",118517694172271,Co1B1H18N6Cl2F4
CoBH18Br2(N3F2)2,mp-561162,2.331,-0.62544787,0.020639001145831948,"{27: 1, 5: 1, 1: 18, 35: 2, 7: 6, 9: 4}","[1, 5, 7, 9, 27, 35]",118517694271352,Co1B1H18Br2N6F4
K(B7H6)3,mp-1198890,4.3822,1.98167865,0.0,"{19: 1, 5: 21, 1: 18}","[1, 5, 19]",118521191,K1B21H18
KCa4B22H18ClO46,mp-722344,5.5100999999999996,0.07435818,0.0,"{19: 1, 20: 4, 5: 22, 1: 18, 17: 1, 8: 46}","[1, 5, 8, 17, 19, 20]",118522846171191204,K1Ca4B22H18Cl1O46
Mg3B2P2(H9O10)2,mp-707392,5.0287,0.25508086,0.008729403666665192,"{12: 3, 5: 2, 15: 2, 1: 18, 8: 20}","[1, 5, 8, 12, 15]",11852820123152,Mg3B2P2H18O20
MgB4(H9O8)2,mp-540731,5.2211,-1.30116401,0.008529040897434115,"{12: 1, 5: 4, 1: 18, 8: 16}","[1, 5, 8, 12]",11854816121,Mg1B4H18O16
RbB6(H9N2)2,mp-1205056,4.3124,1.98509155,0.13995396922413583,"{37: 1, 5: 6, 1: 18, 7: 4}","[1, 5, 7, 37]",1185674371,Rb1B6H18N4
NaB7(H9O10)2,mp-1199996,4.2336,-1.58345492,0.07881699673908393,"{11: 1, 5: 7, 1: 18, 8: 20}","[1, 5, 8, 11]",11857820111,Na1B7H18O20
KMg2B12H19O30,mp-707457,5.3784,-0.24303334,0.0060992707538902735,"{19: 1, 12: 2, 5: 12, 1: 19, 8: 30}","[1, 5, 8, 12, 19]",119512830122191,K1Mg2B12H19O30
B13H19,mp-27200,2.7668999999999997,-1.30502204,0.026613134975142394,"{5: 13, 1: 19}","[1, 5]",119513,B13H19
K2MgB12(H2O3)10,mp-541566,5.5415,-0.81646571,0.0074282076922873586,"{19: 2, 12: 1, 5: 12, 1: 20, 8: 30}","[1, 5, 8, 12, 19]",120512830121192,K2Mg1B12H20O30
Rb2CoB12(H2O3)10,mp-774813,3.3287,-0.22706469,0.021795038448708226,"{37: 2, 27: 1, 5: 12, 1: 20, 8: 30}","[1, 5, 8, 27, 37]",120512830271372,Rb2Co1B12H20O30
MgB3H20N3,mp-1200895,5.9079,-3.48823997,0.039933175216047445,"{12: 1, 5: 3, 1: 20, 7: 3}","[1, 5, 7, 12]",1205373121,Mg1B3H20N3
MgB4(H10N)2,mp-1199691,6.0629,-3.33094944,0.08429590762345818,"{12: 1, 5: 4, 1: 20, 7: 2}","[1, 5, 7, 12]",1205472121,Mg1B4H20N2
CaB4(H10N)2,mp-1201177,5.5565999999999995,-2.81415528,0.07666646925926113,"{20: 1, 5: 4, 1: 20, 7: 2}","[1, 5, 7, 20]",1205472201,Ca1B4H20N2
Na2MgB4(H5N)4,mp-1204556,4.9982,-1.95961212,0.0859432376142486,"{11: 2, 12: 1, 5: 4, 1: 20, 7: 4}","[1, 5, 7, 11, 12]",1205474112121,Na2Mg1B4H20N4
Na2B4H20O17,mp-707151,5.0996,-1.57417201,0.018328419312002353,"{11: 2, 5: 4, 1: 20, 8: 17}","[1, 5, 8, 11]",12054817112,Na2B4H20O17
NaZn2(BH4)5,mp-1201672,6.1594999999999995,-4.61311763,0.0,"{11: 1, 30: 2, 5: 5, 1: 20}","[1, 5, 11, 30]",12055111302,Na1Zn2B5H20
K2Gd(BH4)5,mp-1195504,2.5191000000000003,-0.61474058,0.0,"{19: 2, 64: 1, 5: 5, 1: 20}","[1, 5, 19, 64]",12055192641,K2Gd1B5H20
NaCaB5(H7O4)3,mp-1210880,0.733,0.84233282,0.24525150753124958,"{11: 1, 20: 1, 5: 5, 1: 21, 8: 12}","[1, 5, 8, 11, 20]",12155812111201,Na1Ca1B5H21O12
CaMgB6(HO)22,mp-720718,4.9561,-0.6567373,0.014579121826931996,"{20: 1, 12: 1, 5: 6, 1: 22, 8: 22}","[1, 5, 8, 12, 20]",12256822121201,Ca1Mg1B6H22O22
Mg2B12H24O35,mp-1201885,0.2639,-1.58261999,0.11282330271917473,"{12: 2, 5: 12, 1: 24, 8: 35}","[1, 5, 8, 12]",124512835122,Mg2B12H24O35