formula,material_id,band_gap,efermi,energy_above_hull,comp_atoms,sorted_keys_comp_atoms,comp_number,new_formula
FeBP2O11,mp-1213402,0.0,-0.30967741,0.4500153961111133,"{26: 1, 5: 1, 15: 2, 8: 11}","[5, 8, 15, 26]",51811152261,Fe1B1P2O11
CsFeBP3O11,mp-1197350,2.452,0.70256417,0.0043267848529238,"{55: 1, 26: 1, 5: 1, 15: 3, 8: 11}","[5, 8, 15, 26, 55]",51811153261551,Cs1Fe1B1P3O11
K2Si5BO12,mp-1211911,0.0,5.73061894,0.1017852744375069,"{19: 2, 14: 5, 5: 1, 8: 12}","[5, 8, 14, 19]",51812145192,K2Si5B1O12
V2B(PO4)3,mp-560575,0.0,3.61822535,0.0581780128703712,"{23: 2, 5: 1, 15: 3, 8: 12}","[5, 8, 15, 23]",51812153232,V2B1P3O12
Cr2B(PO4)3,mp-559723,3.0596999999999994,1.26514239,0.0051444508333329,"{24: 2, 5: 1, 15: 3, 8: 12}","[5, 8, 15, 24]",51812153242,Cr2B1P3O12
Fe2B(PO4)3,mp-1197728,2.025,0.97426635,0.012644074166662,"{26: 2, 5: 1, 15: 3, 8: 12}","[5, 8, 15, 26]",51812153262,Fe2B1P3O12
In2B(PO4)3,mp-1198577,3.9141,1.39831302,0.0005175841666549,"{49: 2, 5: 1, 15: 3, 8: 12}","[5, 8, 15, 49]",51812153492,In2B1P3O12
Ba3B(PO4)3,mp-6578,5.0114,1.20157953,0.0021433125877221,"{56: 3, 5: 1, 15: 3, 8: 12}","[5, 8, 15, 56]",51812153563,Ba3B1P3O12
BP3(PbO4)3,mp-1203864,3.9628,2.58540365,0.0005734505043921,"{5: 1, 15: 3, 82: 3, 8: 12}","[5, 8, 15, 82]",51812153823,B1P3Pb3O12
Tl3B,mp-1187632,0.0,5.53177147,0.982296657708332,"{81: 3, 5: 1}","[5, 81]",51813,Tl3B1
La5Si2BO13,mp-1223205,4.153599999999999,5.36827657,0.0109736823809516,"{57: 5, 14: 2, 5: 1, 8: 13}","[5, 8, 14, 57]",51813142575,La5Si2B1O13
Gd5Si2BO13,mp-1225149,2.6556,5.28008356,0.0114946946031722,"{64: 5, 14: 2, 5: 1, 8: 13}","[5, 8, 14, 64]",51813142645,Gd5Si2B1O13
Dy5Si2BO13,mp-1225574,4.5395,2.99960431,0.0265777501190473,"{66: 5, 14: 2, 5: 1, 8: 13}","[5, 8, 14, 66]",51813142665,Dy5Si2B1O13
KSi5BO13,mp-1223419,0.3198,0.48350531,0.1240297692500016,"{19: 1, 14: 5, 5: 1, 8: 13}","[5, 8, 14, 19]",51813145191,K1Si5B1O13
K3BSb4O13,mp-558607,1.8698,2.19045625,0.0,"{19: 3, 5: 1, 51: 4, 8: 13}","[5, 8, 19, 51]",51813193514,K3B1Sb4O13
Na2AlB(As2O7)2,mp-556195,2.7451,1.38111611,0.0056282412218342,"{11: 2, 13: 1, 5: 1, 33: 4, 8: 14}","[5, 8, 11, 13, 33]",51814112131334,Na2Al1B1As4O14
Ca4Al3CrSiBO14,mp-1227719,2.5198,2.95230221,0.0484491487168634,"{20: 4, 13: 3, 24: 1, 14: 1, 5: 1, 8: 14}","[5, 8, 13, 14, 20, 24]",51814133141204241,Ca4Al3Cr1Si1B1O14
NaMg14BO15,mp-1034618,1.8832000000000004,6.26262382,0.1893958269398421,"{11: 1, 12: 14, 5: 1, 8: 15}","[5, 8, 11, 12]",518151111214,Na1Mg14B1O15
KMg14BO15,mp-1035836,1.6036,6.06368163,0.2582017242785914,"{19: 1, 12: 14, 5: 1, 8: 15}","[5, 8, 12, 19]",518151214191,K1Mg14B1O15
RbMg14BO15,mp-1034284,1.1715,6.08641605,0.3017860414662756,"{37: 1, 12: 14, 5: 1, 8: 15}","[5, 8, 12, 37]",518151214371,Rb1Mg14B1O15
CsMg14BO15,mp-1099260,0.0853999999999999,5.41542347,0.3855954838633835,"{55: 1, 12: 14, 5: 1, 8: 15}","[5, 8, 12, 55]",518151214551,Cs1Mg14B1O15
Ca2MnAl2Si4BO15,mp-727393,1.0656,3.7648325,0.1508652759238096,"{20: 2, 25: 1, 13: 2, 14: 4, 5: 1, 8: 15}","[5, 8, 13, 14, 20, 25]",51815132144202251,Ca2Mn1Al2Si4B1O15
NaMg14BO16,mp-1034626,3.8059,3.99339486,0.1424094521875014,"{11: 1, 12: 14, 5: 1, 8: 16}","[5, 8, 11, 12]",518161111214,Na1Mg14B1O16
Na3BP4PbO16,mp-1221295,0.0222999999999999,0.45723895,0.1078113232999955,"{11: 3, 5: 1, 15: 4, 82: 1, 8: 16}","[5, 8, 11, 15, 82]",51816113154821,Na3B1P4Pb1O16
Mg14AlBO16,mp-1036399,0.7059999999999995,7.71349163,0.2156804952343751,"{12: 14, 13: 1, 5: 1, 8: 16}","[5, 8, 12, 13]",518161214131,Mg14Al1B1O16
Mg14TiBO16,mp-1034026,0.0,7.68801069,0.2411214847109368,"{12: 14, 22: 1, 5: 1, 8: 16}","[5, 8, 12, 22]",518161214221,Mg14Ti1B1O16
Mg14MnBO16,mp-1036103,0.0,7.13478851,0.2176967515948291,"{12: 14, 25: 1, 5: 1, 8: 16}","[5, 8, 12, 25]",518161214251,Mg14Mn1B1O16
Mg14FeBO16,mp-1035654,0.4707000000000008,7.15043936,0.1922291730468766,"{12: 14, 26: 1, 5: 1, 8: 16}","[5, 8, 12, 26]",518161214261,Mg14Fe1B1O16
RbMg14BO16,mp-1034231,1.3453,5.61505826,0.2683944646874998,"{37: 1, 12: 14, 5: 1, 8: 16}","[5, 8, 12, 37]",518161214371,Rb1Mg14B1O16
YMg14BO16,mp-1035864,0.5365000000000002,7.39490002,0.259514050634551,"{39: 1, 12: 14, 5: 1, 8: 16}","[5, 8, 12, 39]",518161214391,Y1Mg14B1O16
LaMg14BO16,mp-1034856,0.5105000000000004,7.51875152,0.3174375910482911,"{57: 1, 12: 14, 5: 1, 8: 16}","[5, 8, 12, 57]",518161214571,La1Mg14B1O16
Mg14BWO16,mp-1033759,0.3173000000000003,7.62000814,0.3096823673437479,"{12: 14, 5: 1, 74: 1, 8: 16}","[5, 8, 12, 74]",518161214741,Mg14B1W1O16
Ca2MnAl2Si4BO16,mp-1204491,0.0,4.30347405,0.0759716799732874,"{20: 2, 25: 1, 13: 2, 14: 4, 5: 1, 8: 16}","[5, 8, 13, 14, 20, 25]",51816132144202251,Ca2Mn1Al2Si4B1O16
Ca2Al2FeSi4BO16,mp-734098,1.0728,4.0893501,0.06457338640487,"{20: 2, 13: 2, 26: 1, 14: 4, 5: 1, 8: 16}","[5, 8, 13, 14, 20, 26]",51816132144202261,Ca2Al2Fe1Si4B1O16
La7BP2O17,mp-1212336,4.4099,4.95168693,0.0111148782098791,"{57: 7, 5: 1, 15: 2, 8: 17}","[5, 8, 15, 57]",51817152577,La7B1P2O17
Sm7BP2O17,mp-558842,4.5175,2.2616742,0.0051467927777757,"{62: 7, 5: 1, 15: 2, 8: 17}","[5, 8, 15, 62]",51817152627,Sm7B1P2O17
Dy7BP2O17,mp-1213462,4.799099999999999,2.48323321,0.026668008611109,"{66: 7, 5: 1, 15: 2, 8: 17}","[5, 8, 15, 66]",51817152667,Dy7B1P2O17
La7V2BO17,mp-1212487,2.8406,4.3183553,0.0129443916085474,"{57: 7, 23: 2, 5: 1, 8: 17}","[5, 8, 23, 57]",51817232577,La7V2B1O17
Nd7V2BO17,mp-1210883,2.7429,1.88549665,0.0292226587962947,"{60: 7, 23: 2, 5: 1, 8: 17}","[5, 8, 23, 60]",51817232607,Nd7V2B1O17
La7Cr2BO17,mp-1212632,1.2771000000000008,4.61783772,0.0201161191396561,"{57: 7, 24: 2, 5: 1, 8: 17}","[5, 8, 24, 57]",51817242577,La7Cr2B1O17
Al7Si3BO18,mp-1019381,4.581100000000001,4.85223275,0.0186614833045943,"{13: 7, 14: 3, 5: 1, 8: 18}","[5, 8, 13, 14]",51818137143,Al7Si3B1O18
CaZrAl9BO18,mp-559642,4.8628,4.71819063,0.0031830118333289,"{20: 1, 40: 1, 13: 9, 5: 1, 8: 18}","[5, 8, 13, 20, 40]",51818139201401,Ca1Zr1Al9B1O18
Al9Si2BO19,mp-1229075,4.973700000000001,3.24023366,0.0142667319354838,"{13: 9, 14: 2, 5: 1, 8: 19}","[5, 8, 13, 14]",51819139142,Al9Si2B1O19
BaBOF3,mp-13680,5.8893,0.352472,0.0958347953846141,"{56: 1, 5: 1, 8: 1, 9: 3}","[5, 8, 9, 56]",518193561,Ba1B1O1F3
Hg2BOF4,mp-1202687,0.0,-2.26444999,0.1103838459374983,"{80: 2, 5: 1, 8: 1, 9: 4}","[5, 8, 9, 80]",518194802,Hg2B1O1F4
BiBOF4,mp-1147533,3.2025,0.91569084,0.1311106759126969,"{83: 1, 5: 1, 8: 1, 9: 4}","[5, 8, 9, 83]",518194831,Bi1B1O1F4
BP5(Pb3O10)2,mp-1228851,3.7876,6.07616842,0.0072245068229221,"{5: 1, 15: 5, 82: 6, 8: 20}","[5, 8, 15, 82]",51820155826,B1P5Pb6O20
Bi12BO20,mp-769060,0.0,4.63313725,0.0556637982197036,"{83: 12, 5: 1, 8: 20}","[5, 8, 83]",518208312,Bi12B1O20
Na6BSe5O21,mp-1197672,0.0124,-0.30572733,0.0761348948484874,"{11: 6, 5: 1, 34: 5, 8: 21}","[5, 8, 11, 34]",51821116345,Na6B1Se5O21
CuBO2,mp-1096940,1.4613999999999994,7.03455898,0.6464721454166629,"{29: 1, 5: 1, 8: 2}","[5, 8, 29]",5182291,Cu1B1O2
BPb3,mp-1183296,0.0,6.17950256,0.9857691827083316,"{5: 1, 82: 3}","[5, 82]",51823,B1Pb3
La8Al7BO24,mp-997588,3.5096,8.04037019,0.1194844773750087,"{57: 8, 13: 7, 5: 1, 8: 24}","[5, 8, 13, 57]",51824137578,La8Al7B1O24
AgBO2,mp-559803,1.2098999999999998,1.33843443,0.0099547553906234,"{47: 1, 5: 1, 8: 2}","[5, 8, 47]",5182471,Ag1B1O2
CsBO2,mp-561725,3.8457,0.29175144,0.0,"{55: 1, 5: 1, 8: 2}","[5, 8, 55]",5182551,Cs1B1O2
Nd5(FeB)18,mp-650968,0.0,5.85357284,0.0009410089939017,"{60: 5, 26: 18, 5: 18}","[5, 26, 60]",5182618605,Nd5Fe18B18
Zr8Ni61B18,mp-1216773,0.0007000000000001,7.8643693,0.0171441687356557,"{40: 8, 28: 61, 5: 18}","[5, 28, 40]",5182861408,Zr8Ni61B18
BO2F3,mp-1182442,0.0,-2.19853458,0.0111293039583353,"{5: 1, 8: 2, 9: 3}","[5, 8, 9]",518293,B1O2F3
BCl(OF2)2,mp-557856,1.6826,-3.03938124,0.0,"{5: 1, 17: 1, 8: 2, 9: 4}","[5, 8, 9, 17]",518294171,B1Cl1O2F4
Hg3BI2(OF2)2,mp-1212477,0.2261,-0.18020754,0.0460333110026041,"{80: 3, 5: 1, 53: 2, 8: 2, 9: 4}","[5, 8, 9, 53, 80]",518294532803,Hg3B1I2O2F4
BiB,mp-1006880,0.0922,5.9875859,0.7965304954166665,"{83: 1, 5: 1}","[5, 83]",51831,Bi1B1
NaMgBO3,mp-561536,3.5852,2.80169979,0.0056525408333349,"{11: 1, 12: 1, 5: 1, 8: 3}","[5, 8, 11, 12]",5183111121,Na1Mg1B1O3
NaMnBO3,mp-756091,2.1658,2.34805623,0.0362280224999986,"{11: 1, 25: 1, 5: 1, 8: 3}","[5, 8, 11, 25]",5183111251,Na1Mn1B1O3
NaFeBO3,mp-1101655,1.9134,2.38425159,0.0257035379166667,"{11: 1, 26: 1, 5: 1, 8: 3}","[5, 8, 11, 26]",5183111261,Na1Fe1B1O3
NaCoBO3,mp-1101692,1.4057,2.32273682,0.1597420873611117,"{11: 1, 27: 1, 5: 1, 8: 3}","[5, 8, 11, 27]",5183111271,Na1Co1B1O3
NaNiBO3,mp-755942,3.3029,3.13246657,0.0527486274999988,"{11: 1, 28: 1, 5: 1, 8: 3}","[5, 8, 11, 28]",5183111281,Na1Ni1B1O3
BaNaBO3,mp-6660,3.6487,1.55293799,0.0,"{56: 1, 11: 1, 5: 1, 8: 3}","[5, 8, 11, 56]",5183111561,Ba1Na1B1O3
KMg30BO31,mp-1040287,1.981800000000001,6.32827183,0.1174040616291494,"{19: 1, 12: 30, 5: 1, 8: 31}","[5, 8, 12, 19]",518311230191,K1Mg30B1O31
RbNa2BO3,mp-8872,2.9275,1.38380392,0.0,"{37: 1, 11: 2, 5: 1, 8: 3}","[5, 8, 11, 37]",5183112371,Rb1Na2B1O3
MgBO3,mp-1199652,0.1887999999999999,0.91993811,0.1825161281250018,"{12: 1, 5: 1, 8: 3}","[5, 8, 12]",5183121,Mg1B1O3
CsMgBO3,mp-1019721,3.1495999999999995,4.77959203,0.0024359532291668,"{55: 1, 12: 1, 5: 1, 8: 3}","[5, 8, 12, 55]",5183121551,Cs1Mg1B1O3
AlBO3,mp-8110,5.8392,4.87077884,0.0304546731538586,"{13: 1, 5: 1, 8: 3}","[5, 8, 13]",5183131,Al1B1O3
SiBO3,mp-972839,0.0,5.53951206,1.905584088979164,"{14: 1, 5: 1, 8: 3}","[5, 8, 14]",5183141,Si1B1O3
Ba3BPO3,mp-9712,1.4667000000000003,2.66961217,0.0,"{56: 3, 5: 1, 15: 1, 8: 3}","[5, 8, 15, 56]",5183151563,Ba3B1P1O3
KZn2BCl2O3,mp-1078186,3.7082,-1.36308038,0.0,"{19: 1, 30: 2, 5: 1, 17: 2, 8: 3}","[5, 8, 17, 19, 30]",5183172191302,K1Zn2B1Cl2O3
NaMg30BO32,mp-1039794,4.107099999999999,3.8591741,0.0700129970312506,"{11: 1, 12: 30, 5: 1, 8: 32}","[5, 8, 11, 12]",518321111230,Na1Mg30B1O32
Mg30AlBO32,mp-1037955,2.4708,6.07660059,0.1064915368359384,"{12: 30, 13: 1, 5: 1, 8: 32}","[5, 8, 12, 13]",518321230131,Mg30Al1B1O32
KMg30BO32,mp-1040205,4.0212,3.79345293,0.102021657617187,"{19: 1, 12: 30, 5: 1, 8: 32}","[5, 8, 12, 19]",518321230191,K1Mg30B1O32
Mg30TiBO32,mp-1040308,0.5093000000000005,7.34269326,0.1218029837617189,"{12: 30, 22: 1, 5: 1, 8: 32}","[5, 8, 12, 22]",518321230221,Mg30Ti1B1O32
Mg30CrBO32,mp-1038513,0.1745999999999998,7.76953374,0.1152559202734408,"{12: 30, 24: 1, 5: 1, 8: 32}","[5, 8, 12, 24]",518321230241,Mg30Cr1B1O32
Mg30MnBO32,mp-1098739,0.4509999999999996,6.90157793,0.1140323575161632,"{12: 30, 25: 1, 5: 1, 8: 32}","[5, 8, 12, 25]",518321230251,Mg30Mn1B1O32
Mg30FeBO32,mp-1037542,0.0,8.43958568,0.1091087048046874,"{12: 30, 26: 1, 5: 1, 8: 32}","[5, 8, 12, 26]",518321230261,Mg30Fe1B1O32
Mg30GaBO32,mp-1038427,2.1608,5.9550763,0.1208775683072911,"{12: 30, 31: 1, 5: 1, 8: 32}","[5, 8, 12, 31]",518321230311,Mg30Ga1B1O32
RbMg30BO32,mp-1039672,3.8516,3.78884534,0.1222980509375002,"{37: 1, 12: 30, 5: 1, 8: 32}","[5, 8, 12, 37]",518321230371,Rb1Mg30B1O32
YMg30BO32,mp-1037198,2.0667,6.20731015,0.1290066087547723,"{39: 1, 12: 30, 5: 1, 8: 32}","[5, 8, 12, 39]",518321230391,Y1Mg30B1O32
Mg30BSbO32,mp-1038429,2.2125999999999992,6.53089651,0.1731197593554689,"{12: 30, 5: 1, 51: 1, 8: 32}","[5, 8, 12, 51]",518321230511,Mg30B1Sb1O32
CsMg30BO32,mp-1039625,3.3763999999999994,4.29253842,0.1511643471874979,"{55: 1, 12: 30, 5: 1, 8: 32}","[5, 8, 12, 55]",518321230551,Cs1Mg30B1O32
LaMg30BO32,mp-1039913,1.9868000000000008,6.35529485,0.1564858013053962,"{57: 1, 12: 30, 5: 1, 8: 32}","[5, 8, 12, 57]",518321230571,La1Mg30B1O32
CeMg30BO32,mp-1039958,0.0032000000000014,8.29019518,0.1511148860814524,"{58: 1, 12: 30, 5: 1, 8: 32}","[5, 8, 12, 58]",518321230581,Ce1Mg30B1O32
HfMg30BO32,mp-1038450,0.0112000000000005,8.80949271,0.152715758433592,"{72: 1, 12: 30, 5: 1, 8: 32}","[5, 8, 12, 72]",518321230721,Hf1Mg30B1O32
Mg30BWO32,mp-1038510,2.0028,6.29130377,0.1527864997656234,"{12: 30, 5: 1, 74: 1, 8: 32}","[5, 8, 12, 74]",518321230741,Mg30B1W1O32
Mg30BiBO32,mp-1098202,1.877699999999999,6.36205393,0.1197594120703131,"{12: 30, 83: 1, 5: 1, 8: 32}","[5, 8, 12, 83]",518321230831,Mg30Bi1B1O32
TiBO3,mp-9716,0.0,6.04554566,0.0729435255333328,"{22: 1, 5: 1, 8: 3}","[5, 8, 22]",5183221,Ti1B1O3
VBO3,mp-18946,1.8747,3.48741764,0.0,"{23: 1, 5: 1, 8: 3}","[5, 8, 23]",5183231,V1B1O3
MnBO3,mp-1289597,1.3314,2.51222367,0.0203677105520885,"{25: 1, 5: 1, 8: 3}","[5, 8, 25]",5183251,Mn1B1O3
FeBO3,mp-19097,1.4815999999999998,2.14937788,0.0,"{26: 1, 5: 1, 8: 3}","[5, 8, 26]",5183261,Fe1B1O3
CuBO3,mp-1184042,0.0,5.87585724,1.1187388422916662,"{29: 1, 5: 1, 8: 3}","[5, 8, 29]",5183291,Cu1B1O3
GaBO3,mp-1078259,3.8639,2.72859439,0.0,"{31: 1, 5: 1, 8: 3}","[5, 8, 31]",5183311,Ga1B1O3
GeBO3,mp-973738,0.0,7.02197663,1.3230400194166665,"{32: 1, 5: 1, 8: 3}","[5, 8, 32]",5183321,Ge1B1O3
Ba3BAsO3,mp-9793,1.5233,2.42047753,0.0,"{56: 3, 5: 1, 33: 1, 8: 3}","[5, 8, 33, 56]",5183331563,Ba3B1As1O3
Ba3B(BrO)3,mp-1200496,3.7561,4.3866251,0.0,"{56: 3, 5: 1, 35: 3, 8: 3}","[5, 8, 35, 56]",5183353563,Ba3B1Br3O3
SrBO3,mp-1189840,0.4523999999999999,0.52435916,0.0628990789999752,"{38: 1, 5: 1, 8: 3}","[5, 8, 38]",5183381,Sr1B1O3
YBO3,mp-29205,5.1696,2.2874432,0.0,"{39: 1, 5: 1, 8: 3}","[5, 8, 39]",5183391,Y1B1O3
Ag3BO3,mp-561550,0.8717000000000001,1.15331678,0.0158854024107144,"{47: 3, 5: 1, 8: 3}","[5, 8, 47]",5183473,Ag3B1O3
CsCdBO3,mp-1191636,1.6462,0.82753733,0.0,"{55: 1, 48: 1, 5: 1, 8: 3}","[5, 8, 48, 55]",5183481551,Cs1Cd1B1O3
SnBO3,mp-772724,2.2846,2.67250399,0.0905246665625014,"{50: 1, 5: 1, 8: 3}","[5, 8, 50]",5183501,Sn1B1O3
BSbO3,mp-755829,3.4785000000000004,1.8078899,0.0471894386666651,"{5: 1, 51: 1, 8: 3}","[5, 8, 51]",5183511,B1Sb1O3
BaBO3,mp-1214407,0.0,3.35788292,1.2538978322499972,"{56: 1, 5: 1, 8: 3}","[5, 8, 56]",5183561,Ba1B1O3
CeBO3,mp-20882,0.0586999999999999,7.33696603,0.0,"{58: 1, 5: 1, 8: 3}","[5, 8, 58]",5183581,Ce1B1O3
EuBO3,mp-22030,0.0,1.13515103,0.0233151816666676,"{63: 1, 5: 1, 8: 3}","[5, 8, 63]",5183631,Eu1B1O3
TmBO3,mp-760484,4.254,1.78499519,0.0300250476000023,"{69: 1, 5: 1, 8: 3}","[5, 8, 69]",5183691,Tm1B1O3
HfBO3,mp-1184625,0.0,9.77363453,1.3355054685000043,"{72: 1, 5: 1, 8: 3}","[5, 8, 72]",5183721,Hf1B1O3
BPtO3,mp-1183277,0.0,6.88017627,1.507040760166667,"{5: 1, 78: 1, 8: 3}","[5, 8, 78]",5183781,B1Pt1O3
BAuO3,mp-1183212,0.0,5.50818701,1.3272232336666685,"{5: 1, 79: 1, 8: 3}","[5, 8, 79]",5183791,B1Au1O3
Ba2SrB18,mp-1228370,0.8369000000000004,3.97131429,0.0021858366666682,"{56: 2, 38: 1, 5: 18}","[5, 38, 56]",518381562,Ba2Sr1B18
PaBO3,mp-973877,0.0,12.55308833,1.126952342979166,"{91: 1, 5: 1, 8: 3}","[5, 8, 91]",5183911,Pa1B1O3
BaMgBO3F,mp-1198065,4.1903,1.59653098,0.0,"{56: 1, 12: 1, 5: 1, 8: 3, 9: 1}","[5, 8, 9, 12, 56]",518391121561,Ba1Mg1B1O3F1
Mg2BO3F,mp-7995,4.4508,2.59543226,0.002002611696426,"{12: 2, 5: 1, 8: 3, 9: 1}","[5, 8, 9, 12]",518391122,Mg2B1O3F1
BaCaBO3F,mp-694911,3.8701,1.34953921,0.0066573774829947,"{56: 1, 20: 1, 5: 1, 8: 3, 9: 1}","[5, 8, 9, 20, 56]",518391201561,Ba1Ca1B1O3F1
BaZnBO3F,mp-1077866,3.6218,0.91821733,0.0203438599999987,"{56: 1, 30: 1, 5: 1, 8: 3, 9: 1}","[5, 8, 9, 30, 56]",518391301561,Ba1Zn1B1O3F1
UBO3,mp-1187784,0.0,12.17202029,0.9734987449791656,"{92: 1, 5: 1, 8: 3}","[5, 8, 92]",5183921,U1B1O3
BaAlBO3F2,mp-558491,6.0642000000000005,1.11652202,0.0,"{56: 1, 13: 1, 5: 1, 8: 3, 9: 2}","[5, 8, 9, 13, 56]",518392131561,Ba1Al1B1O3F2
BaGaBO3F2,mp-10509,4.9696,0.4219724,0.0,"{56: 1, 31: 1, 5: 1, 8: 3, 9: 2}","[5, 8, 9, 31, 56]",518392311561,Ba1Ga1B1O3F2
Bi25BO39,mp-759766,1.8929000000000005,3.63450262,0.0980453570576953,"{83: 25, 5: 1, 8: 39}","[5, 8, 83]",518398325,Bi25B1O39
MgScBO4,mp-1221965,3.3919,5.92118426,0.0101476808035805,"{12: 1, 21: 1, 5: 1, 8: 4}","[5, 8, 12, 21]",5184121211,Mg1Sc1B1O4
MgTiBO4,mp-1222024,0.0,6.21945412,0.069712274865278,"{12: 1, 22: 1, 5: 1, 8: 4}","[5, 8, 12, 22]",5184121221,Mg1Ti1B1O4
MgVBO4,mp-2223622,2.4578,2.9394174,0.1220068977678536,"{12: 1, 23: 1, 5: 1, 8: 4}","[5, 8, 12, 23]",5184121231,Mg1V1B1O4
MgFeBO4,mp-1210634,1.8677,3.17286965,0.0256408894345216,"{12: 1, 26: 1, 5: 1, 8: 4}","[5, 8, 12, 26]",5184121261,Mg1Fe1B1O4
MgGaBO4,mp-1210623,3.112,2.97386515,0.0038212355059492,"{12: 1, 31: 1, 5: 1, 8: 4}","[5, 8, 12, 31]",5184121311,Mg1Ga1B1O4
Mg2BO4,mp-1210705,0.2659000000000002,2.14474993,0.0567949718750018,"{12: 2, 5: 1, 8: 4}","[5, 8, 12]",5184122,Mg2B1O4
SrAlBO4,mp-21563,4.297899999999999,1.16877225,0.0692354226785871,"{38: 1, 13: 1, 5: 1, 8: 4}","[5, 8, 13, 38]",5184131381,Sr1Al1B1O4
CuBClO4,mp-1104904,0.0,0.68406724,0.4605807365476178,"{29: 1, 5: 1, 17: 1, 8: 4}","[5, 8, 17, 29]",5184171291,Cu1B1Cl1O4
CaYBO4,mp-1213894,4.3059,1.52013159,0.0,"{20: 1, 39: 1, 5: 1, 8: 4}","[5, 8, 20, 39]",5184201391,Ca1Y1B1O4
ScNiBO4,mp-1219308,0.0,4.71495951,0.0085320242857118,"{21: 1, 28: 1, 5: 1, 8: 4}","[5, 8, 21, 28]",5184211281,Sc1Ni1B1O4
MnFeBO4,mp-1176443,0.9277000000000002,3.27104459,0.0336785845714313,"{25: 1, 26: 1, 5: 1, 8: 4}","[5, 8, 25, 26]",5184251261,Mn1Fe1B1O4
FeCoBO4,mp-504583,0.2672000000000003,2.64229267,0.1557530930952326,"{26: 1, 27: 1, 5: 1, 8: 4}","[5, 8, 26, 27]",5184261271,Fe1Co1B1O4
ZnFeBO4,mp-1215822,1.1035999999999997,2.82611509,0.0767090929761895,"{30: 1, 26: 1, 5: 1, 8: 4}","[5, 8, 26, 30]",5184261301,Zn1Fe1B1O4
FeBPbO4,mp-20028,2.0864000000000003,3.17510932,0.0,"{26: 1, 5: 1, 82: 1, 8: 4}","[5, 8, 26, 82]",5184261821,Fe1B1Pb1O4
Fe2BO4,mp-566717,0.8631000000000006,4.68244114,0.0108660369643001,"{26: 2, 5: 1, 8: 4}","[5, 8, 26]",5184262,Fe2B1O4
Co2BO4,mp-1213790,0.4255999999999997,3.08575555,0.2286830953571437,"{27: 2, 5: 1, 8: 4}","[5, 8, 27]",5184272,Co2B1O4
Zn2BO4,mp-1207482,0.0,1.33402555,0.0965577877083312,"{30: 2, 5: 1, 8: 4}","[5, 8, 30]",5184302,Zn2B1O4
Cd2BO4,mp-1201604,1.2871,1.38607628,0.1054279634821444,"{48: 2, 5: 1, 8: 4}","[5, 8, 48]",5184482,Cd2B1O4
BaBiBO4,mp-559186,3.5528000000000004,1.94018523,0.0,"{56: 1, 83: 1, 5: 1, 8: 4}","[5, 8, 56, 83]",5184561831,Ba1Bi1B1O4
BPb3O4F,mp-1201056,2.3654,3.23387864,0.0077147441666642,"{5: 1, 82: 3, 8: 4, 9: 1}","[5, 8, 9, 82]",518491823,B1Pb3O4F1
NaUBO5,mp-557744,1.9304,1.64864137,0.0,"{11: 1, 92: 1, 5: 1, 8: 5}","[5, 8, 11, 92]",5185111921,Na1U1B1O5
MgFe2BO5,mp-1196909,1.4680000000000004,3.45758611,0.0075545006423665,"{12: 1, 26: 2, 5: 1, 8: 5}","[5, 8, 12, 26]",5185121262,Mg1Fe2B1O5
Mg2TiBO5,mp-1210684,0.0,6.37446672,0.0416783726944531,"{12: 2, 22: 1, 5: 1, 8: 5}","[5, 8, 12, 22]",5185122221,Mg2Ti1B1O5
Mg2FeBO5,mp-1210692,2.0857,3.24392772,0.014819424444445,"{12: 2, 26: 1, 5: 1, 8: 5}","[5, 8, 12, 26]",5185122261,Mg2Fe1B1O5
AlFe2BO5,mp-1096865,2.8114,4.31430302,6.26754999970558e-05,"{13: 1, 26: 2, 5: 1, 8: 5}","[5, 8, 13, 26]",5185131262,Al1Fe2B1O5
CaSiBO5,mp-732197,0.4043000000000001,1.81607696,0.0811058234895831,"{20: 1, 14: 1, 5: 1, 8: 5}","[5, 8, 14, 20]",5185141201,Ca1Si1B1O5
CeSiBO5,mp-22225,0.1574999999999997,7.34877735,0.0,"{58: 1, 14: 1, 5: 1, 8: 5}","[5, 8, 14, 58]",5185141581,Ce1Si1B1O5
CaBPO5,mp-6667,5.3231,2.89152823,0.0056390924404867,"{20: 1, 5: 1, 15: 1, 8: 5}","[5, 8, 15, 20]",5185151201,Ca1B1P1O5
SrBPO5,mp-6486,5.3874,2.20907029,0.0,"{38: 1, 5: 1, 15: 1, 8: 5}","[5, 8, 15, 38]",5185151381,Sr1B1P1O5
BaBPO5,mp-6040,5.495,1.67429113,0.0,"{56: 1, 5: 1, 15: 1, 8: 5}","[5, 8, 15, 56]",5185151561,Ba1B1P1O5
ScFe2BO5,mp-1094074,3.1989,3.06793574,0.0,"{21: 1, 26: 2, 5: 1, 8: 5}","[5, 8, 21, 26]",5185211262,Sc1Fe2B1O5
VFe2BO5,mp-1207977,1.6459999999999997,3.46997186,0.0,"{23: 1, 26: 2, 5: 1, 8: 5}","[5, 8, 23, 26]",5185231262,V1Fe2B1O5
VCo2BO5,mp-1207853,1.5536000000000003,3.88844724,0.1687375155555557,"{23: 1, 27: 2, 5: 1, 8: 5}","[5, 8, 23, 27]",5185231272,V1Co2B1O5
V3BO5,mp-1207931,0.0194,5.03004095,0.0128941574537027,"{23: 3, 5: 1, 8: 5}","[5, 8, 23]",5185233,V3B1O5
Mn3BO5,mp-505442,0.0,3.62051711,0.0114578922222126,"{25: 3, 5: 1, 8: 5}","[5, 8, 25]",5185253,Mn3B1O5
FeCo2BO5,mp-1203720,0.0,2.88686873,0.2570755373611106,"{26: 1, 27: 2, 5: 1, 8: 5}","[5, 8, 26, 27]",5185261272,Fe1Co2B1O5
FeCu2BO5,mp-1225359,0.0508999999999999,3.91573351,0.0513612738888848,"{26: 1, 29: 2, 5: 1, 8: 5}","[5, 8, 26, 29]",5185261292,Fe1Cu2B1O5