formula,material_id,band_gap,efermi,energy_above_hull,comp_atoms,sorted_keys_comp_atoms,comp_number,new_formula
ErAl3(BO3)4,mp-1106277,5.616599999999999,3.5508544,0.0039156121442225,"{68: 1, 13: 3, 5: 4, 8: 12}","[5, 8, 13, 68]",54812133681,Er1Al3B4O12
TmAl3(BO3)4,mp-13516,5.6716,3.53789397,0.0042843254255,"{69: 1, 13: 3, 5: 4, 8: 12}","[5, 8, 13, 69]",54812133691,Tm1Al3B4O12
Al3Bi(BO3)4,mp-1214839,4.162300000000001,4.30761485,0.0133645095192829,"{13: 3, 83: 1, 5: 4, 8: 12}","[5, 8, 13, 83]",54812133831,Al3Bi1B4O12
K3Y3(BO3)4,mp-642313,4.1596,0.84159617,0.0,"{19: 3, 39: 3, 5: 4, 8: 12}","[5, 8, 19, 39]",54812193393,K3Y3B4O12
TbSc3(BO3)4,mp-1217508,4.0709,1.98117491,0.0001945008124923,"{65: 1, 21: 3, 5: 4, 8: 12}","[5, 8, 21, 65]",54812213651,Tb1Sc3B4O12
GdCr3(BO3)4,mp-1105604,0.5184000000000002,2.64768657,0.0040652318333318,"{64: 1, 24: 3, 5: 4, 8: 12}","[5, 8, 24, 64]",54812243641,Gd1Cr3B4O12
YFe3(BO3)4,mp-1207649,2.3578,2.27004664,0.0109037664999771,"{39: 1, 26: 3, 5: 4, 8: 12}","[5, 8, 26, 39]",54812263391,Y1Fe3B4O12
LaFe3(BO3)4,mp-22252,2.3045000000000004,3.10394862,0.0097588866249651,"{57: 1, 26: 3, 5: 4, 8: 12}","[5, 8, 26, 57]",54812263571,La1Fe3B4O12
NdFe3(BO3)4,mp-18936,1.9396,2.31096773,0.009484396343744,"{60: 1, 26: 3, 5: 4, 8: 12}","[5, 8, 26, 60]",54812263601,Nd1Fe3B4O12
SmFe3(BO3)4,mp-1190829,1.3757999999999997,3.95980938,0.4997526273749919,"{62: 1, 26: 3, 5: 4, 8: 12}","[5, 8, 26, 62]",54812263621,Sm1Fe3B4O12
GdFe3(BO3)4,mp-560751,2.2915,2.16744592,0.0106167799062664,"{64: 1, 26: 3, 5: 4, 8: 12}","[5, 8, 26, 64]",54812263641,Gd1Fe3B4O12
TbFe3(BO3)4,mp-18979,1.9305,2.33873261,0.0132152865416603,"{65: 1, 26: 3, 5: 4, 8: 12}","[5, 8, 26, 65]",54812263651,Tb1Fe3B4O12
DyFe3(BO3)4,mp-1199045,2.2942,2.22750349,0.014583634958349,"{66: 1, 26: 3, 5: 4, 8: 12}","[5, 8, 26, 66]",54812263661,Dy1Fe3B4O12
HoFe3(BO3)4,mp-1212174,2.3798,4.64061782,0.015365598520848,"{67: 1, 26: 3, 5: 4, 8: 12}","[5, 8, 26, 67]",54812263671,Ho1Fe3B4O12
ErFe3(BO3)4,mp-1189650,2.4089,2.17761937,0.0172463552500214,"{68: 1, 26: 3, 5: 4, 8: 12}","[5, 8, 26, 68]",54812263681,Er1Fe3B4O12
Zn3Cd3(BO3)4,mp-1215644,2.2477,0.68606353,0.0191965030681782,"{30: 3, 48: 3, 5: 4, 8: 12}","[5, 8, 30, 48]",54812303483,Zn3Cd3B4O12
YGa3(BO3)4,mp-1207603,4.7201,2.12943139,0.0032653237916662,"{39: 1, 31: 3, 5: 4, 8: 12}","[5, 8, 31, 39]",54812313391,Y1Ga3B4O12
NdGa3(BO3)4,mp-561187,4.339,2.23576176,0.0142849611354165,"{60: 1, 31: 3, 5: 4, 8: 12}","[5, 8, 31, 60]",54812313601,Nd1Ga3B4O12
SmGa3(BO3)4,mp-1208640,4.6969,2.11863601,0.0130119211666688,"{62: 1, 31: 3, 5: 4, 8: 12}","[5, 8, 31, 62]",54812313621,Sm1Ga3B4O12
EuGa3(BO3)4,mp-1212739,0.0,2.01026923,0.0047906112916669,"{63: 1, 31: 3, 5: 4, 8: 12}","[5, 8, 31, 63]",54812313631,Eu1Ga3B4O12
GdGa3(BO3)4,mp-1212375,2.6825,2.0610337,0.0124934866979202,"{64: 1, 31: 3, 5: 4, 8: 12}","[5, 8, 31, 64]",54812313641,Gd1Ga3B4O12
TbGa3(BO3)4,mp-1208326,4.7172,2.11814013,0.0140867376666671,"{65: 1, 31: 3, 5: 4, 8: 12}","[5, 8, 31, 65]",54812313651,Tb1Ga3B4O12
DyGa3(BO3)4,mp-1212835,4.4185,2.11459506,0.0148406344166662,"{66: 1, 31: 3, 5: 4, 8: 12}","[5, 8, 31, 66]",54812313661,Dy1Ga3B4O12
Rb3La3(BO3)4,mp-1209773,3.8383,2.09647724,0.0,"{37: 3, 57: 3, 5: 4, 8: 12}","[5, 8, 37, 57]",54812373573,Rb3La3B4O12
Sr3Y2(BO3)4,mp-561157,4.4415,1.97086094,0.0204377934126984,"{38: 3, 39: 2, 5: 4, 8: 12}","[5, 8, 38, 39]",54812383392,Sr3Y2B4O12
Sr3La2(BO3)4,mp-12295,4.1562,2.82368843,0.0033127453571459,"{38: 3, 57: 2, 5: 4, 8: 12}","[5, 8, 38, 57]",54812383572,Sr3La2B4O12
Sr3Pr2(BO3)4,mp-6803,4.5407,1.88697021,0.0008192816666667,"{38: 3, 59: 2, 5: 4, 8: 12}","[5, 8, 38, 59]",54812383592,Sr3Pr2B4O12
Sr3Nd2(BO3)4,mp-6249,4.569699999999999,1.83086611,0.0032457074999996,"{38: 3, 60: 2, 5: 4, 8: 12}","[5, 8, 38, 60]",54812383602,Sr3Nd2B4O12
Sr3Sm2(BO3)4,mp-1209534,4.5185,6.28358897,0.0063140999999937,"{38: 3, 62: 2, 5: 4, 8: 12}","[5, 8, 38, 62]",54812383622,Sr3Sm2B4O12
Sr3Gd2(BO3)4,mp-1211958,2.5819,4.32348214,0.016784608968253,"{38: 3, 64: 2, 5: 4, 8: 12}","[5, 8, 38, 64]",54812383642,Sr3Gd2B4O12
Sr3Dy2(BO3)4,mp-1209630,4.5247,6.37533561,0.0104097679166645,"{38: 3, 66: 2, 5: 4, 8: 12}","[5, 8, 38, 66]",54812383662,Sr3Dy2B4O12
Sr3Ho2(BO3)4,mp-1209645,4.5049,6.34546958,0.027927584404761,"{38: 3, 67: 2, 5: 4, 8: 12}","[5, 8, 38, 67]",54812383672,Sr3Ho2B4O12
Sr3Er2(BO3)4,mp-13960,4.476699999999999,1.93782754,0.0264944327380902,"{38: 3, 68: 2, 5: 4, 8: 12}","[5, 8, 38, 68]",54812383682,Sr3Er2B4O12
BaB4(SbO6)2,mp-1195214,3.375900000000001,1.85586572,0.0,"{56: 1, 5: 4, 51: 2, 8: 12}","[5, 8, 51, 56]",54812512561,Ba1B4Sb2O12
Ba3La2(BO3)4,mp-6446,4.0127,2.66538398,0.0148968540476204,"{56: 3, 57: 2, 5: 4, 8: 12}","[5, 8, 56, 57]",54812563572,Ba3La2B4O12
Ba5Zn2B4(O6F)2,mp-1195124,3.660600000000001,1.25616025,0.0110294269999924,"{56: 5, 30: 2, 5: 4, 8: 12, 9: 2}","[5, 8, 9, 30, 56]",5481292302565,Ba5Zn2B4O12F2
Ca2Mn2B4O13,mp-1201306,0.0,1.77832087,0.278531187500004,"{20: 2, 25: 2, 5: 4, 8: 13}","[5, 8, 20, 25]",54813202252,Ca2Mn2B4O13
B4Pb6O13,mp-1201222,0.0054000000000002,3.43391786,0.0935245681366314,"{5: 4, 82: 6, 8: 13}","[5, 8, 82]",54813826,B4Pb6O13
Na2SrAl4(B2O7)2,mp-1221313,2.4779,4.11309063,0.0241035018000008,"{11: 2, 38: 1, 13: 4, 5: 4, 8: 14}","[5, 8, 11, 13, 38]",54814112134381,Na2Sr1Al4B4O14
Cu5Bi2(B2O7)2,mp-559620,0.0,3.5092332,0.0437552009999961,"{29: 5, 83: 2, 5: 4, 8: 14}","[5, 8, 29, 83]",54814295832,Cu5Bi2B4O14
Ca3YAl3B4O15,mp-694012,4.4422,2.98863193,0.0332290025321011,"{20: 3, 39: 1, 13: 3, 5: 4, 8: 15}","[5, 8, 13, 20, 39]",54815133203391,Ca3Y1Al3B4O15
Ca3YMn3B4O15,mp-726398,1.0985,2.93736429,0.0156749494671046,"{20: 3, 39: 1, 25: 3, 5: 4, 8: 15}","[5, 8, 20, 25, 39]",54815203253391,Ca3Y1Mn3B4O15
Ca3YGa3B4O15,mp-695475,3.9961,2.14421752,0.0356889958012835,"{20: 3, 39: 1, 31: 3, 5: 4, 8: 15}","[5, 8, 20, 31, 39]",54815203313391,Ca3Y1Ga3B4O15
Na4B4Sb2SO16,mp-769713,1.882,1.56023891,0.0541561709259266,"{11: 4, 5: 4, 51: 2, 16: 1, 8: 16}","[5, 8, 11, 16, 51]",54816114161512,Na4B4Sb2S1O16
Na4Bi2B4SO16,mp-779161,0.0778999999999999,0.98437931,0.0687450838425975,"{11: 4, 83: 2, 5: 4, 16: 1, 8: 16}","[5, 8, 11, 16, 83]",54816114161832,Na4Bi2B4S1O16
Na6V2B4PO16,mp-780410,0.0,1.15351109,0.0720470517241711,"{11: 6, 23: 2, 5: 4, 15: 1, 8: 16}","[5, 8, 11, 15, 23]",54816116151232,Na6V2B4P1O16
Na6Cr2B4PO16,mp-780628,0.0,0.7572841,0.102373547875624,"{11: 6, 24: 2, 5: 4, 15: 1, 8: 16}","[5, 8, 11, 15, 24]",54816116151242,Na6Cr2B4P1O16
Na6Mn2B4PO16,mp-780414,0.0,0.66556765,0.0494281122577966,"{11: 6, 25: 2, 5: 4, 15: 1, 8: 16}","[5, 8, 11, 15, 25]",54816116151252,Na6Mn2B4P1O16
Na6Fe2B4PO16,mp-772422,0.0279999999999999,0.41471661,0.0504764489224136,"{11: 6, 26: 2, 5: 4, 15: 1, 8: 16}","[5, 8, 11, 15, 26]",54816116151262,Na6Fe2B4P1O16
Na6B4Sb2PO16,mp-780399,0.0,3.5644045,0.0811513724769037,"{11: 6, 5: 4, 51: 2, 15: 1, 8: 16}","[5, 8, 11, 15, 51]",54816116151512,Na6B4Sb2P1O16
Na6V2B4SO16,mp-781738,0.0,2.06779066,0.015104564330854,"{11: 6, 23: 2, 5: 4, 16: 1, 8: 16}","[5, 8, 11, 16, 23]",54816116161232,Na6V2B4S1O16
Na6Cr2B4SO16,mp-850803,0.0,1.16161342,0.0496431574712614,"{11: 6, 24: 2, 5: 4, 16: 1, 8: 16}","[5, 8, 11, 16, 24]",54816116161242,Na6Cr2B4S1O16
Na6Mn2B4SO16,mp-770500,1.2253999999999998,1.07691868,0.0227989106896693,"{11: 6, 25: 2, 5: 4, 16: 1, 8: 16}","[5, 8, 11, 16, 25]",54816116161252,Na6Mn2B4S1O16
Na6Fe2B4SO16,mp-770356,0.0,0.78094554,0.0252883250862074,"{11: 6, 26: 2, 5: 4, 16: 1, 8: 16}","[5, 8, 11, 16, 26]",54816116161262,Na6Fe2B4S1O16
Na6Co2B4SO16,mp-780413,0.1406999999999998,1.40388436,0.0680509356034511,"{11: 6, 27: 2, 5: 4, 16: 1, 8: 16}","[5, 8, 11, 16, 27]",54816116161272,Na6Co2B4S1O16
Na6Sn2B4SO16,mp-780239,3.4323,1.42683764,0.0,"{11: 6, 50: 2, 5: 4, 16: 1, 8: 16}","[5, 8, 11, 16, 50]",54816116161502,Na6Sn2B4S1O16
Na6B4Sb2SO16,mp-780353,0.0,3.72354871,0.0726898701293201,"{11: 6, 5: 4, 51: 2, 16: 1, 8: 16}","[5, 8, 11, 16, 51]",54816116161512,Na6B4Sb2S1O16
Na6Bi2B4SO16,mp-779289,0.1835999999999999,1.74989118,0.0178363796551774,"{11: 6, 83: 2, 5: 4, 16: 1, 8: 16}","[5, 8, 11, 16, 83]",54816116161832,Na6Bi2B4S1O16
Na6V2B4AsO16,mp-850371,0.0,1.05533057,0.1104672531034571,"{11: 6, 23: 2, 5: 4, 33: 1, 8: 16}","[5, 8, 11, 23, 33]",54816116232331,Na6V2B4As1O16
Na6Mn2B4AsO16,mp-770785,0.0,0.5100599,0.069673083955255,"{11: 6, 25: 2, 5: 4, 33: 1, 8: 16}","[5, 8, 11, 25, 33]",54816116252331,Na6Mn2B4As1O16
Na6Fe2B4AsO16,mp-770768,0.0,0.35061427,0.0693958258189724,"{11: 6, 26: 2, 5: 4, 33: 1, 8: 16}","[5, 8, 11, 26, 33]",54816116262331,Na6Fe2B4As1O16
Na6Bi2B4AsO16,mp-780412,0.0,1.44356607,0.0610298337368009,"{11: 6, 83: 2, 5: 4, 33: 1, 8: 16}","[5, 8, 11, 33, 83]",54816116331832,Na6Bi2B4As1O16
Mn(BO4)4,mp-1202491,0.0580000000000002,-2.19368377,0.5705951608333315,"{25: 1, 5: 4, 8: 16}","[5, 8, 25]",54816251,Mn1B4O16
Na2B4O17,mp-1180429,0.1465,-1.59439883,0.3624039089130431,"{11: 2, 5: 4, 8: 17}","[5, 8, 11]",54817112,Na2B4O17
Al6Cu2B4O17,mp-1228556,0.4880999999999997,3.53784503,0.0105287449195339,"{13: 6, 29: 2, 5: 4, 8: 17}","[5, 8, 13, 29]",54817136292,Al6Cu2B4O17
Ho9B4O19,mp-757752,0.2656999999999998,5.5920866,0.0546266993723989,"{67: 9, 5: 4, 8: 19}","[5, 8, 67]",54819679,Ho9B4O19
MgV12(BO5)4,mp-1233229,0.0694000000000008,5.572527,0.139859766920054,"{12: 1, 23: 12, 5: 4, 8: 20}","[5, 8, 12, 23]",548201212312,Mg1V12B4O20
Co11B4SbO20,mp-1226643,0.0,3.66950471,0.1785115624999997,"{27: 11, 5: 4, 51: 1, 8: 20}","[5, 8, 27, 51]",548202711511,Co11B4Sb1O20
Ca4Ce2TiSi4(BO6)4,mp-728512,3.965,0.41100739,0.0283758328846666,"{20: 4, 58: 2, 22: 1, 14: 4, 5: 4, 8: 24}","[5, 8, 14, 20, 22, 58]",54824144204221582,Ca4Ce2Ti1Si4B4O24
Nd13(B2O13)2,mp-1203797,0.0,1.7537466,0.0020745589534794,"{60: 13, 5: 4, 8: 26}","[5, 8, 60]",548266013,Nd13B4O26
Mg3Al12FeSi4(BO9)4,mp-1222235,3.7922,3.43860379,0.0001016109166673,"{12: 3, 13: 12, 26: 1, 14: 4, 5: 4, 8: 36}","[5, 8, 12, 13, 14, 26]",548361231312144261,Mg3Al12Fe1Si4B4O36
MnB4O7,mp-12209,4.7102,0.70805301,0.0,"{25: 1, 5: 4, 8: 7}","[5, 8, 25]",5487251,Mn1B4O7
FeB4O7,mp-1191380,2.6798,3.74405939,0.0115570172916701,"{26: 1, 5: 4, 8: 7}","[5, 8, 26]",5487261,Fe1B4O7
CoB4O7,mp-22829,3.2709,0.47738497,0.0331774014467605,"{27: 1, 5: 4, 8: 7}","[5, 8, 27]",5487271,Co1B4O7
NiB4O7,mp-557107,2.1423,3.96648379,0.0116853675925963,"{28: 1, 5: 4, 8: 7}","[5, 8, 28]",5487281,Ni1B4O7
CuB4O7,mp-555093,0.1935000000000002,4.45254337,0.0471895720833366,"{29: 1, 5: 4, 8: 7}","[5, 8, 29]",5487291,Cu1B4O7
SrB4O7,mp-5540,7.1191,3.13841072,0.0068223917939818,"{38: 1, 5: 4, 8: 7}","[5, 8, 38]",5487381,Sr1B4O7
CdB4O7,mp-13603,3.9877,0.00712637,0.0,"{48: 1, 5: 4, 8: 7}","[5, 8, 48]",5487481,Cd1B4O7
BaB4O7,mp-27692,5.1593,0.8397026,0.0,"{56: 1, 5: 4, 8: 7}","[5, 8, 56]",5487561,Ba1B4O7
LaB4ClO8,mp-1194424,0.0,1.44524354,0.1255811592658844,"{57: 1, 5: 4, 17: 1, 8: 8}","[5, 8, 17, 57]",5488171571,La1B4Cl1O8
CeB4ClO8,mp-1193133,0.0,1.31831097,0.1098509174479129,"{58: 1, 5: 4, 17: 1, 8: 8}","[5, 8, 17, 58]",5488171581,Ce1B4Cl1O8
PrB4ClO8,mp-1193360,0.0,0.8174858,0.1076638433333343,"{59: 1, 5: 4, 17: 1, 8: 8}","[5, 8, 17, 59]",5488171591,Pr1B4Cl1O8
NdB4ClO8,mp-1194357,0.0,0.81137521,0.1144176727380923,"{60: 1, 5: 4, 17: 1, 8: 8}","[5, 8, 17, 60]",5488171601,Nd1B4Cl1O8
PuB4ClO8,mp-1192622,0.0,2.68509453,0.0409645091666668,"{94: 1, 5: 4, 17: 1, 8: 8}","[5, 8, 17, 94]",5488171941,Pu1B4Cl1O8
U(BO2)4,mp-1194254,0.0,7.07969332,0.0369864852564063,"{92: 1, 5: 4, 8: 8}","[5, 8, 92]",5488921,U1B4O8
La2B4O9,mp-752449,4.491899999999999,4.48223821,0.0081580940666672,"{57: 2, 5: 4, 8: 9}","[5, 8, 57]",5489572,La2B4O9
Sm2B4O9,mp-768280,5.126399999999999,2.70012698,0.0100280346666483,"{62: 2, 5: 4, 8: 9}","[5, 8, 62]",5489622,Sm2B4O9
Eu2B4O9,mp-1213631,0.0,2.83581557,0.0188817492222241,"{63: 2, 5: 4, 8: 9}","[5, 8, 63]",5489632,Eu2B4O9
Gd2B4O9,mp-31369,2.8237,2.65502784,0.0212180433194255,"{64: 2, 5: 4, 8: 9}","[5, 8, 64]",5489642,Gd2B4O9
Tb2B4O9,mp-1208709,5.514400000000001,2.92121416,0.0109212500333324,"{65: 2, 5: 4, 8: 9}","[5, 8, 65]",5489652,Tb2B4O9
Dy2B4O9,mp-16600,5.6245,2.96433081,0.0184784749999842,"{66: 2, 5: 4, 8: 9}","[5, 8, 66]",5489662,Dy2B4O9
Ho2B4O9,mp-768301,5.659700000000001,2.85244328,0.030689259583319,"{67: 2, 5: 4, 8: 9}","[5, 8, 67]",5489672,Ho2B4O9
Er2B4O9,mp-756914,5.6886,2.83859785,0.0340531261666647,"{68: 2, 5: 4, 8: 9}","[5, 8, 68]",5489682,Er2B4O9
Lu2B4O9,mp-772781,5.469799999999999,2.94989759,0.0404786959166685,"{71: 2, 5: 4, 8: 9}","[5, 8, 71]",5489712,Lu2B4O9
PuNpB4,mp-1219654,0.0,12.44415821,0.0173547447916675,"{94: 1, 93: 1, 5: 4}","[5, 93, 94]",54931941,Pu1Np1B4
Dy9B5S21,mp-1225776,1.4641000000000002,4.10425324,0.0340759442714286,"{66: 9, 5: 5, 16: 21}","[5, 16, 66]",551621669,Dy9B5S21
Ho9B5S21,mp-1224577,1.4704999999999997,4.16281472,0.0395931524857138,"{67: 9, 5: 5, 16: 21}","[5, 16, 67]",551621679,Ho9B5S21
Er9B5S21,mp-1226663,1.4741,4.14366606,0.0465741887714301,"{68: 9, 5: 5, 16: 21}","[5, 16, 68]",551621689,Er9B5S21
Tm9B5S21,mp-1217003,1.4360999999999997,4.20098374,0.057822638217857,"{69: 9, 5: 5, 16: 21}","[5, 16, 69]",551621699,Tm9B5S21
Lu9B5S21,mp-1222906,1.3279999999999994,4.34347178,0.0582512384142841,"{71: 9, 5: 5, 16: 21}","[5, 16, 71]",551621719,Lu9B5S21
Tb2(Ni2B)5,mp-1201581,0.0,7.09908105,0.0022089770249005,"{65: 2, 28: 10, 5: 5}","[5, 28, 65]",552810652,Tb2Ni10B5
Ho2(Ni2B)5,mp-568440,0.0,7.07338759,0.1976156724474744,"{67: 2, 28: 10, 5: 5}","[5, 28, 67]",552810672,Ho2Ni10B5
CuB5,mp-1181765,0.0,5.0416171,0.3846316811111121,"{29: 1, 5: 5}","[5, 29]",55291,Cu1B5
Cu3B5Pt9,mp-1105186,0.0,7.19460792,0.0,"{29: 3, 5: 5, 78: 9}","[5, 29, 78]",55293789,Cu3B5Pt9
Y2B5Pd14,mp-4597,0.0,5.34333987,0.0317253054112569,"{39: 2, 5: 5, 46: 14}","[5, 39, 46]",553924614,Y2B5Pd14
Hf6Zr8Ta3Ti2(Nb4B27)2,mp-2646953,0.0,8.0726967,0.0044451792592568,"{72: 6, 40: 8, 73: 3, 22: 2, 41: 8, 5: 54}","[5, 22, 40, 41, 72, 73]",554222408418726733,Hf6Zr8Ta3Ti2Nb8B54
Hf6Zr4Ta8Ti3(NbB9)6,mp-2646956,0.0,8.41325016,0.0106876167901326,"{72: 6, 40: 4, 73: 8, 22: 3, 41: 6, 5: 54}","[5, 22, 40, 41, 72, 73]",554223404416726738,Hf6Zr4Ta8Ti3Nb6B54
Hf7Zr6Ta4Ti3Nb7B54,mp-2646912,0.0,8.17646728,0.0072597203703708,"{72: 7, 40: 6, 73: 4, 22: 3, 41: 7, 5: 54}","[5, 22, 40, 41, 72, 73]",554223406417727734,Hf7Zr6Ta4Ti3Nb7B54
Hf2Zr8Ta8Ti4Nb5B54,mp-2646932,0.0,8.31826926,0.0092402623456777,"{72: 2, 40: 8, 73: 8, 22: 4, 41: 5, 5: 54}","[5, 22, 40, 41, 72, 73]",554224408415722738,Hf2Zr8Ta8Ti4Nb5B54
Hf6Zr8Ta5Ti5(NbB18)3,mp-2646934,0.0,8.11854793,0.012392294320989,"{72: 6, 40: 8, 73: 5, 22: 5, 41: 3, 5: 54}","[5, 22, 40, 41, 72, 73]",554225408413726735,Hf6Zr8Ta5Ti5Nb3B54
B5I,mp-1182499,0.0994999999999999,3.59725354,0.6519446582870385,"{5: 5, 53: 1}","[5, 53]",55531,B5I1
Mg8B5IN10,mp-570132,2.6847,1.76582184,0.0310324378906248,"{12: 8, 5: 5, 53: 1, 7: 10}","[5, 7, 12, 53]",55710128531,Mg8B5I1N10
Ba8B5N10F,mp-561502,2.2163,1.7421384,0.0,"{56: 8, 5: 5, 7: 10, 9: 1}","[5, 7, 9, 56]",5571091568,Ba8B5N10F1
B5NO12,mp-1204898,0.1292999999999999,-1.74825787,0.7307948554745396,"{5: 5, 7: 1, 8: 12}","[5, 7, 8]",5571812,B5N1O12
LaB5NO14,mp-1203920,0.0021999999999999,-0.18994632,0.3485478197089895,"{57: 1, 5: 5, 7: 1, 8: 14}","[5, 7, 8, 57]",5571814571,La1B5N1O14
Na3Mg(BO2)5,mp-683990,4.4625,0.11416885,0.0,"{11: 3, 12: 1, 5: 5, 8: 10}","[5, 8, 11, 12]",55810113121,Na3Mg1B5O10
CeMg(BO2)5,mp-1213931,0.2899999999999991,6.23193339,0.0,"{58: 1, 12: 1, 5: 5, 8: 10}","[5, 8, 12, 58]",55810121581,Ce1Mg1B5O10
PrMg(BO2)5,mp-1209670,5.9465,2.21915998,0.0,"{59: 1, 12: 1, 5: 5, 8: 10}","[5, 8, 12, 59]",55810121591,Pr1Mg1B5O10
EuMg(BO2)5,mp-1213294,0.0116999999999998,2.20842131,0.0070949267401836,"{63: 1, 12: 1, 5: 5, 8: 10}","[5, 8, 12, 63]",55810121631,Eu1Mg1B5O10
GdMg(BO2)5,mp-556905,2.7985999999999995,2.33582351,0.0024475181127368,"{64: 1, 12: 1, 5: 5, 8: 10}","[5, 8, 12, 64]",55810121641,Gd1Mg1B5O10
DyMg(BO2)5,mp-1212987,6.088900000000001,2.27064822,0.0002143647793992,"{66: 1, 12: 1, 5: 5, 8: 10}","[5, 8, 12, 66]",55810121661,Dy1Mg1B5O10
HoMg(BO2)5,mp-1212152,6.137099999999999,2.26342074,0.0119165177205786,"{67: 1, 12: 1, 5: 5, 8: 10}","[5, 8, 12, 67]",55810121671,Ho1Mg1B5O10
ErMg(BO2)5,mp-1213132,6.1636,2.28021919,0.0148392709558695,"{68: 1, 12: 1, 5: 5, 8: 10}","[5, 8, 12, 68]",55810121681,Er1Mg1B5O10
Ca2B5ClO10,mp-1182326,2.8906,1.45520319,0.0771567832291095,"{20: 2, 5: 5, 17: 1, 8: 10}","[5, 8, 17, 20]",55810171202,Ca2B5Cl1O10
K3Cd(BO2)5,mp-1204785,3.818,3.27183515,0.0,"{19: 3, 48: 1, 5: 5, 8: 10}","[5, 8, 19, 48]",55810193481,K3Cd1B5O10
YCo(BO2)5,mp-19468,3.3508,2.63366352,0.032852908643786,"{39: 1, 27: 1, 5: 5, 8: 10}","[5, 8, 27, 39]",55810271391,Y1Co1B5O10
LaCo(BO2)5,mp-19475,3.1157000000000004,3.49635746,0.0468306127450652,"{57: 1, 27: 1, 5: 5, 8: 10}","[5, 8, 27, 57]",55810271571,La1Co1B5O10
NdCo(BO2)5,mp-19495,4.968299999999999,2.62224851,0.0385199233129149,"{60: 1, 27: 1, 5: 5, 8: 10}","[5, 8, 27, 60]",55810271601,Nd1Co1B5O10
SmCo(BO2)5,mp-19489,5.066800000000001,2.68073817,0.0405200708496806,"{62: 1, 27: 1, 5: 5, 8: 10}","[5, 8, 27, 62]",55810271621,Sm1Co1B5O10
HoCo(BO2)5,mp-19465,3.5892000000000004,2.62531544,0.0475694741585037,"{67: 1, 27: 1, 5: 5, 8: 10}","[5, 8, 27, 67]",55810271671,Ho1Co1B5O10
TbCu(BO2)5,mp-17323,0.4677000000000002,2.47515145,0.0192885282842976,"{65: 1, 29: 1, 5: 5, 8: 10}","[5, 8, 29, 65]",55810291651,Tb1Cu1B5O10
TmCu(BO2)5,mp-17395,0.5997000000000003,2.40581712,0.007853055674003,"{69: 1, 29: 1, 5: 5, 8: 10}","[5, 8, 29, 69]",55810291691,Tm1Cu1B5O10
LuCu(BO2)5,mp-18595,0.7753999999999999,2.60523779,0.0120649462990396,"{71: 1, 29: 1, 5: 5, 8: 10}","[5, 8, 29, 71]",55810291711,Lu1Cu1B5O10
LaZn(BO2)5,mp-1019968,4.4971,2.93470568,0.0046921148529257,"{57: 1, 30: 1, 5: 5, 8: 10}","[5, 8, 30, 57]",55810301571,La1Zn1B5O10
CeZn(BO2)5,mp-21667,0.4874999999999998,7.0021409,0.0202701625734995,"{58: 1, 30: 1, 5: 5, 8: 10}","[5, 8, 30, 58]",55810301581,Ce1Zn1B5O10
NdZn(BO2)5,mp-15519,4.9183,2.10275861,0.0061888744485223,"{60: 1, 30: 1, 5: 5, 8: 10}","[5, 8, 30, 60]",55810301601,Nd1Zn1B5O10
EuZn(BO2)5,mp-1019730,0.0,1.97872422,0.0135675360049152,"{63: 1, 30: 1, 5: 5, 8: 10}","[5, 8, 30, 63]",55810301631,Eu1Zn1B5O10
TbZn(BO2)5,mp-15520,5.0205,2.08781969,0.0114124718382431,"{65: 1, 30: 1, 5: 5, 8: 10}","[5, 8, 30, 65]",55810301651,Tb1Zn1B5O10
Nb(BO2)5,mp-779261,3.2638,-1.18913023,0.0666850475520899,"{41: 1, 5: 5, 8: 10}","[5, 8, 41]",55810411,Nb1B5O10
SmCd(BO2)5,mp-14556,4.207800000000001,1.94111192,0.0048756197059169,"{62: 1, 48: 1, 5: 5, 8: 10}","[5, 8, 48, 62]",55810481621,Sm1Cd1B5O10
In(BO2)5,mp-1188835,0.0,2.61701069,0.0889620180989609,"{49: 1, 5: 5, 8: 10}","[5, 8, 49]",55810491,In1B5O10
B5SbO10,mp-779174,2.0512,-0.16565281,0.0895745211979477,"{5: 5, 51: 1, 8: 10}","[5, 8, 51]",55810511,B5Sb1O10
Ba(BO2)5,mp-1204604,0.6024,-0.01213357,0.1564410481445133,"{56: 1, 5: 5, 8: 10}","[5, 8, 56]",55810561,Ba1B5O10
Pr(BO2)5,mp-1204691,0.0,0.37523063,0.0950455086197905,"{59: 1, 5: 5, 8: 10}","[5, 8, 59]",55810591,Pr1B5O10
LaB5BrO11,mp-1204863,0.0090999999999999,-0.07712747,0.1779126495833232,"{57: 1, 5: 5, 35: 1, 8: 11}","[5, 8, 35, 57]",55811351571,La1B5Br1O11
CeB5BrO11,mp-1198521,0.1474999999999999,-0.53350849,0.2562166889120352,"{58: 1, 5: 5, 35: 1, 8: 11}","[5, 8, 35, 58]",55811351581,Ce1B5Br1O11
LaB5IO11,mp-1205267,1.2036000000000002,1.15365944,0.0797191670524837,"{57: 1, 5: 5, 53: 1, 8: 11}","[5, 8, 53, 57]",55811531571,La1B5I1O11
PrB5IO11,mp-1201381,0.0,-0.08574828,0.1668229491574164,"{59: 1, 5: 5, 53: 1, 8: 11}","[5, 8, 53, 59]",55811531591,Pr1B5I1O11
NdB5IO11,mp-1198400,1.1162999999999998,0.60638697,0.0859621545300841,"{60: 1, 5: 5, 53: 1, 8: 11}","[5, 8, 53, 60]",55811531601,Nd1B5I1O11
Ba2B5O11,mp-1198603,0.0119,0.58532723,0.1059647338541669,"{56: 2, 5: 5, 8: 11}","[5, 8, 56]",55811562,Ba2B5O11
RbUB5O11F,mp-1204153,0.4367999999999999,-0.33366116,0.0628062864254239,"{37: 1, 92: 1, 5: 5, 8: 11, 9: 1}","[5, 8, 9, 37, 92]",5581191371921,Rb1U1B5O11F1
UTlB5O11F,mp-1189325,0.5901000000000001,0.92813312,0.0524994304001982,"{92: 1, 81: 1, 5: 5, 8: 11, 9: 1}","[5, 8, 9, 81, 92]",5581191811921,U1Tl1B5O11F1