formula,material_id,band_gap,efermi,energy_above_hull,comp_atoms,sorted_keys_comp_atoms,comp_number,new_formula
Mg3B11O24,mp-1196889,0.0,-0.34053255,0.2381538648958336,"{12: 3, 5: 11, 8: 24}","[5, 8, 12]",511824123,Mg3B11O24
B11(Pb2O9)3,mp-1199204,0.0,2.19906178,0.1785416273863633,"{5: 11, 82: 6, 8: 27}","[5, 8, 82]",511827826,B11Pb6O27
K3BAs2,mp-9665,1.3129,0.92648132,0.0110507405753974,"{19: 3, 5: 1, 33: 2}","[5, 19, 33]",51193332,K3B1As2
K8Zr6BBr20,mp-866664,0.0552999999999999,2.21089157,0.0,"{19: 8, 40: 6, 5: 1, 35: 20}","[5, 19, 35, 40]",511983520406,K8Zr6B1Br20
CaBiB,mp-631550,0.0777999999999998,3.06535565,1.5357156010185165,"{20: 1, 83: 1, 5: 1}","[5, 20, 83]",51201831,Ca1Bi1B1
ScBPt3,mp-1018627,0.0,6.55588711,0.195880530166673,"{21: 1, 5: 1, 78: 3}","[5, 21, 78]",51211783,Sc1B1Pt3
Mg(SiB6)2,mp-567224,1.9315000000000009,5.35158233,0.0,"{12: 1, 14: 2, 5: 12}","[5, 12, 14]",512121142,Mg1Si2B12
Sc3InB,mp-19726,0.0,4.55495621,0.0845489170000011,"{21: 3, 49: 1, 5: 1}","[5, 21, 49]",51213491,Sc3In1B1
Al5Ni41B12,mp-1228559,0.0,8.42075222,0.0004890425861976,"{13: 5, 28: 41, 5: 12}","[5, 13, 28]",5121352841,Al5Ni41B12
Sc3TlB,mp-10140,0.0,4.68060481,0.0339477402222243,"{21: 3, 81: 1, 5: 1}","[5, 21, 81]",51213811,Sc3Tl1B1
Sc5BRh15,mp-1219416,0.0,5.95831024,0.0112712042857117,"{21: 5, 5: 1, 45: 15}","[5, 21, 45]",512154515,Sc5B1Rh15
B12S,mp-1228640,1.7964000000000002,4.63102947,0.0755398299008556,"{5: 12, 16: 1}","[5, 16]",512161,B12S1
ThSc2(BRh)12,mp-1217462,0.0,7.29069533,0.0550708469259264,"{90: 1, 21: 2, 5: 12, 45: 12}","[5, 21, 45, 90]",5122124512901,Th1Sc2B12Rh12
TiCuB,mp-1100413,0.1793000000000004,6.18920885,0.3723469744791661,"{22: 1, 29: 1, 5: 1}","[5, 22, 29]",51221291,Ti1Cu1B1
Ta3V3(Ni10B3)4,mp-1218307,0.0,8.19502513,0.0078880654221125,"{73: 3, 23: 3, 28: 40, 5: 12}","[5, 23, 28, 73]",5122332840733,Ta3V3Ni40B12
Co3Re25B12,mp-1226569,0.0,8.02001577,0.0051790535749915,"{27: 3, 75: 25, 5: 12}","[5, 27, 75]",5122737525,Co3Re25B12
NiB12,mp-1104127,0.0,5.44210597,0.2944081465865391,"{28: 1, 5: 12}","[5, 28]",512281,Ni1B12
Nb5Ni41B12,mp-1220806,0.0,8.10086578,0.0016493205172398,"{41: 5, 28: 41, 5: 12}","[5, 28, 41]",5122841415,Nb5Ni41B12
Ni43(GeB4)3,mp-1220773,0.0,8.07936873,0.0114724168965452,"{28: 43, 32: 3, 5: 12}","[5, 28, 32]",5122843323,Ni43Ge3B12
YB12,mp-7817,0.0,5.73668124,0.0,"{39: 1, 5: 12}","[5, 39]",512391,Y1B12
YU2(BRh)12,mp-1216402,0.0,8.16777044,0.054708854331996,"{39: 1, 92: 2, 5: 12, 45: 12}","[5, 39, 45, 92]",5123914512922,Y1U2B12Rh12
SmYB12,mp-1218969,0.0,6.56289937,0.0159290860714289,"{62: 1, 39: 1, 5: 12}","[5, 39, 62]",512391621,Sm1Y1B12
ZrB12,mp-1084,0.0,7.01851369,0.0206349911538428,"{40: 1, 5: 12}","[5, 40]",512401,Zr1B12
CrCoB,mp-1226217,0.0,7.11034244,0.0820347841666659,"{24: 1, 27: 1, 5: 1}","[5, 24, 27]",51241271,Cr1Co1B1
CrCuB,mp-1100441,0.0,6.1690203,0.5401955608333342,"{24: 1, 29: 1, 5: 1}","[5, 24, 29]",51241291,Cr1Cu1B1
CrBW,mp-1226225,0.0,7.49354751,0.1191586275000027,"{24: 1, 5: 1, 74: 1}","[5, 24, 74]",51241741,Cr1B1W1
Hf(Nb2B3)4,mp-1224510,0.0,7.37284468,0.0064361476190377,"{72: 1, 41: 8, 5: 12}","[5, 41, 72]",512418721,Hf1Nb8B12
Cr2B,mp-15809,0.0,7.56991724,0.0671698833333316,"{24: 2, 5: 1}","[5, 24]",51242,Cr2B1
Cr4B,mp-1226275,0.0,6.5315607,0.3031366165000015,"{24: 4, 5: 1}","[5, 24]",51244,Cr4B1
MnFeB,mp-1221654,0.0,7.08867953,0.0474621433333339,"{25: 1, 26: 1, 5: 1}","[5, 25, 26]",51251261,Mn1Fe1B1
MnCoB,mp-1221661,0.0,7.06390029,0.0356796458333343,"{25: 1, 27: 1, 5: 1}","[5, 25, 27]",51251271,Mn1Co1B1
Mn2B,mp-20318,0.0,7.60206213,0.0984530168390822,"{25: 2, 5: 1}","[5, 25]",51252,Mn2B1
Mn4B,mp-1221769,0.0,6.58341193,0.1030640468275869,"{25: 4, 5: 1}","[5, 25]",51254,Mn4B1
Mn5BPd15,mp-1221871,0.0,4.56602788,0.0098985892857124,"{25: 5, 5: 1, 46: 15}","[5, 25, 46]",512554615,Mn5B1Pd15
BaLaB12,mp-1227841,0.0,6.75269501,0.0,"{56: 1, 57: 1, 5: 12}","[5, 56, 57]",512561571,Ba1La1B12
Ba7(BIr)12,mp-27261,0.0,5.07296469,0.0,"{56: 7, 5: 12, 77: 12}","[5, 56, 77]",5125677712,Ba7B12Ir12
LaTmB12,mp-1222699,0.0,7.67294702,0.0434240553125011,"{57: 1, 69: 1, 5: 12}","[5, 57, 69]",512571691,La1Tm1B12
CeSmB12,mp-1226503,0.0,7.34954159,0.0013214650000001,"{58: 1, 62: 1, 5: 12}","[5, 58, 62]",512581621,Ce1Sm1B12
PrB12,mp-1004753,0.0,5.54305186,0.0696311073076909,"{59: 1, 5: 12}","[5, 59]",512591,Pr1B12
NdB12,mp-1004756,0.0,5.53475422,0.0741188680769209,"{60: 1, 5: 12}","[5, 60]",512601,Nd1B12
FeB,mp-1007881,0.0,7.81118761,0.0,"{26: 1, 5: 1}","[5, 26]",51261,Fe1B1
FeCoB,mp-1224984,0.0,6.69035314,0.0175851272222233,"{26: 1, 27: 1, 5: 1}","[5, 26, 27]",51261271,Fe1Co1B1
FeCo2B,mp-1188282,0.0,6.47485928,0.0321756574999998,"{26: 1, 27: 2, 5: 1}","[5, 26, 27]",51261272,Fe1Co2B1
YFeCo3B,mp-1101797,0.0,5.12532471,0.0,"{39: 1, 26: 1, 27: 3, 5: 1}","[5, 26, 27, 39]",51261273391,Y1Fe1Co3B1
NdFeCo3B,mp-1102704,0.0,5.1552893,0.0011128635174406,"{60: 1, 26: 1, 27: 3, 5: 1}","[5, 26, 27, 60]",51261273601,Nd1Fe1Co3B1
FeNiB,mp-1224960,0.0,7.95963575,0.0532487113888873,"{26: 1, 28: 1, 5: 1}","[5, 26, 28]",51261281,Fe1Ni1B1
Y2FeB,mp-631661,0.0,4.81783518,0.9469059474999996,"{39: 2, 26: 1, 5: 1}","[5, 26, 39]",51261392,Y2Fe1B1
NbFeB,mp-1080817,0.0,6.30622192,0.0,"{41: 1, 26: 1, 5: 1}","[5, 26, 41]",51261411,Nb1Fe1B1
NdYFe14B,mp-1220544,0.0,4.67281579,0.0050815089154401,"{60: 1, 39: 1, 26: 14, 5: 1}","[5, 26, 39, 60]",512614391601,Nd1Y1Fe14B1
YErFe14B,mp-1216335,0.0,4.69636522,0.0019475830882367,"{39: 1, 68: 1, 26: 14, 5: 1}","[5, 26, 39, 68]",512614391681,Y1Er1Fe14B1
YThFe14B,mp-1216311,0.0,5.35687293,0.0,"{39: 1, 90: 1, 26: 14, 5: 1}","[5, 26, 39, 90]",512614391901,Y1Th1Fe14B1
Y2Fe14B,mp-5434,0.0,4.57470698,0.0,"{39: 2, 26: 14, 5: 1}","[5, 26, 39]",512614392,Y2Fe14B1
La2Fe14B,mp-1198085,0.0,6.13779123,0.0200061308823542,"{57: 2, 26: 14, 5: 1}","[5, 26, 57]",512614572,La2Fe14B1
Ce2Fe14B,mp-4459,0.0,5.7459265,0.0193582513235313,"{58: 2, 26: 14, 5: 1}","[5, 26, 58]",512614582,Ce2Fe14B1
PrNdFe14B,mp-1219983,0.0,4.82240931,0.0085583911151969,"{59: 1, 60: 1, 26: 14, 5: 1}","[5, 26, 59, 60]",512614591601,Pr1Nd1Fe14B1
PrErFe14B,mp-1220557,0.0,4.71912666,0.0174706719607833,"{59: 1, 68: 1, 26: 14, 5: 1}","[5, 26, 59, 68]",512614591681,Pr1Er1Fe14B1
Pr2Fe14B,mp-569428,0.0,4.60357875,0.0143009209313733,"{59: 2, 26: 14, 5: 1}","[5, 26, 59]",512614592,Pr2Fe14B1
TbNdFe14B,mp-1217651,0.0,4.71915878,0.0049023470772029,"{65: 1, 60: 1, 26: 14, 5: 1}","[5, 26, 60, 65]",512614601651,Tb1Nd1Fe14B1
NdDyFe14B,mp-1220576,0.0,4.71412768,0.0,"{60: 1, 66: 1, 26: 14, 5: 1}","[5, 26, 60, 66]",512614601661,Nd1Dy1Fe14B1
NdHoFe14B,mp-1220477,0.0,4.76672643,0.0073931039889707,"{60: 1, 67: 1, 26: 14, 5: 1}","[5, 26, 60, 67]",512614601671,Nd1Ho1Fe14B1
NdErFe14B,mp-1220643,0.0,4.6780972,0.0082622500000004,"{60: 1, 68: 1, 26: 14, 5: 1}","[5, 26, 60, 68]",512614601681,Nd1Er1Fe14B1
Nd2Fe14B,mp-5182,0.0,4.5586106,0.0011197637132349,"{60: 2, 26: 14, 5: 1}","[5, 26, 60]",512614602,Nd2Fe14B1
Sm2Fe14B,mp-1196306,0.0,4.69804216,0.0,"{62: 2, 26: 14, 5: 1}","[5, 26, 62]",512614622,Sm2Fe14B1
Gd2Fe14B,mp-1198327,0.0,4.66390486,0.0,"{64: 2, 26: 14, 5: 1}","[5, 26, 64]",512614642,Gd2Fe14B1
Tb2Fe14B,mp-5759,0.0,4.5684077,0.0,"{65: 2, 26: 14, 5: 1}","[5, 26, 65]",512614652,Tb2Fe14B1
DyErFe14B,mp-1226057,0.0,4.67403469,0.0015279084558805,"{66: 1, 68: 1, 26: 14, 5: 1}","[5, 26, 66, 68]",512614661681,Dy1Er1Fe14B1
DyTmFe14B,mp-1225933,0.0,4.70491732,0.0020036580882347,"{66: 1, 69: 1, 26: 14, 5: 1}","[5, 26, 66, 69]",512614661691,Dy1Tm1Fe14B1
DyThFe14B,mp-1226066,0.0,5.36395277,0.0,"{66: 1, 90: 1, 26: 14, 5: 1}","[5, 26, 66, 90]",512614661901,Dy1Th1Fe14B1
Dy2Fe14B,mp-4023,0.0,4.71827493,0.0,"{66: 2, 26: 14, 5: 1}","[5, 26, 66]",512614662,Dy2Fe14B1
Ho2Fe14B,mp-14698,0.0,4.5258309,0.0,"{67: 2, 26: 14, 5: 1}","[5, 26, 67]",512614672,Ho2Fe14B1
ErThFe14B,mp-1226123,0.0,5.3286629,0.0022815211029403,"{68: 1, 90: 1, 26: 14, 5: 1}","[5, 26, 68, 90]",512614681901,Er1Th1Fe14B1
Er2Fe14B,mp-3680,0.0,4.53240458,0.0,"{68: 2, 26: 14, 5: 1}","[5, 26, 68]",512614682,Er2Fe14B1
Tm2Fe14B,mp-5861,0.0,4.51577697,0.0,"{69: 2, 26: 14, 5: 1}","[5, 26, 69]",512614692,Tm2Fe14B1
Lu2Fe14B,mp-4214,0.0,4.50975894,0.0,"{71: 2, 26: 14, 5: 1}","[5, 26, 71]",512614712,Lu2Fe14B1
Th2Fe14B,mp-1198402,0.0,5.98999241,0.0,"{90: 2, 26: 14, 5: 1}","[5, 26, 90]",512614902,Th2Fe14B1
TaFeB,mp-1080089,0.0,6.79310488,0.0,"{73: 1, 26: 1, 5: 1}","[5, 26, 73]",51261731,Ta1Fe1B1
FeBW,mp-1103093,0.0,7.68349079,0.0,"{26: 1, 5: 1, 74: 1}","[5, 26, 74]",51261741,Fe1B1W1
FeReB,mp-1224854,0.0,7.58873845,0.0863100897222199,"{26: 1, 75: 1, 5: 1}","[5, 26, 75]",51261751,Fe1Re1B1
Fe2B,mp-1915,0.0,6.65516448,0.0,"{26: 2, 5: 1}","[5, 26]",51262,Fe2B1
SmB12,mp-1004525,0.0,5.48935095,0.0382527726923065,"{62: 1, 5: 12}","[5, 62]",512621,Sm1B12
SmFe2Co2B,mp-1219073,0.0,4.68289523,0.0114254756666642,"{62: 1, 26: 2, 27: 2, 5: 1}","[5, 26, 27, 62]",51262272621,Sm1Fe2Co2B1
DyFe2Co2B,mp-1225817,0.0,4.91929889,0.0,"{66: 1, 26: 2, 27: 2, 5: 1}","[5, 26, 27, 66]",51262272661,Dy1Fe2Co2B1
ErFe2Co2B,mp-1225877,0.0,4.79098158,0.0279524405833315,"{68: 1, 26: 2, 27: 2, 5: 1}","[5, 26, 27, 68]",51262272681,Er1Fe2Co2B1
LuFe2Co2B,mp-1222555,0.0,4.90887767,0.0080398118749966,"{71: 1, 26: 2, 27: 2, 5: 1}","[5, 26, 27, 71]",51262272711,Lu1Fe2Co2B1
Fe2NiB,mp-1105860,0.0,7.17385218,0.0481958418749988,"{26: 2, 28: 1, 5: 1}","[5, 26, 28]",51262281,Fe2Ni1B1
Fe3B,mp-973682,0.0,5.96112184,0.0171574543750008,"{26: 3, 5: 1}","[5, 26]",51263,Fe3B1
EuB12,mp-1096955,0.0,5.20679951,0.1024923011538447,"{63: 1, 5: 12}","[5, 63]",512631,Eu1B12
GdB12,mp-1006223,0.0,5.10453662,0.0176021665384613,"{64: 1, 5: 12}","[5, 64]",512641,Gd1B12
GdFe4B,mp-1102349,0.0,4.64384532,0.0121727913186777,"{64: 1, 26: 4, 5: 1}","[5, 26, 64]",51264641,Gd1Fe4B1
ErFe4B,mp-3045,0.0,4.96793269,0.0,"{68: 1, 26: 4, 5: 1}","[5, 26, 68]",51264681,Er1Fe4B1
TmFe4B,mp-1102205,0.0,4.85595133,0.0,"{69: 1, 26: 4, 5: 1}","[5, 26, 69]",51264691,Tm1Fe4B1
LuFe4B,mp-1101759,0.0,4.89328462,0.0,"{71: 1, 26: 4, 5: 1}","[5, 26, 71]",51264711,Lu1Fe4B1
UFe4B,mp-1207921,0.0,8.54749596,0.0683143362500064,"{92: 1, 26: 4, 5: 1}","[5, 26, 92]",51264921,U1Fe4B1
Pr2Fe6Co8B,mp-1199281,0.0,4.98215181,0.0336205088472487,"{59: 2, 26: 6, 27: 8, 5: 1}","[5, 26, 27, 59]",51266278592,Pr2Fe6Co8B1
Dy2Fe6Co8B,mp-1198179,0.0,4.89551404,0.0218344944669119,"{66: 2, 26: 6, 27: 8, 5: 1}","[5, 26, 27, 66]",51266278662,Dy2Fe6Co8B1
GdCoNi3B,mp-1102353,0.0,6.10276618,0.9103207606666636,"{64: 1, 27: 1, 28: 3, 5: 1}","[5, 27, 28, 64]",51271283641,Gd1Co1Ni3B1
CoBMo,mp-21347,0.0,8.0979496,0.0024559533333334,"{27: 1, 5: 1, 42: 1}","[5, 27, 42]",51271421,Co1B1Mo1
NdYCo14B,mp-1220235,0.0,4.97532788,0.0,"{60: 1, 39: 1, 27: 14, 5: 1}","[5, 27, 39, 60]",512714391601,Nd1Y1Co14B1
Y2Co14B,mp-1200125,0.0,4.96997016,0.0,"{39: 2, 27: 14, 5: 1}","[5, 27, 39]",512714392,Y2Co14B1
La2Co14B,mp-1197631,0.0,6.49169639,0.0266668431675682,"{57: 2, 27: 14, 5: 1}","[5, 27, 57]",512714572,La2Co14B1
PrNdCo14B,mp-1219868,0.0,5.03686443,0.0011550499264707,"{59: 1, 60: 1, 27: 14, 5: 1}","[5, 27, 59, 60]",512714591601,Pr1Nd1Co14B1
Nd2Co14B,mp-4164,0.0,4.82046679,0.0084473197058674,"{60: 2, 27: 14, 5: 1}","[5, 27, 60]",512714602,Nd2Co14B1
CoReB,mp-21464,0.0,8.13712115,0.0089178758333332,"{27: 1, 75: 1, 5: 1}","[5, 27, 75]",51271751,Co1Re1B1
Co2B,mp-493,0.0,6.8287012,0.0236850566666664,"{27: 2, 5: 1}","[5, 27]",51272,Co2B1
HfB12,mp-1001600,0.0,7.23419016,0.0564377711538384,"{72: 1, 5: 12}","[5, 72]",512721,Hf1B12
GdCo2Ni2B,mp-1225353,0.0,5.59869343,0.0229843171666672,"{64: 1, 27: 2, 28: 2, 5: 1}","[5, 27, 28, 64]",51272282641,Gd1Co2Ni2B1
Co3B,mp-20373,0.0,5.99285586,0.0178043374999994,"{27: 3, 5: 1}","[5, 27]",51273,Co3B1
Co4B,mp-1226103,0.0,5.91872688,0.0567050659999992,"{27: 4, 5: 1}","[5, 27]",51274,Co4B1
B12W,mp-1001602,0.0,7.64580402,0.2823633660256419,"{5: 12, 74: 1}","[5, 74]",512741,B12W1
YCo4B,mp-10463,0.0,4.97177958,0.0085646080921044,"{39: 1, 27: 4, 5: 1}","[5, 27, 39]",51274391,Y1Co4B1
LaCo4B,mp-1095566,0.0,7.11036484,0.0196739820058127,"{57: 1, 27: 4, 5: 1}","[5, 27, 57]",51274571,La1Co4B1
CeCo4B,mp-21878,0.0,6.91499608,0.0522624597916641,"{58: 1, 27: 4, 5: 1}","[5, 27, 58]",51274581,Ce1Co4B1
PrCo4B,mp-11610,0.0,5.03029475,0.0283861608870967,"{59: 1, 27: 4, 5: 1}","[5, 27, 59]",51274591,Pr1Co4B1
NdCo4B,mp-3689,0.0,4.97064771,0.021331891656974,"{60: 1, 27: 4, 5: 1}","[5, 27, 60]",51274601,Nd1Co4B1
SmCo4B,mp-1102597,0.0,5.11718891,0.0118451974019713,"{62: 1, 27: 4, 5: 1}","[5, 27, 62]",51274621,Sm1Co4B1
GdCo4B,mp-13268,0.0,5.09720911,0.0058801151960103,"{64: 1, 27: 4, 5: 1}","[5, 27, 64]",51274641,Gd1Co4B1
TbCo4B,mp-1102265,0.0,5.18217315,0.009287253072916,"{65: 1, 27: 4, 5: 1}","[5, 27, 65]",51274651,Tb1Co4B1
DyCo4B,mp-1103593,0.0,5.13375282,0.0100792463636301,"{66: 1, 27: 4, 5: 1}","[5, 27, 66]",51274661,Dy1Co4B1
HoCo4B,mp-1103652,0.0,5.02371457,0.0125752428787802,"{67: 1, 27: 4, 5: 1}","[5, 27, 67]",51274671,Ho1Co4B1
ErCo4B,mp-1103089,0.0,5.07128352,0.0154268271717121,"{68: 1, 27: 4, 5: 1}","[5, 27, 68]",51274681,Er1Co4B1
TmCo4B,mp-1102752,0.0,5.04286797,0.0156681362179496,"{69: 1, 27: 4, 5: 1}","[5, 27, 69]",51274691,Tm1Co4B1
LuCo4B,mp-1210782,0.0,4.94413888,0.0207688799583349,"{71: 1, 27: 4, 5: 1}","[5, 27, 71]",51274711,Lu1Co4B1
UCo4B,mp-1103581,0.0,8.28483404,0.028661780000009,"{92: 1, 27: 4, 5: 1}","[5, 27, 92]",51274921,U1Co4B1
NiB,mp-14019,0.0,9.34900673,0.0018463106250017,"{28: 1, 5: 1}","[5, 28]",51281,Ni1B1
NbNiB,mp-9985,0.0,6.84558963,0.0041399079885042,"{41: 1, 28: 1, 5: 1}","[5, 28, 41]",51281411,Nb1Ni1B1
TaNiB,mp-1076987,0.0,7.32545797,0.0036753742816131,"{73: 1, 28: 1, 5: 1}","[5, 28, 73]",51281731,Ta1Ni1B1
Cs2B12OF12,mp-729572,0.2689,-0.49945259,0.3830256877983551,"{55: 2, 5: 12, 8: 1, 9: 12}","[5, 8, 9, 55]",51281912552,Cs2B12O1F12
K3Na(B3O5)4,mp-1224582,5.3009,4.92429068,0.002398689344127,"{19: 3, 11: 1, 5: 12, 8: 20}","[5, 8, 11, 19]",512820111193,K3Na1B12O20
Na2Co2(B4O7)3,mp-704577,3.3019,1.47560785,0.0815172496996936,"{11: 2, 27: 2, 5: 12, 8: 21}","[5, 8, 11, 27]",512821112272,Na2Co2B12O21
Na2Cu2(B4O7)3,mp-1203872,0.6782000000000001,1.83228346,0.0061714586936929,"{11: 2, 29: 2, 5: 12, 8: 21}","[5, 8, 11, 29]",512821112292,Na2Cu2B12O21
Mg(BO2)12,mp-1201208,0.0,-1.5522478,0.2744525208558581,"{12: 1, 5: 12, 8: 24}","[5, 8, 12]",512824121,Mg1B12O24
B12Pb6O25,mp-1200351,1.4325,3.7807231,0.0616527485382052,"{5: 12, 82: 6, 8: 25}","[5, 8, 82]",512825826,B12Pb6O25
Ti5(B6O13)2,mp-684065,0.0,6.35970744,0.0328672060426349,"{22: 5, 5: 12, 8: 26}","[5, 8, 22]",512826225,Ti5B12O26
Ba2Nd2Al3(B4O9)3,mp-1202625,0.0,5.86246563,0.2725431072586524,"{56: 2, 60: 2, 13: 3, 5: 12, 8: 27}","[5, 8, 13, 56, 60]",512827133562602,Ba2Nd2Al3B12O27
Ce2B12Br2O27,mp-1228669,0.0,0.21616825,0.240241116395353,"{58: 2, 5: 12, 35: 2, 8: 27}","[5, 8, 35, 58]",512827352582,Ce2B12Br2O27
Pr2B12Br2O27,mp-1220740,0.3813,-0.02864931,0.1630110642151141,"{59: 2, 5: 12, 35: 2, 8: 27}","[5, 8, 35, 59]",512827352592,Pr2B12Br2O27
K2Co(B2O5)6,mp-1181383,0.0491999999999999,-1.20371772,0.4837134599321118,"{19: 2, 27: 1, 5: 12, 8: 30}","[5, 8, 19, 27]",512830192271,K2Co1B12O30
Ba8Al10B12O41,mp-1019529,4.4373,1.51860367,0.0,"{56: 8, 13: 10, 5: 12, 8: 41}","[5, 8, 13, 56]",5128411310568,Ba8Al10B12O41
ThB12,mp-12570,0.0,7.25664081,0.0280483503846138,"{90: 1, 5: 12}","[5, 90]",512901,Th1B12
CuBSe2,mp-983565,1.487,4.97317333,0.0,"{29: 1, 5: 1, 34: 2}","[5, 29, 34]",51291342,Cu1B1Se2
ZrCuB,mp-1100435,0.2591999999999999,4.91472103,0.342317545256412,"{40: 1, 29: 1, 5: 1}","[5, 29, 40]",51291401,Zr1Cu1B1
CuBIr,mp-28896,0.0,7.54958171,0.0,"{29: 1, 5: 1, 77: 1}","[5, 29, 77]",51291771,Cu1B1Ir1
Cs3B12AsF18,mp-1203209,2.384,-0.47552092,0.2575190166421572,"{55: 3, 5: 12, 33: 1, 9: 18}","[5, 9, 33, 55]",512918331553,Cs3B12As1F18
Ga2BSb,mp-631553,0.0,5.2202724,0.9977435483333325,"{31: 2, 5: 1, 51: 1}","[5, 31, 51]",51312511,Ga2B1Sb1
Al2Cu11B13,mp-1215060,0.0,7.33965644,0.6798339241346145,"{13: 2, 29: 11, 5: 13}","[5, 13, 29]",5131322911,Al2Cu11B13
B13P,mp-1228630,0.0,4.57062911,0.1188482147023819,"{5: 13, 15: 1}","[5, 15]",513151,B13P1
B13P2,mp-13862,0.0,5.36077042,0.958047636722224,"{5: 13, 15: 2}","[5, 15]",513152,B13P2
BaGe2B,mp-631556,0.0,4.18114695,1.1891622895312517,"{56: 1, 32: 2, 5: 1}","[5, 32, 56]",51322561,Ba1Ge2B1
Ge3B,mp-1184555,0.0,6.23275034,0.984134998958334,"{32: 3, 5: 1}","[5, 32]",51323,Ge3B1
Tb5Ge3B,mp-1190063,0.0,4.130251,0.1417710965833478,"{65: 5, 32: 3, 5: 1}","[5, 32, 65]",51323655,Tb5Ge3B1
Dy5Ge3B,mp-1181755,0.0,4.1224625,0.131702807569443,"{66: 5, 32: 3, 5: 1}","[5, 32, 66]",51323665,Dy5Ge3B1
Ta5Ge3B,mp-1189895,0.0,7.63792024,0.0015612477777793,"{73: 5, 32: 3, 5: 1}","[5, 32, 73]",51323735,Ta5Ge3B1
Y4CoB13,mp-504861,0.0,5.89721887,0.1192164183333455,"{39: 4, 27: 1, 5: 13}","[5, 27, 39]",513271394,Y4Co1B13
Gd4CoB13,mp-1198624,0.0,5.48449659,0.1572255679398111,"{64: 4, 27: 1, 5: 13}","[5, 27, 64]",513271644,Gd4Co1B13
Dy4CoB13,mp-1200694,0.0,5.81656761,0.1140679822222239,"{66: 4, 27: 1, 5: 13}","[5, 27, 66]",513271664,Dy4Co1B13
Ho4CoB13,mp-1202390,0.0,5.76739273,0.1061575642361134,"{67: 4, 27: 1, 5: 13}","[5, 27, 67]",513271674,Ho4Co1B13
Er4CoB13,mp-1202869,0.0,5.78402282,0.1007311715277792,"{68: 4, 27: 1, 5: 13}","[5, 27, 68]",513271684,Er4Co1B13
Tm4CoB13,mp-1201455,0.0,5.77138358,0.0953966168750026,"{69: 4, 27: 1, 5: 13}","[5, 27, 69]",513271694,Tm4Co1B13
Lu4CoB13,mp-20518,0.0,5.85109932,0.0877334036805574,"{71: 4, 27: 1, 5: 13}","[5, 27, 71]",513271714,Lu4Co1B13
Gd4NiB13,mp-1197241,0.0,5.70335736,0.1568040921180653,"{64: 4, 28: 1, 5: 13}","[5, 28, 64]",513281644,Gd4Ni1B13
Tb4NiB13,mp-1202802,0.0,5.88814373,0.1310759093672828,"{65: 4, 28: 1, 5: 13}","[5, 28, 65]",513281654,Tb4Ni1B13
Dy4NiB13,mp-1203435,0.0,5.93372425,0.1137358226388913,"{66: 4, 28: 1, 5: 13}","[5, 28, 66]",513281664,Dy4Ni1B13
Ho4NiB13,mp-1202173,0.0,5.89492508,0.1337761968333488,"{67: 4, 28: 1, 5: 13}","[5, 28, 67]",513281674,Ho4Ni1B13
Er4NiB13,mp-504627,0.0,5.95049205,0.0920070790277813,"{68: 4, 28: 1, 5: 13}","[5, 28, 68]",513281684,Er4Ni1B13
Tm4NiB13,mp-1203068,0.0,5.99350715,0.082318263356484,"{69: 4, 28: 1, 5: 13}","[5, 28, 69]",513281694,Tm4Ni1B13
Lu4NiB13,mp-1200891,0.0,5.99443262,0.06976270826389,"{71: 4, 28: 1, 5: 13}","[5, 28, 71]",513281714,Lu4Ni1B13
BAs,mp-10044,1.2036999999999995,5.92325565,0.0803897674999998,"{5: 1, 33: 1}","[5, 33]",51331,B1As1
Rb3BAs2,mp-9718,1.2941000000000005,0.87985452,0.0,"{37: 3, 5: 1, 33: 2}","[5, 33, 37]",51332373,Rb3B1As2
Sn2BSe,mp-631557,0.0,6.90144122,1.0610351658333317,"{50: 2, 5: 1, 34: 1}","[5, 34, 50]",51341502,Sn2B1Se1
RbBSe3,mp-10552,1.4394,1.50784018,0.0021489520166646,"{37: 1, 5: 1, 34: 3}","[5, 34, 37]",51343371,Rb1B1Se3
CsBSe3,mp-573358,1.7167,1.73894469,0.0,"{55: 1, 5: 1, 34: 3}","[5, 34, 55]",51343551,Cs1B1Se3
BBr,mp-685043,1.2319,-1.49520557,0.0128569427777769,"{5: 1, 35: 1}","[5, 35]",51351,B1Br1
Ag2BBr,mp-631581,0.0,4.1528842,1.2809010885416685,"{47: 2, 5: 1, 35: 1}","[5, 35, 47]",51351472,Ag2B1Br1
Cs4Zr6BBr17,mp-1203593,1.0312,1.5359984,0.0,"{55: 4, 40: 6, 5: 1, 35: 17}","[5, 35, 40, 55]",513517406554,Cs4Zr6B1Br17
Rb8Zr6BBr20,mp-1209464,0.0899999999999998,2.02385383,0.0,"{37: 8, 40: 6, 5: 1, 35: 20}","[5, 35, 37, 40]",513520378406,Rb8Zr6B1Br20
Y3BBr3,mp-1207808,0.0,4.15448018,0.0,"{39: 3, 5: 1, 35: 3}","[5, 35, 39]",51353393,Y3B1Br3
Y4BBr6,mp-29485,0.0,3.02359902,0.0,"{39: 4, 5: 1, 35: 6}","[5, 35, 39]",51356394,Y4B1Br6
B13N2,mp-534,0.0,8.34162047,0.1354937592777796,"{5: 13, 7: 2}","[5, 7]",51372,B13N2
Sm3B13O29,mp-1203984,0.0204999999999999,0.16423447,0.4920895367962936,"{62: 3, 5: 13, 8: 29}","[5, 8, 62]",513829623,Sm3B13O29
YBRh3,mp-29725,0.0,5.79303339,0.0,"{39: 1, 5: 1, 45: 3}","[5, 39, 45]",51391453,Y1B1Rh3
YBPd3,mp-1018643,0.0,5.08344001,0.0907750727272613,"{39: 1, 5: 1, 46: 3}","[5, 39, 46]",51391463,Y1B1Pd3
YCdB,mp-1100401,0.4316,3.00349059,0.383142056666669,"{39: 1, 48: 1, 5: 1}","[5, 39, 48]",51391481,Y1Cd1B1
YBPt2,mp-5971,0.0,5.97491908,0.0,"{39: 1, 5: 1, 78: 2}","[5, 39, 78]",51391782,Y1B1Pt2
YBPt3,mp-1018644,0.0,6.35948261,0.0956104422222239,"{39: 1, 5: 1, 78: 3}","[5, 39, 78]",51391783,Y1B1Pt3