formula,material_id,band_gap,efermi,energy_above_hull,comp_atoms,sorted_keys_comp_atoms,comp_number,new_formula
Al23B50,mp-530274,0.0,9.22014058,0.0,"{13: 23, 5: 50}","[5, 13]",5501323,Al23B50
Na3B5S9,mp-29000,3.5062999999999995,5.27984011,0.0,"{11: 3, 5: 5, 16: 9}","[5, 11, 16]",55113169,Na3B5S9
Na3B5Se9,mp-531600,2.7845000000000004,1.20791239,0.0,"{11: 3, 5: 5, 34: 9}","[5, 11, 34]",55113349,Na3B5Se9
Na3B5Pt9,mp-505055,0.0,5.81163722,0.0,"{11: 3, 5: 5, 78: 9}","[5, 11, 78]",55113789,Na3B5Pt9
Dy9B5S21,mp-1225776,1.4641000000000002,4.10425324,0.03407594427142868,"{66: 9, 5: 5, 16: 21}","[5, 16, 66]",551621669,Dy9B5S21
Ho9B5S21,mp-1224577,1.4704999999999995,4.16281472,0.03959315248571382,"{67: 9, 5: 5, 16: 21}","[5, 16, 67]",551621679,Ho9B5S21
Er9B5S21,mp-1226663,1.4741,4.14366606,0.04657418877143016,"{68: 9, 5: 5, 16: 21}","[5, 16, 68]",551621689,Er9B5S21
Tm9B5S21,mp-1217003,1.4360999999999997,4.20098374,0.05782263821785705,"{69: 9, 5: 5, 16: 21}","[5, 16, 69]",551621699,Tm9B5S21
Lu9B5S21,mp-1222906,1.3279999999999994,4.34347178,0.058251238414284146,"{71: 9, 5: 5, 16: 21}","[5, 16, 71]",551621719,Lu9B5S21
Ca2B5Os3,mp-542455,0.0,5.24891696,0.0,"{20: 2, 5: 5, 76: 3}","[5, 20, 76]",55202763,Ca2B5Os3
Zn6B5Ir11,mp-1215752,0.0,7.15461336,0.0,"{30: 6, 5: 5, 77: 11}","[5, 30, 77]",553067711,Zn6B5Ir11
B5Mo2,mp-7229,0.0,9.93901936,0.4354736101190504,"{5: 5, 42: 2}","[5, 42]",55422,B5Mo2
Hf6Zr8Ta3Ti2(Nb4B27)2,mp-2646953,0.0,8.0726967,0.004445179259256804,"{72: 6, 40: 8, 73: 3, 22: 2, 41: 8, 5: 54}","[5, 22, 40, 41, 72, 73]",554222408418726733,Hf6Zr8Ta3Ti2Nb8B54
Hf6Zr4Ta8Ti3(NbB9)6,mp-2646956,0.0,8.41325016,0.010687616790132637,"{72: 6, 40: 4, 73: 8, 22: 3, 41: 6, 5: 54}","[5, 22, 40, 41, 72, 73]",554223404416726738,Hf6Zr4Ta8Ti3Nb6B54
Hf7Zr6Ta4Ti3Nb7B54,mp-2646912,0.0,8.17646728,0.007259720370370815,"{72: 7, 40: 6, 73: 4, 22: 3, 41: 7, 5: 54}","[5, 22, 40, 41, 72, 73]",554223406417727734,Hf7Zr6Ta4Ti3Nb7B54
Hf2Zr8Ta8Ti4Nb5B54,mp-2646932,0.0,8.31826926,0.009240262345677763,"{72: 2, 40: 8, 73: 8, 22: 4, 41: 5, 5: 54}","[5, 22, 40, 41, 72, 73]",554224408415722738,Hf2Zr8Ta8Ti4Nb5B54
Hf6Zr8Ta5Ti5(NbB18)3,mp-2646934,0.0,8.11854793,0.012392294320989095,"{72: 6, 40: 8, 73: 5, 22: 5, 41: 3, 5: 54}","[5, 22, 40, 41, 72, 73]",554225408413726735,Hf6Zr8Ta5Ti5Nb3B54
Hf2Zr9Ta6Ti5Nb5B54,mp-2646916,0.0,8.20347386,0.0092509235802396,"{72: 2, 40: 9, 73: 6, 22: 5, 41: 5, 5: 54}","[5, 22, 40, 41, 72, 73]",554225409415722736,Hf2Zr9Ta6Ti5Nb5B54
B5I,mp-1182499,0.09949999999999992,3.59725354,0.6519446582870385,"{5: 5, 53: 1}","[5, 53]",55531,B5I1
Pr2B5,mp-16713,0.0,5.09814407,0.0,"{59: 2, 5: 5}","[5, 59]",55592,Pr2B5
Nd2B5,mp-567415,0.0,5.00297794,0.0,"{60: 2, 5: 5}","[5, 60]",55602,Nd2B5
Sm2B5,mp-570421,0.0,4.84152896,0.0,"{62: 2, 5: 5}","[5, 62]",55622,Sm2B5
Eu2B5Os3,mp-582389,0.0,5.22212604,0.0,"{63: 2, 5: 5, 76: 3}","[5, 63, 76]",55632763,Eu2B5Os3
Gd2B5,mp-28366,0.0,4.80748213,0.0,"{64: 2, 5: 5}","[5, 64]",55642,Gd2B5
Mg8B5IN10,mp-570132,2.6847,1.76582184,0.03103243789062482,"{12: 8, 5: 5, 53: 1, 7: 10}","[5, 7, 12, 53]",55710128531,Mg8B5I1N10
B5NO12,mp-1204898,0.12929999999999997,-1.74825787,0.7307948554745396,"{5: 5, 7: 1, 8: 12}","[5, 7, 8]",5571812,B5N1O12
LaB5NO14,mp-1203920,0.0021999999999999797,-0.18994632,0.3485478197089895,"{57: 1, 5: 5, 7: 1, 8: 14}","[5, 7, 8, 57]",5571814571,La1B5N1O14
B5W2,mp-8079,0.0,9.48425681,0.534290030119049,"{5: 5, 74: 2}","[5, 74]",55742,B5W2
B5Ir3W2,mp-1228672,0.0,8.47833827,0.0,"{5: 5, 77: 3, 74: 2}","[5, 74, 77]",55742773,B5Ir3W2
K2NaZn(BO2)5,mp-1019787,4.2332,-0.3792813,0.0,"{19: 2, 11: 1, 30: 1, 5: 5, 8: 10}","[5, 8, 11, 19, 30]",55810111192301,K2Na1Zn1B5O10
Na3Mg(BO2)5,mp-683990,4.4624999999999995,0.11416885,0.0,"{11: 3, 12: 1, 5: 5, 8: 10}","[5, 8, 11, 12]",55810113121,Na3Mg1B5O10
Na3Ca(BO2)5,mp-542719,4.556699999999999,0.57233471,0.0,"{11: 3, 20: 1, 5: 5, 8: 10}","[5, 8, 11, 20]",55810113201,Na3Ca1B5O10
Na3Zn(BO2)5,mp-560158,4.035,0.05397791,0.0,"{11: 3, 30: 1, 5: 5, 8: 10}","[5, 8, 11, 30]",55810113301,Na3Zn1B5O10
Na3Sr(BO2)5,mp-6775,4.5614,0.349205,0.0,"{11: 3, 38: 1, 5: 5, 8: 10}","[5, 8, 11, 38]",55810113381,Na3Sr1B5O10
LaMg(BO2)5,mp-557758,4.5258,3.25171951,0.0,"{57: 1, 12: 1, 5: 5, 8: 10}","[5, 8, 12, 57]",55810121571,La1Mg1B5O10
CeMg(BO2)5,mp-1213931,0.28999999999999915,6.23193339,0.0,"{58: 1, 12: 1, 5: 5, 8: 10}","[5, 8, 12, 58]",55810121581,Ce1Mg1B5O10
PrMg(BO2)5,mp-1209670,5.9464999999999995,2.21915998,0.0,"{59: 1, 12: 1, 5: 5, 8: 10}","[5, 8, 12, 59]",55810121591,Pr1Mg1B5O10
NdMg(BO2)5,mp-1210080,5.9713,2.2107821,0.0,"{60: 1, 12: 1, 5: 5, 8: 10}","[5, 8, 12, 60]",55810121601,Nd1Mg1B5O10
SmMg(BO2)5,mp-1208862,6.005599999999999,2.1929075,0.0,"{62: 1, 12: 1, 5: 5, 8: 10}","[5, 8, 12, 62]",55810121621,Sm1Mg1B5O10
EuMg(BO2)5,mp-1213294,0.011699999999999822,2.20842131,0.007094926740183638,"{63: 1, 12: 1, 5: 5, 8: 10}","[5, 8, 12, 63]",55810121631,Eu1Mg1B5O10
GdMg(BO2)5,mp-556905,2.7985999999999995,2.33582351,0.0024475181127368018,"{64: 1, 12: 1, 5: 5, 8: 10}","[5, 8, 12, 64]",55810121641,Gd1Mg1B5O10
TbMg(BO2)5,mp-1208392,6.070600000000001,2.27761494,0.0,"{65: 1, 12: 1, 5: 5, 8: 10}","[5, 8, 12, 65]",55810121651,Tb1Mg1B5O10
DyMg(BO2)5,mp-1212987,6.088900000000001,2.27064822,0.00021436477939928977,"{66: 1, 12: 1, 5: 5, 8: 10}","[5, 8, 12, 66]",55810121661,Dy1Mg1B5O10
HoMg(BO2)5,mp-1212152,6.137099999999999,2.26342074,0.011916517720578668,"{67: 1, 12: 1, 5: 5, 8: 10}","[5, 8, 12, 67]",55810121671,Ho1Mg1B5O10
ErMg(BO2)5,mp-1213132,6.1636,2.28021919,0.014839270955869566,"{68: 1, 12: 1, 5: 5, 8: 10}","[5, 8, 12, 68]",55810121681,Er1Mg1B5O10
Ca2B5ClO10,mp-1182326,2.8906,1.45520319,0.07715678322910957,"{20: 2, 5: 5, 17: 1, 8: 10}","[5, 8, 17, 20]",55810171202,Ca2B5Cl1O10
K3Zn(BO2)5,mp-1019786,4.0518,-0.49017949,0.0,"{19: 3, 30: 1, 5: 5, 8: 10}","[5, 8, 19, 30]",55810193301,K3Zn1B5O10
K3Cd(BO2)5,mp-1204785,3.8179999999999996,3.27183515,0.0,"{19: 3, 48: 1, 5: 5, 8: 10}","[5, 8, 19, 48]",55810193481,K3Cd1B5O10
LaCo(BO2)5,mp-19475,3.1157000000000004,3.49635746,0.04683061274506528,"{57: 1, 27: 1, 5: 5, 8: 10}","[5, 8, 27, 57]",55810271571,La1Co1B5O10
NdCo(BO2)5,mp-19495,4.968299999999999,2.62224851,0.03851992331291498,"{60: 1, 27: 1, 5: 5, 8: 10}","[5, 8, 27, 60]",55810271601,Nd1Co1B5O10
SmCo(BO2)5,mp-19489,5.066800000000001,2.68073817,0.04052007084968068,"{62: 1, 27: 1, 5: 5, 8: 10}","[5, 8, 27, 62]",55810271621,Sm1Co1B5O10
HoCo(BO2)5,mp-19465,3.5892000000000004,2.62531544,0.047569474158503766,"{67: 1, 27: 1, 5: 5, 8: 10}","[5, 8, 27, 67]",55810271671,Ho1Co1B5O10
Rb3Zn(BO2)5,mp-1020643,4.1752,-0.5318926,0.0,"{37: 3, 30: 1, 5: 5, 8: 10}","[5, 8, 30, 37]",55810301373,Rb3Zn1B5O10
LaZn(BO2)5,mp-1019968,4.4971,2.93470568,0.004692114852925755,"{57: 1, 30: 1, 5: 5, 8: 10}","[5, 8, 30, 57]",55810301571,La1Zn1B5O10
CeZn(BO2)5,mp-21667,0.4874999999999998,7.0021409,0.02027016257349956,"{58: 1, 30: 1, 5: 5, 8: 10}","[5, 8, 30, 58]",55810301581,Ce1Zn1B5O10
NdZn(BO2)5,mp-15519,4.9183,2.10275861,0.006188874448522341,"{60: 1, 30: 1, 5: 5, 8: 10}","[5, 8, 30, 60]",55810301601,Nd1Zn1B5O10
EuZn(BO2)5,mp-1019730,0.0,1.97872422,0.013567536004915226,"{63: 1, 30: 1, 5: 5, 8: 10}","[5, 8, 30, 63]",55810301631,Eu1Zn1B5O10
TbZn(BO2)5,mp-15520,5.0205,2.08781969,0.011412471838243121,"{65: 1, 30: 1, 5: 5, 8: 10}","[5, 8, 30, 65]",55810301651,Tb1Zn1B5O10
Rb3Cd(BO2)5,mp-1200569,3.7196,3.10667751,0.0,"{37: 3, 48: 1, 5: 5, 8: 10}","[5, 8, 37, 48]",55810373481,Rb3Cd1B5O10
Nb(BO2)5,mp-779261,3.2638,-1.18913023,0.06668504755208993,"{41: 1, 5: 5, 8: 10}","[5, 8, 41]",55810411,Nb1B5O10
LaCd(BO2)5,mp-14555,4.211,2.77689615,0.0,"{57: 1, 48: 1, 5: 5, 8: 10}","[5, 8, 48, 57]",55810481571,La1Cd1B5O10
SmCd(BO2)5,mp-14556,4.207800000000001,1.94111192,0.004875619705916989,"{62: 1, 48: 1, 5: 5, 8: 10}","[5, 8, 48, 62]",55810481621,Sm1Cd1B5O10
EuCd(BO2)5,mp-541157,4.019500000000001,1.73902472,0.0160324244607839,"{63: 1, 48: 1, 5: 5, 8: 10}","[5, 8, 48, 63]",55810481631,Eu1Cd1B5O10
In(BO2)5,mp-1188835,0.0,2.61701069,0.08896201809896098,"{49: 1, 5: 5, 8: 10}","[5, 8, 49]",55810491,In1B5O10
B5SbO10,mp-779174,2.0512,-0.16565281,0.08957452119794773,"{5: 5, 51: 1, 8: 10}","[5, 8, 51]",55810511,B5Sb1O10
Pr(BO2)5,mp-1204691,0.0,0.37523063,0.09504550861979055,"{59: 1, 5: 5, 8: 10}","[5, 8, 59]",55810591,Pr1B5O10
Na2B5O11,mp-1180492,0.0,-1.22888809,0.2805146596759531,"{11: 2, 5: 5, 8: 11}","[5, 8, 11]",55811112,Na2B5O11
LaB5BrO11,mp-1204863,0.009099999999999997,-0.07712747,0.1779126495833232,"{57: 1, 5: 5, 35: 1, 8: 11}","[5, 8, 35, 57]",55811351571,La1B5Br1O11
CeB5BrO11,mp-1198521,0.14749999999999996,-0.53350849,0.2562166889120352,"{58: 1, 5: 5, 35: 1, 8: 11}","[5, 8, 35, 58]",55811351581,Ce1B5Br1O11
LaB5IO11,mp-1205267,1.2036000000000002,1.15365944,0.07971916705248372,"{57: 1, 5: 5, 53: 1, 8: 11}","[5, 8, 53, 57]",55811531571,La1B5I1O11
PrB5IO11,mp-1201381,0.0,-0.08574828,0.16682294915741647,"{59: 1, 5: 5, 53: 1, 8: 11}","[5, 8, 53, 59]",55811531591,Pr1B5I1O11
NdB5IO11,mp-1198400,1.1162999999999998,0.60638697,0.08596215453008416,"{60: 1, 5: 5, 53: 1, 8: 11}","[5, 8, 53, 60]",55811531601,Nd1B5I1O11
RbUB5O11F,mp-1204153,0.43679999999999997,-0.33366116,0.06280628642542396,"{37: 1, 92: 1, 5: 5, 8: 11, 9: 1}","[5, 8, 9, 37, 92]",5581191371921,Rb1U1B5O11F1
UTlB5O11F,mp-1189325,0.5901000000000001,0.92813312,0.05249943040019822,"{92: 1, 81: 1, 5: 5, 8: 11, 9: 1}","[5, 8, 9, 81, 92]",5581191811921,U1Tl1B5O11F1
KB5O12,mp-1180867,0.06899999999999995,-2.00951075,0.5154408377083399,"{19: 1, 5: 5, 8: 12}","[5, 8, 19]",55812191,K1B5O12
K2SrVB5O12,mp-1200300,3.9009,-0.27602925,0.0,"{19: 2, 38: 1, 23: 1, 5: 5, 8: 12}","[5, 8, 19, 23, 38]",55812192231381,K2Sr1V1B5O12
Sc3B5O12,mp-1203138,3.7969000000000004,3.8387168,0.0,"{21: 3, 5: 5, 8: 12}","[5, 8, 21]",55812213,Sc3B5O12
La3B5O12,mp-779571,3.8196,4.00029226,0.06748879817500075,"{57: 3, 5: 5, 8: 12}","[5, 8, 57]",55812573,La3B5O12
Sm3B5O12,mp-780265,3.7350999999999996,5.89031428,0.08139507949999825,"{62: 3, 5: 5, 8: 12}","[5, 8, 62]",55812623,Sm3B5O12
Er3B5O12,mp-560278,5.3497,8.29210636,0.018498564624998437,"{68: 3, 5: 5, 8: 12}","[5, 8, 68]",55812683,Er3B5O12
Tm3B5O12,mp-558534,5.3919,3.01389658,0.0,"{69: 3, 5: 5, 8: 12}","[5, 8, 69]",55812693,Tm3B5O12
Lu3B5O12,mp-554282,5.426500000000001,3.092462,0.0012406889375018437,"{71: 3, 5: 5, 8: 12}","[5, 8, 71]",55812713,Lu3B5O12
TlB5O12,mp-1179393,0.4269,-0.48526601,0.3648185939120374,"{81: 1, 5: 5, 8: 12}","[5, 8, 81]",55812811,Tl1B5O12
Bi3B5O12,mp-23549,3.283,2.92253208,0.003499893249999886,"{83: 3, 5: 5, 8: 12}","[5, 8, 83]",55812833,Bi3B5O12
Ca3B5W8Cl2O13,mp-1215119,0.5954000000000002,2.97224122,1.0495557063844139,"{20: 3, 5: 5, 74: 8, 17: 2, 8: 13}","[5, 8, 17, 20, 74]",55813172203748,Ca3B5W8Cl2O13
Ca2B5O13,mp-1202231,0.24280000000000002,0.14528062,0.2996348942812439,"{20: 2, 5: 5, 8: 13}","[5, 8, 20]",55813202,Ca2B5O13
NaCaB5O14,mp-1204559,0.22109999999999996,-0.9340442,0.47664611853176897,"{11: 1, 20: 1, 5: 5, 8: 14}","[5, 8, 11, 20]",55814111201,Na1Ca1B5O14
K2AlB5O14,mp-1197321,0.9031999999999999,-1.42386875,0.4628045629932913,"{19: 2, 13: 1, 5: 5, 8: 14}","[5, 8, 13, 19]",55814131192,K2Al1B5O14
Ca2SiB5O14,mp-867937,0.029600000000000015,0.47735086,0.18246292064394254,"{20: 2, 14: 1, 5: 5, 8: 14}","[5, 8, 14, 20]",55814141202,Ca2Si1B5O14
Ca3La3(BO3)5,mp-6709,4.1370000000000005,3.88763277,0.0,"{20: 3, 57: 3, 5: 5, 8: 15}","[5, 8, 20, 57]",55815203573,Ca3La3B5O15
Al6B5(O5F)3,mp-6738,6.114699999999999,2.86741499,0.0,"{13: 6, 5: 5, 8: 15, 9: 3}","[5, 8, 9, 13]",5581593136,Al6B5O15F3
Al6B5O18,mp-1214854,0.46320000000000006,3.24279663,0.11604441726358328,"{13: 6, 5: 5, 8: 18}","[5, 8, 13]",55818136,Al6B5O18
Ca4Si3(BO4)5,mp-1227192,0.137,1.75856747,0.10366075957031384,"{20: 4, 14: 3, 5: 5, 8: 20}","[5, 8, 14, 20]",55820143204,Ca4Si3B5O20
Ca3B5Cl2O21,mp-1182639,0.029200000000000004,0.06929376,0.5783308116935428,"{20: 3, 5: 5, 17: 2, 8: 21}","[5, 8, 17, 20]",55821172203,Ca3B5Cl2O21
BiB5,mp-1191193,0.0,-2.80049939,1.1820314881944451,"{83: 1, 5: 5}","[5, 83]",55831,Bi1B5
Na3B5SO8,mp-560266,3.8692,1.65685331,0.005498707696081517,"{11: 3, 5: 5, 16: 1, 8: 8}","[5, 8, 11, 16]",5588113161,Na3B5S1O8
KB5O8,mp-12183,5.413600000000001,-1.76852424,0.0,"{19: 1, 5: 5, 8: 8}","[5, 8, 19]",5588191,K1B5O8
RbB5O8,mp-561814,5.9404,-1.00253795,0.0,"{37: 1, 5: 5, 8: 8}","[5, 8, 37]",5588371,Rb1B5O8
CsB5O8,mp-581194,5.9417,-1.00037207,0.0,"{55: 1, 5: 5, 8: 8}","[5, 8, 55]",5588551,Cs1B5O8
TlB5O8,mp-680122,5.1834,0.21401494,0.0,"{81: 1, 5: 5, 8: 8}","[5, 8, 81]",5588811,Tl1B5O8
NaSrB5O9,mp-561514,5.2309,0.56004502,0.0,"{11: 1, 38: 1, 5: 5, 8: 9}","[5, 8, 11, 38]",5589111381,Na1Sr1B5O9
NaB5PbO9,mp-1199541,4.586,1.18461696,0.0,"{11: 1, 5: 5, 82: 1, 8: 9}","[5, 8, 11, 82]",5589111821,Na1B5Pb1O9
Ca2B5ClO9,mp-1214176,5.2728,0.95805232,0.0,"{20: 2, 5: 5, 17: 1, 8: 9}","[5, 8, 17, 20]",5589171202,Ca2B5Cl1O9
Sr2B5ClO9,mp-557330,5.3411,0.68002521,0.0,"{38: 2, 5: 5, 17: 1, 8: 9}","[5, 8, 17, 38]",5589171382,Sr2B5Cl1O9
Eu2B5ClO9,mp-553918,0.8729000000000005,5.74679152,0.0,"{63: 2, 5: 5, 17: 1, 8: 9}","[5, 8, 17, 63]",5589171632,Eu2B5Cl1O9
B5Pb2ClO9,mp-557103,3.4890000000000003,1.97402595,0.0,"{5: 5, 82: 2, 17: 1, 8: 9}","[5, 8, 17, 82]",5589171822,B5Pb2Cl1O9
KSrB5O9,mp-556250,5.1442000000000005,0.30215102,0.0,"{19: 1, 38: 1, 5: 5, 8: 9}","[5, 8, 19, 38]",5589191381,K1Sr1B5O9
Ca2B5BrO9,mp-554056,5.2036,0.98508418,0.0,"{20: 2, 5: 5, 35: 1, 8: 9}","[5, 8, 20, 35]",5589202351,Ca2B5Br1O9
Sr2B5BrO9,mp-1209005,5.164300000000001,0.7184729,0.0,"{38: 2, 5: 5, 35: 1, 8: 9}","[5, 8, 35, 38]",5589351382,Sr2B5Br1O9
Eu2B5BrO9,mp-558834,0.8801000000000005,5.69917516,0.0,"{63: 2, 5: 5, 35: 1, 8: 9}","[5, 8, 35, 63]",5589351632,Eu2B5Br1O9
B5Pb2BrO9,mp-23623,3.4053000000000004,2.09584324,0.0,"{5: 5, 82: 2, 35: 1, 8: 9}","[5, 8, 35, 82]",5589351822,B5Pb2Br1O9
Ag3B5O9,mp-1194638,1.8021,1.78947046,0.007357592022056991,"{47: 3, 5: 5, 8: 9}","[5, 8, 47]",5589473,Ag3B5O9
B5Pb2IO9,mp-1200548,3.3111,2.8538655,0.0,"{5: 5, 82: 2, 53: 1, 8: 9}","[5, 8, 53, 82]",5589531822,B5Pb2I1O9
LaB5O9,mp-30926,4.4878,2.4835074,0.0,"{57: 1, 5: 5, 8: 9}","[5, 8, 57]",5589571,La1B5O9
B5F6,mp-30936,3.2984999999999998,-2.34113652,0.16890393159090777,"{5: 5, 9: 6}","[5, 9]",5596,B5F6
Nb2AlB6,mp-1220697,0.0,8.61917773,0.010791776485259419,"{41: 2, 13: 1, 5: 6}","[5, 13, 41]",56131412,Nb2Al1B6
Al20(CoB2)3,mp-1214905,0.0,8.69764327,0.3010312455448281,"{13: 20, 27: 3, 5: 6}","[5, 13, 27]",561320273,Al20Co3B6
Al3(Co10B3)2,mp-505537,0.0,6.46696919,0.0057081436206889435,"{13: 3, 27: 20, 5: 6}","[5, 13, 27]",561332720,Al3Co20B6
SiB6,mp-7700,0.04659999999999975,5.36431754,0.478924079642856,"{14: 1, 5: 6}","[5, 14]",56141,Si1B6
B6P,mp-28395,2.4757,5.21319273,0.0,"{5: 6, 15: 1}","[5, 15]",56151,B6P1
Ag(BCl)6,mp-567334,2.6955,0.47279786,0.0,"{47: 1, 5: 6, 17: 6}","[5, 17, 47]",56176471,Ag1B6Cl6
Cs(BCl)6,mp-570530,3.2599,-0.482149,0.0,"{55: 1, 5: 6, 17: 6}","[5, 17, 55]",56176551,Cs1B6Cl6
KB6,mp-1076,0.0,2.94515987,0.0,"{19: 1, 5: 6}","[5, 19]",56191,K1B6
CaB6,mp-865,0.0,4.7383542,0.0,"{20: 1, 5: 6}","[5, 20]",56201,Ca1B6
Ca3(B3Rh4)2,mp-569257,0.0,5.88904631,0.0,"{20: 3, 5: 6, 45: 8}","[5, 20, 45]",56203458,Ca3B6Rh8
Sc2CrB6,mp-510306,0.0,6.54052753,0.0,"{21: 2, 24: 1, 5: 6}","[5, 21, 24]",56212241,Sc2Cr1B6
Sc2(Co7B2)3,mp-1193429,0.0,5.78129458,0.030883369999995303,"{21: 2, 27: 21, 5: 6}","[5, 21, 27]",562122721,Sc2Co21B6
Sc2B6Rh,mp-569116,0.0,7.23084881,0.0,"{21: 2, 5: 6, 45: 1}","[5, 21, 45]",56212451,Sc2B6Rh1
Sc2ReB6,mp-1196116,0.0,6.71452162,0.0,"{21: 2, 75: 1, 5: 6}","[5, 21, 75]",56212751,Sc2Re1B6
Sc2B6Ir,mp-1209019,0.0,7.92947457,0.0,"{21: 2, 5: 6, 77: 1}","[5, 21, 77]",56212771,Sc2B6Ir1
K11B62,mp-685078,0.0,2.38002226,0.1613438944474881,"{19: 11, 5: 62}","[5, 19]",5621911,K11B62
Ti20(CoB2)3,mp-1208329,0.0,5.73278525,0.22245758468390697,"{22: 20, 27: 3, 5: 6}","[5, 22, 27]",562220273,Ti20Co3B6
Ti2(Co7B2)3,mp-1193707,0.0,6.06723505,0.0,"{22: 2, 27: 21, 5: 6}","[5, 22, 27]",562222721,Ti2Co21B6
Ti3(Co10B3)2,mp-1193476,0.0,6.11951319,0.0024834134482709658,"{22: 3, 27: 20, 5: 6}","[5, 22, 27]",562232720,Ti3Co20B6
V2(Co7B2)3,mp-1193908,0.0,6.10456606,0.0,"{23: 2, 27: 21, 5: 6}","[5, 23, 27]",562322721,V2Co21B6
V3(Co10B3)2,mp-1193521,0.0,6.18974731,0.0022867874137881827,"{23: 3, 27: 20, 5: 6}","[5, 23, 27]",562332720,V3Co20B6
V5B6,mp-1206441,0.0,7.90459362,0.0,"{23: 5, 5: 6}","[5, 23]",56235,V5B6
CrRe13B6,mp-1226393,0.0,8.16041779,0.011036494024992294,"{24: 1, 75: 13, 5: 6}","[5, 24, 75]",562417513,Cr1Re13B6
Cr2(Co7B2)3,mp-542727,0.0,6.1069764,0.014164327931034393,"{24: 2, 27: 21, 5: 6}","[5, 24, 27]",562422721,Cr2Co21B6
Ce(CrB3)2,mp-2873,0.0,8.56549502,0.0,"{58: 1, 24: 2, 5: 6}","[5, 24, 58]",56242581,Ce1Cr2B6
Pr(CrB3)2,mp-1095025,0.0,7.21921634,0.02004406194444286,"{59: 1, 24: 2, 5: 6}","[5, 24, 59]",56242591,Pr1Cr2B6
Nd(CrB3)2,mp-1078775,0.0,7.17034452,0.01504195888889015,"{60: 1, 24: 2, 5: 6}","[5, 24, 60]",56242601,Nd1Cr2B6
Sm(CrB3)2,mp-1079198,0.0,6.99882393,0.01813915694444468,"{62: 1, 24: 2, 5: 6}","[5, 24, 62]",56242621,Sm1Cr2B6
Th(CrB3)2,mp-9357,0.0,8.48037446,0.0,"{90: 1, 24: 2, 5: 6}","[5, 24, 90]",56242901,Th1Cr2B6
MnCo21B6Mo,mp-1221854,0.0,6.26930085,0.029583481120691424,"{25: 1, 27: 21, 5: 6, 42: 1}","[5, 25, 27, 42]",562512721421,Mn1Co21B6Mo1
Mn2(Co7B2)3,mp-1194187,0.0,6.0384727,0.031236725344829352,"{25: 2, 27: 21, 5: 6}","[5, 25, 27]",562522721,Mn2Co21B6
Nd5(MnB3)2,mp-1104018,0.0,4.79054925,0.011944154423080278,"{60: 5, 25: 2, 5: 6}","[5, 25, 60]",56252605,Nd5Mn2B6
Mn3(Co10B3)2,mp-1193450,0.0,6.19272627,0.04782074094827582,"{25: 3, 27: 20, 5: 6}","[5, 25, 27]",562532720,Mn3Co20B6
La(Co2B)6,mp-1106274,0.0,6.67208231,0.0,"{57: 1, 27: 12, 5: 6}","[5, 27, 57]",562712571,La1Co12B6
Ce(Co2B)6,mp-1205398,0.0,6.55891739,0.0,"{58: 1, 27: 12, 5: 6}","[5, 27, 58]",562712581,Ce1Co12B6
Pr(Co2B)6,mp-1105562,0.0,5.91277561,0.0,"{59: 1, 27: 12, 5: 6}","[5, 27, 59]",562712591,Pr1Co12B6
Nd(Co2B)6,mp-1105815,0.0,5.88339343,0.0,"{60: 1, 27: 12, 5: 6}","[5, 27, 60]",562712601,Nd1Co12B6
Sm(Co2B)6,mp-1105798,0.0,5.80309152,0.0,"{62: 1, 27: 12, 5: 6}","[5, 27, 62]",562712621,Sm1Co12B6
Gd(Co2B)6,mp-645286,0.0,5.84753024,0.0,"{64: 1, 27: 12, 5: 6}","[5, 27, 64]",562712641,Gd1Co12B6
Tb(Co2B)6,mp-1188842,0.0,5.87596866,0.0,"{65: 1, 27: 12, 5: 6}","[5, 27, 65]",562712651,Tb1Co12B6
Dy(Co2B)6,mp-1106057,0.0,5.88654555,0.0,"{66: 1, 27: 12, 5: 6}","[5, 27, 66]",562712661,Dy1Co12B6
Ho(Co2B)6,mp-1105128,0.0,5.85251258,0.0,"{67: 1, 27: 12, 5: 6}","[5, 27, 67]",562712671,Ho1Co12B6
Er(Co2B)6,mp-1188589,0.0,5.83449218,0.0,"{68: 1, 27: 12, 5: 6}","[5, 27, 68]",562712681,Er1Co12B6
Tm(Co2B)6,mp-1205300,0.0,5.83560829,0.0,"{69: 1, 27: 12, 5: 6}","[5, 27, 69]",562712691,Tm1Co12B6
Lu2CoB6,mp-505543,0.0,5.97168577,0.0006190608333307424,"{71: 2, 27: 1, 5: 6}","[5, 27, 71]",56271712,Lu2Co1B6
Pr5Co19B6,mp-542034,0.0,5.20313536,0.028798350909946535,"{59: 5, 27: 19, 5: 6}","[5, 27, 59]",562719595,Pr5Co19B6
Nd5Co19B6,mp-569415,0.0,5.25847972,0.020937042306199416,"{60: 5, 27: 19, 5: 6}","[5, 27, 60]",562719605,Nd5Co19B6
In3(Co10B3)2,mp-1193971,0.0,6.885312,0.056606319827587015,"{49: 3, 27: 20, 5: 6}","[5, 27, 49]",562720493,In3Co20B6
Ga2(Co7B2)3,mp-1194289,0.0,5.8615499,0.005157408793103002,"{31: 2, 27: 21, 5: 6}","[5, 27, 31]",562721312,Ga2Co21B6
Co21(GeB3)2,mp-1193515,0.0,6.32847819,0.01587558689655033,"{27: 21, 32: 2, 5: 6}","[5, 27, 32]",562721322,Co21Ge2B6
Zr2(Co7B2)3,mp-541854,0.0,5.79197215,0.013368399482759585,"{40: 2, 27: 21, 5: 6}","[5, 27, 40]",562721402,Zr2Co21B6
Nb2(Co7B2)3,mp-1192832,0.0,6.00323586,0.0,"{41: 2, 27: 21, 5: 6}","[5, 27, 41]",562721412,Nb2Co21B6
Co21(B3Mo)2,mp-542728,0.0,6.38962936,0.03009891275862131,"{27: 21, 5: 6, 42: 2}","[5, 27, 42]",562721422,Co21B6Mo2
In2(Co7B2)3,mp-1194164,0.0,6.59947488,0.02980477683908056,"{49: 2, 27: 21, 5: 6}","[5, 27, 49]",562721492,In2Co21B6
Co21(SnB3)2,mp-542739,0.0,6.75644931,0.01446574390804578,"{27: 21, 50: 2, 5: 6}","[5, 27, 50]",562721502,Co21Sn2B6
Co21(B3Sb)2,mp-505544,0.0,7.00090512,0.003955021206898834,"{27: 21, 5: 6, 51: 2}","[5, 27, 51]",562721512,Co21B6Sb2