formula,material_id,band_gap,efermi,energy_above_hull,comp_atoms,sorted_keys_comp_atoms,comp_number,new_formula
Cs3NaLi2(BO3)2,mp-607931,3.454,0.94143611,0.0,"{55: 3, 11: 1, 3: 2, 5: 2, 8: 6}","[3, 5, 8, 11, 55]",325286111553,Cs3Na1Li2B2O6
Li2Ti(BO3)2,mp-759926,2.9516,0.46083666,0.0619608040909067,"{3: 2, 22: 1, 5: 2, 8: 6}","[3, 5, 8, 22]",325286221,Li2Ti1B2O6
Li2Mn(BO3)2,mp-776779,1.743,0.24919652,0.0791977059545443,"{3: 2, 25: 1, 5: 2, 8: 6}","[3, 5, 8, 25]",325286251,Li2Mn1B2O6
Li2MnFe(BO3)2,mp-756125,2.9413,1.76012747,0.002958005624996,"{3: 2, 25: 1, 26: 1, 5: 2, 8: 6}","[3, 5, 8, 25, 26]",325286251261,Li2Mn1Fe1B2O6
Li2Fe(BO3)2,mp-1177982,0.0,1.08492509,0.0785846137765187,"{3: 2, 26: 1, 5: 2, 8: 6}","[3, 5, 8, 26]",325286261,Li2Fe1B2O6
Li2Sn(BO3)2,mp-759667,3.2075000000000005,1.37146226,0.0711362409090989,"{3: 2, 50: 1, 5: 2, 8: 6}","[3, 5, 8, 50]",325286501,Li2Sn1B2O6
Li2Bi(BO3)2,mp-768437,0.0,1.18402013,0.0687200518181834,"{3: 2, 83: 1, 5: 2, 8: 6}","[3, 5, 8, 83]",325286831,Li2Bi1B2O6
Li2Fe2B2O7,mp-779057,1.9294,1.96970692,0.0823716774999887,"{3: 2, 26: 2, 5: 2, 8: 7}","[3, 5, 8, 26]",325287262,Li2Fe2B2O7
Li2Bi2B2O7,mp-768821,2.696,2.2825882,0.0614402583333308,"{3: 2, 83: 2, 5: 2, 8: 7}","[3, 5, 8, 83]",325287832,Li2Bi2B2O7
Li2V5B3O13,mp-772588,1.5717000000000003,3.44588434,0.0437876329347659,"{3: 2, 23: 5, 5: 3, 8: 13}","[3, 5, 8, 23]",3253813235,Li2V5B3O13
Li2Fe5B3O13,mp-772565,1.4087,2.38696266,0.1074604967662988,"{3: 2, 26: 5, 5: 3, 8: 13}","[3, 5, 8, 26]",3253813265,Li2Fe5B3O13
Li2Lu5B3O13,mp-1210908,4.4597,1.2683652,0.0020799457608635,"{3: 2, 71: 5, 5: 3, 8: 13}","[3, 5, 8, 71]",3253813715,Li2Lu5B3O13
Li2Bi5B3O13,mp-768740,2.0836,3.47781557,0.0421008062500023,"{3: 2, 83: 5, 5: 3, 8: 13}","[3, 5, 8, 83]",3253813835,Li2Bi5B3O13
RbLi2V2(BO3)3,mp-772424,2.1206,1.19379451,0.0625174816544138,"{37: 1, 3: 2, 23: 2, 5: 3, 8: 9}","[3, 5, 8, 23, 37]",325389232371,Rb1Li2V2B3O9
RbLi2Cr2(BO3)3,mp-770630,2.0057,1.19591669,0.1008735786397085,"{37: 1, 3: 2, 24: 2, 5: 3, 8: 9}","[3, 5, 8, 24, 37]",325389242371,Rb1Li2Cr2B3O9
RbLi2Mn2(BO3)3,mp-770725,0.2420999999999999,0.42671164,0.0887995436764708,"{37: 1, 3: 2, 25: 2, 5: 3, 8: 9}","[3, 5, 8, 25, 37]",325389252371,Rb1Li2Mn2B3O9
Li2Mn3(BO3)3,mp-780102,0.0,1.9649998,0.0448656567647152,"{3: 2, 25: 3, 5: 3, 8: 9}","[3, 5, 8, 25]",325389253,Li2Mn3B3O9
RbLi2Fe2(BO3)3,mp-770709,1.8834,0.33543153,0.02459651598042,"{37: 1, 3: 2, 26: 2, 5: 3, 8: 9}","[3, 5, 8, 26, 37]",325389262371,Rb1Li2Fe2B3O9
Li2Fe3(BO3)3,mp-759292,0.5566,2.45678072,0.3427727686764577,"{3: 2, 26: 3, 5: 3, 8: 9}","[3, 5, 8, 26]",325389263,Li2Fe3B3O9
RbLi2Co2(BO3)3,mp-770633,1.1508,0.18485975,0.0771058818899703,"{37: 1, 3: 2, 27: 2, 5: 3, 8: 9}","[3, 5, 8, 27, 37]",325389272371,Rb1Li2Co2B3O9
RbLi2Ni2(BO3)3,mp-770719,0.6137,0.68088326,0.0806471364626544,"{37: 1, 3: 2, 28: 2, 5: 3, 8: 9}","[3, 5, 8, 28, 37]",325389282371,Rb1Li2Ni2B3O9
Li2Ni3(BO3)3,mp-1177892,0.0,1.53326219,0.1026723141176342,"{3: 2, 28: 3, 5: 3, 8: 9}","[3, 5, 8, 28]",325389283,Li2Ni3B3O9
RbLi2Ga2(BO3)3,mp-16872,3.3885,0.29663869,0.0041730504248365,"{37: 1, 3: 2, 31: 2, 5: 3, 8: 9}","[3, 5, 8, 31, 37]",325389312371,Rb1Li2Ga2B3O9
RbLi2B3Sb2O9,mp-769329,2.2755,2.35405247,0.0934876223529395,"{37: 1, 3: 2, 5: 3, 51: 2, 8: 9}","[3, 5, 8, 37, 51]",325389371512,Rb1Li2B3Sb2O9
Li2CuB4(PbO5)2,mp-1202669,0.9895,2.67553206,0.0074732198872373,"{3: 2, 29: 1, 5: 4, 82: 2, 8: 10}","[3, 5, 8, 29, 82]",3254810291822,Li2Cu1B4Pb2O10
Li2Mn3(BO3)4,mp-766516,0.4975999999999999,0.63572961,0.0966632031218823,"{3: 2, 25: 3, 5: 4, 8: 12}","[3, 5, 8, 25]",3254812253,Li2Mn3B4O12
Li2B4O7,mp-4779,5.668,0.66836281,0.0027357760576931,"{3: 2, 5: 4, 8: 7}","[3, 5, 8]",325487,Li2B4O7
Li2V(BO2)5,mp-772429,2.5921,0.63153339,0.0407926022916598,"{3: 2, 23: 1, 5: 5, 8: 10}","[3, 5, 8, 23]",3255810231,Li2V1B5O10
Li2Cr(BO2)5,mp-772433,1.9858,0.34416691,0.0791674010185037,"{3: 2, 24: 1, 5: 5, 8: 10}","[3, 5, 8, 24]",3255810241,Li2Cr1B5O10
Li2Mn(BO2)5,mp-772440,0.9682,-0.12828487,0.0520948413358475,"{3: 2, 25: 1, 5: 5, 8: 10}","[3, 5, 8, 25]",3255810251,Li2Mn1B5O10
Li2Fe(BO2)5,mp-770764,3.0402,-0.35545021,0.0195354026388914,"{3: 2, 26: 1, 5: 5, 8: 10}","[3, 5, 8, 26]",3255810261,Li2Fe1B5O10
Li2B5SbO10,mp-769374,3.399,1.83630439,0.0532450509722153,"{3: 2, 5: 5, 51: 1, 8: 10}","[3, 5, 8, 51]",3255810511,Li2B5Sb1O10
Li2Bi(BO2)5,mp-768756,3.3904,0.69778326,0.0526984949305635,"{3: 2, 83: 1, 5: 5, 8: 10}","[3, 5, 8, 83]",3255810831,Li2Bi1B5O10
K3Ba3Li2Al4B6O20F,mp-1195057,4.1017,4.59556733,0.0,"{19: 3, 56: 3, 3: 2, 13: 4, 5: 6, 8: 20, 9: 1}","[3, 5, 8, 9, 13, 19, 56]",325682091134193563,K3Ba3Li2Al4B6O20F1
Li26(B24O)3,mp-685675,0.0,2.05190571,0.0883063313747118,"{3: 26, 5: 72, 8: 3}","[3, 5, 8]",32657283,Li26B72O3
Li3FeBO4,mp-778748,3.0694000000000004,2.08345307,0.075779183888887,"{3: 3, 26: 1, 5: 1, 8: 4}","[3, 5, 8, 26]",335184261,Li3Fe1B1O4
Li3CoBO4,mp-768705,1.7308000000000003,2.29654599,0.1445880278472193,"{3: 3, 27: 1, 5: 1, 8: 4}","[3, 5, 8, 27]",335184271,Li3Co1B1O4
Li3CrBO5,mp-768521,1.5616000000000003,1.90034353,0.1048356704722257,"{3: 3, 24: 1, 5: 1, 8: 5}","[3, 5, 8, 24]",335185241,Li3Cr1B1O5
Li3FeBO5,mp-771078,0.4643,1.0470035,0.1028418410000027,"{3: 3, 26: 1, 5: 1, 8: 5}","[3, 5, 8, 26]",335185261,Li3Fe1B1O5
Li3VSiBO7,mp-771263,1.5995,1.89842004,0.0759471644230718,"{3: 3, 23: 1, 14: 1, 5: 1, 8: 7}","[3, 5, 8, 14, 23]",335187141231,Li3V1Si1B1O7
Li3CrSiBO7,mp-773206,0.6769000000000001,1.19462328,0.0861234107478718,"{3: 3, 24: 1, 14: 1, 5: 1, 8: 7}","[3, 5, 8, 14, 24]",335187141241,Li3Cr1Si1B1O7
Li3MnSiBO7,mp-755970,1.2309,1.04897163,0.0629513880384502,"{3: 3, 25: 1, 14: 1, 5: 1, 8: 7}","[3, 5, 8, 14, 25]",335187141251,Li3Mn1Si1B1O7
Li3FeSiBO7,mp-771289,0.0,1.0119708,0.0834872091025653,"{3: 3, 26: 1, 14: 1, 5: 1, 8: 7}","[3, 5, 8, 14, 26]",335187141261,Li3Fe1Si1B1O7
Li3CoSiBO7,mp-771167,0.0251999999999998,1.93982186,0.0915818034695528,"{3: 3, 27: 1, 14: 1, 5: 1, 8: 7}","[3, 5, 8, 14, 27]",335187141271,Li3Co1Si1B1O7
Li3SiSnBO7,mp-770756,3.2406999999999995,1.77333151,0.0641046490384633,"{3: 3, 14: 1, 50: 1, 5: 1, 8: 7}","[3, 5, 8, 14, 50]",335187141501,Li3Si1Sn1B1O7
Li3SiBiBO7,mp-771028,0.0,2.05535233,0.1017857751923134,"{3: 3, 14: 1, 83: 1, 5: 1, 8: 7}","[3, 5, 8, 14, 83]",335187141831,Li3Si1Bi1B1O7
Li3VBPO7,mp-768575,1.9572,1.89680164,0.0881907157692198,"{3: 3, 23: 1, 5: 1, 15: 1, 8: 7}","[3, 5, 8, 15, 23]",335187151231,Li3V1B1P1O7
Li3CrBPO7,mp-768576,3.1695999999999995,1.27832658,0.0765413084615369,"{3: 3, 24: 1, 5: 1, 15: 1, 8: 7}","[3, 5, 8, 15, 24]",335187151241,Li3Cr1B1P1O7
Li3MnBPO7,mp-757046,1.1598000000000002,1.78195842,0.0813903879046504,"{3: 3, 25: 1, 5: 1, 15: 1, 8: 7}","[3, 5, 8, 15, 25]",335187151251,Li3Mn1B1P1O7
Li3FeBPO7,mp-756319,2.3324,1.39708852,0.2347212066208799,"{3: 3, 26: 1, 5: 1, 15: 1, 8: 7}","[3, 5, 8, 15, 26]",335187151261,Li3Fe1B1P1O7
Li3CrBAsO7,mp-754292,2.627,1.03181151,0.0840678659615399,"{3: 3, 24: 1, 5: 1, 33: 1, 8: 7}","[3, 5, 8, 24, 33]",335187241331,Li3Cr1B1As1O7
Li3MnBAsO7,mp-771037,0.9887,1.62021029,0.0918132261034809,"{3: 3, 25: 1, 5: 1, 33: 1, 8: 7}","[3, 5, 8, 25, 33]",335187251331,Li3Mn1B1As1O7
Li3FeBAsO7,mp-771029,2.1952,1.14591806,0.0923926243956048,"{3: 3, 26: 1, 5: 1, 33: 1, 8: 7}","[3, 5, 8, 26, 33]",335187261331,Li3Fe1B1As1O7
Li3B(PO4)2,mp-1020022,6.1272,1.00923245,0.0131996221428556,"{3: 3, 5: 1, 15: 2, 8: 8}","[3, 5, 8, 15]",335188152,Li3B1P2O8
Li3V3(BO5)2,mp-770155,1.2932,2.60421717,0.0492075316666626,"{3: 3, 23: 3, 5: 2, 8: 10}","[3, 5, 8, 23]",3352810233,Li3V3B2O10
Li3Al(BO3)2,mp-6097,4.8248,0.92904307,0.0213789560416621,"{3: 3, 13: 1, 5: 2, 8: 6}","[3, 5, 8, 13]",335286131,Li3Al1B2O6
Li3Sc(BO3)2,mp-557012,4.1608,0.90726512,0.0022469566666654,"{3: 3, 21: 1, 5: 2, 8: 6}","[3, 5, 8, 21]",335286211,Li3Sc1B2O6
Li3Ti(BO3)2,mp-770194,0.1673,5.08112912,0.087331630464738,"{3: 3, 22: 1, 5: 2, 8: 6}","[3, 5, 8, 22]",335286221,Li3Ti1B2O6
Li3V(BO3)2,mp-772628,2.1818,2.064131,0.0391462137499907,"{3: 3, 23: 1, 5: 2, 8: 6}","[3, 5, 8, 23]",335286231,Li3V1B2O6
Li3Cr(BO3)2,mp-760283,2.8884,1.60658311,0.0404606027083316,"{3: 3, 24: 1, 5: 2, 8: 6}","[3, 5, 8, 24]",335286241,Li3Cr1B2O6
Li3Mn(BO3)2,mp-770910,0.9809,1.49434215,0.0245607829166667,"{3: 3, 25: 1, 5: 2, 8: 6}","[3, 5, 8, 25]",335286251,Li3Mn1B2O6
Li3Fe(BO3)2,mp-770825,2.1825,1.06004952,0.013018377083326,"{3: 3, 26: 1, 5: 2, 8: 6}","[3, 5, 8, 26]",335286261,Li3Fe1B2O6
Li3Co(BO3)2,mp-756335,1.1890999999999998,0.30767436,0.0628706420833271,"{3: 3, 27: 1, 5: 2, 8: 6}","[3, 5, 8, 27]",335286271,Li3Co1B2O6
Li3Ni(BO3)2,mp-770786,0.0,1.70825519,0.0497829411111165,"{3: 3, 28: 1, 5: 2, 8: 6}","[3, 5, 8, 28]",335286281,Li3Ni1B2O6
Li3Ga(BO3)2,mp-556014,4.1682,0.13798197,0.0221498768749981,"{3: 3, 31: 1, 5: 2, 8: 6}","[3, 5, 8, 31]",335286311,Li3Ga1B2O6
Li3In(BO3)2,mp-556799,3.6904,1.7821094,0.0093824640625008,"{3: 3, 49: 1, 5: 2, 8: 6}","[3, 5, 8, 49]",335286491,Li3In1B2O6
Li3Sn(BO3)2,mp-770286,1.5029,2.0401865,0.0713725169791663,"{3: 3, 50: 1, 5: 2, 8: 6}","[3, 5, 8, 50]",335286501,Li3Sn1B2O6
Li3Fe2(BO4)2,mp-759625,0.0,-0.48659777,0.1137206162666668,"{3: 3, 26: 2, 5: 2, 8: 8}","[3, 5, 8, 26]",335288262,Li3Fe2B2O8
Li3CuB3O7,mp-1194301,0.4353999999999998,1.73147902,0.045933832321432,"{3: 3, 29: 1, 5: 3, 8: 7}","[3, 5, 8, 29]",335387291,Li3Cu1B3O7
Li3MnFe2(BO3)3,mp-755332,2.7735000000000003,1.95760413,0.0044751565277749,"{3: 3, 25: 1, 26: 2, 5: 3, 8: 9}","[3, 5, 8, 25, 26]",335389251262,Li3Mn1Fe2B3O9
Li3Mn2Fe(BO3)3,mp-754791,2.9761,1.79197495,0.0026960127777719,"{3: 3, 25: 2, 26: 1, 5: 3, 8: 9}","[3, 5, 8, 25, 26]",335389252261,Li3Mn2Fe1B3O9
Li3Y2(BO3)3,mp-1211286,4.7924,1.99800286,0.0391111813235296,"{3: 3, 39: 2, 5: 3, 8: 9}","[3, 5, 8, 39]",335389392,Li3Y2B3O9
Li3La2(BO3)3,mp-1211607,4.504899999999999,3.13087227,0.0031659916176476,"{3: 3, 57: 2, 5: 3, 8: 9}","[3, 5, 8, 57]",335389572,Li3La2B3O9
Li3Ce2(BO3)3,mp-1211185,0.2344999999999997,6.37632678,0.0319940913153571,"{3: 3, 58: 2, 5: 3, 8: 9}","[3, 5, 8, 58]",335389582,Li3Ce2B3O9
Li3Nd2(BO3)3,mp-15362,4.4838000000000005,1.76566857,0.005263666764705,"{3: 3, 60: 2, 5: 3, 8: 9}","[3, 5, 8, 60]",335389602,Li3Nd2B3O9
Li3Sm2(BO3)3,mp-1211228,4.832000000000001,1.7747915,0.0121047431617578,"{3: 3, 62: 2, 5: 3, 8: 9}","[3, 5, 8, 62]",335389622,Li3Sm2B3O9
Li3Eu2(BO3)3,mp-1098016,0.0327,0.11082761,0.2640541980882354,"{3: 3, 63: 2, 5: 3, 8: 9}","[3, 5, 8, 63]",335389632,Li3Eu2B3O9
Li3Bi2(BO3)3,mp-768798,3.2060000000000004,2.87971745,0.0477127260294194,"{3: 3, 83: 2, 5: 3, 8: 9}","[3, 5, 8, 83]",335389832,Li3Bi2B3O9
Li3Mn2Fe(BO3)4,mp-766489,1.1051,1.14782458,0.0767020309090824,"{3: 3, 25: 2, 26: 1, 5: 4, 8: 12}","[3, 5, 8, 25, 26]",3354812252261,Li3Mn2Fe1B4O12
Li3Mn3(BO3)4,mp-766488,0.4958,1.25168637,0.0952824987926144,"{3: 3, 25: 3, 5: 4, 8: 12}","[3, 5, 8, 25]",3354812253,Li3Mn3B4O12
Li3Mn4(BO3)4,mp-776994,0.2097000000000002,1.98063808,0.0367654772101513,"{3: 3, 25: 4, 5: 4, 8: 12}","[3, 5, 8, 25]",3354812254,Li3Mn4B4O12
Li3Fe3(BO3)4,mp-766497,1.3764999999999998,0.96227017,0.0958878999147616,"{3: 3, 26: 3, 5: 4, 8: 12}","[3, 5, 8, 26]",3354812263,Li3Fe3B4O12
Li3Fe4(BO3)4,mp-764459,1.6637,1.8953235,0.0310369411956239,"{3: 3, 26: 4, 5: 4, 8: 12}","[3, 5, 8, 26]",3354812264,Li3Fe4B4O12
Li3Co4(BO3)4,mp-768439,0.2242000000000001,1.87843518,0.1785955091304112,"{3: 3, 27: 4, 5: 4, 8: 12}","[3, 5, 8, 27]",3354812274,Li3Co4B4O12
Li3VB4O9,mp-768885,2.7324,1.95207633,0.064370036617638,"{3: 3, 23: 1, 5: 4, 8: 9}","[3, 5, 8, 23]",335489231,Li3V1B4O9
Li3CrB4O9,mp-752710,1.7649,1.56655513,0.098401334889707,"{3: 3, 24: 1, 5: 4, 8: 9}","[3, 5, 8, 24]",335489241,Li3Cr1B4O9
Li3MnB4O9,mp-768410,0.4887999999999999,1.20403387,0.0779349459742801,"{3: 3, 25: 1, 5: 4, 8: 9}","[3, 5, 8, 25]",335489251,Li3Mn1B4O9
Li3FeB4O9,mp-752621,2.7008,0.81807214,0.0416187495955906,"{3: 3, 26: 1, 5: 4, 8: 9}","[3, 5, 8, 26]",335489261,Li3Fe1B4O9
Li3BiB4O9,mp-768715,3.6483,1.65125194,0.0607589654411837,"{3: 3, 83: 1, 5: 4, 8: 9}","[3, 5, 8, 83]",335489831,Li3Bi1B4O9
Li3V(BO2)5,mp-770344,2.4248,5.35859814,0.0688838366995572,"{3: 3, 23: 1, 5: 5, 8: 10}","[3, 5, 8, 23]",3355810231,Li3V1B5O10
Li3Mn(BO2)5,mp-768488,3.781,5.05512859,0.0511955516578943,"{3: 3, 25: 1, 5: 5, 8: 10}","[3, 5, 8, 25]",3355810251,Li3Mn1B5O10
Li3Fe(BO2)5,mp-752566,3.645,5.23774142,0.0545090377960626,"{3: 3, 26: 1, 5: 5, 8: 10}","[3, 5, 8, 26]",3355810261,Li3Fe1B5O10
Li3Co(BO2)5,mp-768669,3.0380000000000003,1.09660562,0.1172854798245586,"{3: 3, 27: 1, 5: 5, 8: 10}","[3, 5, 8, 27]",3355810271,Li3Co1B5O10
Li3Ni(BO2)5,mp-771081,3.841,5.0269243,0.0667130515131555,"{3: 3, 28: 1, 5: 5, 8: 10}","[3, 5, 8, 28]",3355810281,Li3Ni1B5O10
Li3Sn(BO2)5,mp-768284,3.761,1.21862061,0.0584343973026246,"{3: 3, 50: 1, 5: 5, 8: 10}","[3, 5, 8, 50]",3355810501,Li3Sn1B5O10
Cs2Li3(BO2)5,mp-966802,4.5354,-0.16478163,0.0065599907638889,"{55: 2, 3: 3, 5: 5, 8: 10}","[3, 5, 8, 55]",3355810552,Cs2Li3B5O10
BaNaLi3(BO2)6,mp-1019555,5.2185,0.60497691,0.0,"{56: 1, 11: 1, 3: 3, 5: 6, 8: 12}","[3, 5, 8, 11, 56]",3356812111561,Ba1Na1Li3B6O12
Li3MnB6O13,mp-779068,1.9312,0.94686226,0.0888328962564672,"{3: 3, 25: 1, 5: 6, 8: 13}","[3, 5, 8, 25]",3356813251,Li3Mn1B6O13
Li3B8O15,mp-1203033,0.0227999999999999,-0.71657612,0.1247874982211323,"{3: 3, 5: 8, 8: 15}","[3, 5, 8]",3358815,Li3B8O15
Li3MnB8O15,mp-777353,1.3799,-0.45412639,0.0827194448244661,"{3: 3, 25: 1, 5: 8, 8: 15}","[3, 5, 8, 25]",3358815251,Li3Mn1B8O15
Li3FeB8O15,mp-776601,3.1956999999999995,-0.75682279,0.0637291498148089,"{3: 3, 26: 1, 5: 8, 8: 15}","[3, 5, 8, 26]",3358815261,Li3Fe1B8O15
Li3BiB8O15,mp-777730,4.0048,-0.02114091,0.0666173227777831,"{3: 3, 83: 1, 5: 8, 8: 15}","[3, 5, 8, 83]",3358815831,Li3Bi1B8O15
Li3Fe8(BO3)8,mp-849619,1.394,2.87125962,0.0664508888590074,"{3: 3, 26: 8, 5: 8, 8: 24}","[3, 5, 8, 26]",3358824268,Li3Fe8B8O24
Li4Mn(BO3)2,mp-754416,3.5788,1.25192927,0.0115604976923062,"{3: 4, 25: 1, 5: 2, 8: 6}","[3, 5, 8, 25]",345286251,Li4Mn1B2O6
Li4Fe(BO3)2,mp-1650315,3.9647,4.91466579,0.0161284828846159,"{3: 4, 26: 1, 5: 2, 8: 6}","[3, 5, 8, 26]",345286261,Li4Fe1B2O6
Li4Co(BO3)2,mp-1177472,3.0154,0.72970253,0.0993891915384628,"{3: 4, 27: 1, 5: 2, 8: 6}","[3, 5, 8, 27]",345286271,Li4Co1B2O6
Li4Ni(BO3)2,mp-775949,3.0071,1.04380103,0.0442393596153856,"{3: 4, 28: 1, 5: 2, 8: 6}","[3, 5, 8, 28]",345286281,Li4Ni1B2O6
Li4Sn(BO3)2,mp-756045,2.5108,2.57552668,0.0798215774999997,"{3: 4, 50: 1, 5: 2, 8: 6}","[3, 5, 8, 50]",345286501,Li4Sn1B2O6
Li4MnFe2(BO3)4,mp-766479,1.6559,1.3524161,0.073932422608685,"{3: 4, 25: 1, 26: 2, 5: 4, 8: 12}","[3, 5, 8, 25, 26]",3454812251262,Li4Mn1Fe2B4O12
Li4MnFe3(BO3)4,mp-1177332,3.2617,4.97011528,0.0020249978124962,"{3: 4, 25: 1, 26: 3, 5: 4, 8: 12}","[3, 5, 8, 25, 26]",3454812251263,Li4Mn1Fe3B4O12
Li4Mn2Fe(BO3)4,mp-766490,1.3266,1.66636988,0.0799369232608544,"{3: 4, 25: 2, 26: 1, 5: 4, 8: 12}","[3, 5, 8, 25, 26]",3454812252261,Li4Mn2Fe1B4O12
Li4Mn3(BO3)4,mp-766499,0.4946999999999999,1.91133504,0.0679192667391266,"{3: 4, 25: 3, 5: 4, 8: 12}","[3, 5, 8, 25]",3454812253,Li4Mn3B4O12
Li4Mn3Fe(BO3)4,mp-755967,3.041300000000001,1.88934381,0.0057885513541586,"{3: 4, 25: 3, 26: 1, 5: 4, 8: 12}","[3, 5, 8, 25, 26]",3454812253261,Li4Mn3Fe1B4O12
Li4Fe3(BO3)4,mp-766514,1.6565,1.44060875,0.0555234580434822,"{3: 4, 26: 3, 5: 4, 8: 12}","[3, 5, 8, 26]",3454812263,Li4Fe3B4O12
Li4B4Sb2SO16,mp-768968,2.561,1.22443402,0.0941805181172723,"{3: 4, 5: 4, 51: 2, 16: 1, 8: 16}","[3, 5, 8, 16, 51]",3454816161512,Li4B4Sb2S1O16
Li4Mg23B54,mp-530613,0.0,5.47763572,0.0401498639420072,"{3: 4, 12: 23, 5: 54}","[3, 5, 12]",345541223,Li4Mg23B54
CsLi4(BO2)5,mp-1019716,4.4885,-0.65367039,0.002744449694445,"{55: 1, 3: 4, 5: 5, 8: 10}","[3, 5, 8, 55]",3455810551,Cs1Li4B5O10
Li4B7ClO12,mp-1222565,5.8739,0.43561653,0.0056763402083133,"{3: 4, 5: 7, 17: 1, 8: 12}","[3, 5, 8, 17]",3457812171,Li4B7Cl1O12
Li5B(SO4)4,mp-1020018,6.108199999999999,0.01920278,0.0082010613461518,"{3: 5, 5: 1, 16: 4, 8: 16}","[3, 5, 8, 16]",3551816164,Li5B1S4O16
Li5BO4,mp-768960,5.4569,2.02907649,0.0468486038750004,"{3: 5, 5: 1, 8: 4}","[3, 5, 8]",355184,Li5B1O4
Li5Fe2(BO4)2,mp-760269,2.0834,1.15774052,0.0594481836764693,"{3: 5, 26: 2, 5: 2, 8: 8}","[3, 5, 8, 26]",355288262,Li5Fe2B2O8
Li5Mn2Fe(BO3)4,mp-766508,0.0,2.26447549,0.0484439675520773,"{3: 5, 25: 2, 26: 1, 5: 4, 8: 12}","[3, 5, 8, 25, 26]",3554812252261,Li5Mn2Fe1B4O12
Li5Fe3(BO3)4,mp-766507,1.6586999999999998,2.31363723,0.0313286378125061,"{3: 5, 26: 3, 5: 4, 8: 12}","[3, 5, 8, 26]",3554812263,Li5Fe3B4O12
Li5Co4(BO3)4,mp-1177143,0.7533999999999996,3.27673424,0.2031055007999977,"{3: 5, 27: 4, 5: 4, 8: 12}","[3, 5, 8, 27]",3554812274,Li5Co4B4O12
Li5Cu4(BO3)4,mp-771172,0.0,2.83660706,0.1349657929499992,"{3: 5, 29: 4, 5: 4, 8: 12}","[3, 5, 8, 29]",3554812294,Li5Cu4B4O12
Li5Zn4(BO3)4,mp-756306,0.0,4.03055021,0.1092050275499998,"{3: 5, 30: 4, 5: 4, 8: 12}","[3, 5, 8, 30]",3554812304,Li5Zn4B4O12
Li5Bi2(BO3)4,mp-768452,0.0,1.35380755,0.0417794217934748,"{3: 5, 83: 2, 5: 4, 8: 12}","[3, 5, 8, 83]",3554812832,Li5Bi2B4O12
Li5Mn6(BO3)6,mp-780308,2.7241,2.18763002,0.0289037645000025,"{3: 5, 25: 6, 5: 6, 8: 18}","[3, 5, 8, 25]",3556818256,Li5Mn6B6O18
Li5Fe6(BO3)6,mp-766637,1.1128,2.1142813,0.0252834522142855,"{3: 5, 26: 6, 5: 6, 8: 18}","[3, 5, 8, 26]",3556818266,Li5Fe6B6O18
Rb2Li5(BO2)7,mp-1020664,4.2037,0.3780953,0.0078603321726244,"{37: 2, 3: 5, 5: 7, 8: 14}","[3, 5, 8, 37]",3557814372,Rb2Li5B7O14
Cs2Li5(BO2)7,mp-1019607,3.9805,0.70037292,0.0039074516170636,"{55: 2, 3: 5, 5: 7, 8: 14}","[3, 5, 8, 55]",3557814552,Cs2Li5B7O14
Li5Ca9B7O21F2,mp-1197163,4.2,5.62989143,0.0021386242207865,"{3: 5, 20: 9, 5: 7, 8: 21, 9: 2}","[3, 5, 8, 9, 20]",355782192209,Li5Ca9B7O21F2
Li5Mn8(BO3)8,mp-777359,0.0,1.75384606,0.0605747439444552,"{3: 5, 25: 8, 5: 8, 8: 24}","[3, 5, 8, 25]",3558824258,Li5Mn8B8O24
Li5Fe8(BO3)8,mp-761198,1.1154000000000002,3.14211802,0.0445282075902788,"{3: 5, 26: 8, 5: 8, 8: 24}","[3, 5, 8, 26]",3558824268,Li5Fe8B8O24
Rb5Li6(BO2)11,mp-1020620,4.1483,0.06773566,0.0052579215530341,"{37: 5, 3: 6, 5: 11, 8: 22}","[3, 5, 8, 37]",36511822375,Rb5Li6B11O22
RbLi6B2O6F,mp-1195055,4.3533,0.38000446,0.004713200624999,"{37: 1, 3: 6, 5: 2, 8: 6, 9: 1}","[3, 5, 8, 9, 37]",36528691371,Rb1Li6B2O6F1
Li6Ti(BO3)3,mp-769458,0.0257,3.68187658,0.1010279587499942,"{3: 6, 22: 1, 5: 3, 8: 9}","[3, 5, 8, 22]",365389221,Li6Ti1B3O9
Li6V(BO3)3,mp-770782,0.0,3.43764893,0.0690067890789434,"{3: 6, 23: 1, 5: 3, 8: 9}","[3, 5, 8, 23]",365389231,Li6V1B3O9
Li6Cr(BO3)3,mp-772644,2.3399,0.8020252,0.0843620125000006,"{3: 6, 24: 1, 5: 3, 8: 9}","[3, 5, 8, 24]",365389241,Li6Cr1B3O9
Li6Mn(BO3)3,mp-772526,0.9734,0.47359316,0.064125146710519,"{3: 6, 25: 1, 5: 3, 8: 9}","[3, 5, 8, 25]",365389251,Li6Mn1B3O9
Li6Fe(BO3)3,mp-772525,2.0524000000000004,0.88048279,0.0751770305263148,"{3: 6, 26: 1, 5: 3, 8: 9}","[3, 5, 8, 26]",365389261,Li6Fe1B3O9
Li6Y(BO3)3,mp-14704,4.7398,0.65583932,0.0,"{3: 6, 39: 1, 5: 3, 8: 9}","[3, 5, 8, 39]",365389391,Li6Y1B3O9
Li6Eu(BO3)3,mp-1211786,0.1316,0.68106716,0.0269352713815802,"{3: 6, 63: 1, 5: 3, 8: 9}","[3, 5, 8, 63]",365389631,Li6Eu1B3O9
Li6Gd(BO3)3,mp-16699,2.7416,0.50124436,0.002960497631574,"{3: 6, 64: 1, 5: 3, 8: 9}","[3, 5, 8, 64]",365389641,Li6Gd1B3O9
Li6Bi(BO3)3,mp-770280,3.8616,1.04685325,0.0089818707894693,"{3: 6, 83: 1, 5: 3, 8: 9}","[3, 5, 8, 83]",365389831,Li6Bi1B3O9
Li6Cu(B2O5)2,mp-1191302,1.0877,1.247423,0.0169590079761903,"{3: 6, 29: 1, 5: 4, 8: 10}","[3, 5, 8, 29]",3654810291,Li6Cu1B4O10
Li6V2B4SO16,mp-772590,1.92,1.03054136,0.0874390862930925,"{3: 6, 23: 2, 5: 4, 16: 1, 8: 16}","[3, 5, 8, 16, 23]",3654816161232,Li6V2B4S1O16
Li6Mn2B4SO16,mp-831077,1.6433999999999995,0.877256,0.0792148385689586,"{3: 6, 25: 2, 5: 4, 16: 1, 8: 16}","[3, 5, 8, 16, 25]",3654816161252,Li6Mn2B4S1O16
Li6Fe2B4SO16,mp-770526,0.0,0.72561277,0.0992328367442594,"{3: 6, 26: 2, 5: 4, 16: 1, 8: 16}","[3, 5, 8, 16, 26]",3654816161262,Li6Fe2B4S1O16
Li6Sn2B4SO16,mp-769001,3.47,1.60444823,0.0684582574999996,"{3: 6, 50: 2, 5: 4, 16: 1, 8: 16}","[3, 5, 8, 16, 50]",3654816161502,Li6Sn2B4S1O16
Li6Bi2B4SO16,mp-779482,0.1307,1.91101767,0.092580695948282,"{3: 6, 83: 2, 5: 4, 16: 1, 8: 16}","[3, 5, 8, 16, 83]",3654816161832,Li6Bi2B4S1O16