formula,material_id,band_gap,efermi,energy_above_hull,comp_atoms,sorted_keys_comp_atoms,comp_number,new_formula
NaAl6Fe3Si6B3H3O30F,mp-863003,0.7949000000000002,5.14944175,0.0091422697664009,"{11: 1, 13: 6, 26: 3, 14: 6, 5: 3, 1: 3, 8: 30, 9: 1}","[1, 5, 8, 9, 11, 13, 14, 26]",135383091111136146263,Na1Al6Fe3Si6B3H3O30F1
NaMg2Al6VSi6B3H3O31,mp-1221055,5.109,6.07133373,0.0075557525251346,"{11: 1, 12: 2, 13: 6, 23: 1, 14: 6, 5: 3, 1: 3, 8: 31}","[1, 5, 8, 11, 12, 13, 14, 23]",1353831111122136146231,Na1Mg2Al6V1Si6B3H3O31
NaFe9Si6B3H3O31,mp-1210493,0.02,3.33574417,0.0141026638738166,"{11: 1, 26: 9, 14: 6, 5: 3, 1: 3, 8: 31}","[1, 5, 8, 11, 14, 26]",1353831111146269,Na1Fe9Si6B3H3O31
Y3Al6Si6B3H3O31,mp-1207887,0.0,7.59544374,0.1228399897515934,"{39: 3, 13: 6, 14: 6, 5: 3, 1: 3, 8: 31}","[1, 5, 8, 13, 14, 39]",1353831136146393,Y3Al6Si6B3H3O31
ZnB3H3O7,mp-1196460,4.677700000000001,-0.04293205,0.0082010452678522,"{30: 1, 5: 3, 1: 3, 8: 7}","[1, 5, 8, 30]",135387301,Zn1B3H3O7
CrB3(HO3)3,mp-778931,1.778,-2.19864546,0.0516018581875004,"{24: 1, 5: 3, 1: 3, 8: 9}","[1, 5, 8, 24]",135389241,Cr1B3H3O9
B3H3SeO9,mp-778385,3.2394,-1.67590957,0.0241927460677073,"{5: 3, 1: 3, 34: 1, 8: 9}","[1, 5, 8, 34]",135389341,B3H3Se1O9
BaAlB4H3O10,mp-1195235,5.3921,0.07545494,0.0,"{56: 1, 13: 1, 5: 4, 1: 3, 8: 10}","[1, 5, 8, 13, 56]",1354810131561,Ba1Al1B4H3O10
BaGaB4H3O10,mp-1194652,4.976,-0.25867752,0.0,"{56: 1, 31: 1, 5: 4, 1: 3, 8: 10}","[1, 5, 8, 31, 56]",1354810311561,Ba1Ga1B4H3O10
Zn8B4H3O15F,mp-1215828,3.0449,-0.89369947,0.0047832361290298,"{30: 8, 5: 4, 1: 3, 8: 15, 9: 1}","[1, 5, 8, 9, 30]",135481591308,Zn8B4H3O15F1
BiB4(HO3)3,mp-1202291,4.2330000000000005,0.22498424,0.0075639211764695,"{83: 1, 5: 4, 1: 3, 8: 9}","[1, 5, 8, 83]",135489831,Bi1B4H3O9
Na2B5H3O10,mp-720312,4.9795,0.20344952,0.0048626867533005,"{11: 2, 5: 5, 1: 3, 8: 10}","[1, 5, 8, 11]",1355810112,Na2B5H3O10
CaB5H3O10,mp-757666,5.1418,0.14416091,0.0126263562105126,"{20: 1, 5: 5, 1: 3, 8: 10}","[1, 5, 8, 20]",1355810201,Ca1B5H3O10
Ca2B5H3O11,mp-1194894,5.5382,0.84176055,0.0240534239285716,"{20: 2, 5: 5, 1: 3, 8: 11}","[1, 5, 8, 20]",1355811202,Ca2B5H3O11
Sr2B5H3O11,mp-1201098,5.1638,0.62964048,0.0004428440476162,"{38: 2, 5: 5, 1: 3, 8: 11}","[1, 5, 8, 38]",1355811382,Sr2B5H3O11
YB6(HO4)3,mp-1178731,6.151999999999999,-0.04204012,0.0,"{39: 1, 5: 6, 1: 3, 8: 12}","[1, 5, 8, 39]",1356812391,Y1B6H3O12
Ba3Ge2B7H3O20,mp-1202293,0.0,0.70953942,0.0430736398159403,"{56: 3, 32: 2, 5: 7, 1: 3, 8: 20}","[1, 5, 8, 32, 56]",1357820322563,Ba3Ge2B7H3O20
Na6Mg3B9P6H3O38,mp-1198429,0.0,0.74262775,0.0586173687435973,"{11: 6, 12: 3, 5: 9, 15: 6, 1: 3, 8: 38}","[1, 5, 8, 11, 12, 15]",1359838116123156,Na6Mg3B9P6H3O38
Na6Co3B9P6H3O38,mp-1204177,0.2221000000000002,1.06295415,0.0904357864102571,"{11: 6, 27: 3, 5: 9, 15: 6, 1: 3, 8: 38}","[1, 5, 8, 11, 15, 27]",1359838116156273,Na6Co3B9P6H3O38
Na6Ni3B9P6H3O38,mp-1205268,0.7654,0.88665088,0.0756779499991111,"{11: 6, 28: 3, 5: 9, 15: 6, 1: 3, 8: 38}","[1, 5, 8, 11, 15, 28]",1359838116156283,Na6Ni3B9P6H3O38
Na6Zn3B9P6H3O38,mp-1204092,0.0,0.4201261,0.0727940735584358,"{11: 6, 30: 3, 5: 9, 15: 6, 1: 3, 8: 38}","[1, 5, 8, 11, 15, 30]",1359838116156303,Na6Zn3B9P6H3O38
NiB12(H3O)12,mp-728484,0.1085,-1.82380791,0.6630302134904378,"{28: 1, 5: 12, 1: 36, 8: 12}","[1, 5, 8, 28]",136512812281,Ni1B12H36O12
Si2B2H37C12N5,mp-1201331,3.2505,2.06822014,0.1252153354597736,"{14: 2, 5: 2, 1: 37, 6: 12, 7: 5}","[1, 5, 6, 7, 14]",1375261275142,Si2B2H37C12N5
B8P2H39RhC13,mp-1199795,2.2831,-0.82987998,0.0956679650257923,"{5: 8, 15: 2, 1: 39, 45: 1, 6: 13}","[1, 5, 6, 15, 45]",13958613152451,B8P2H39Rh1C13
AgB10P2H40C15NCl2O3,mp-1204520,2.0022,-0.73700406,0.2990053366756768,"{47: 1, 5: 10, 15: 2, 1: 40, 6: 15, 7: 1, 17: 2, 8: 3}","[1, 5, 6, 7, 8, 15, 17, 47]",1405106157183152172471,Ag1B10P2H40C15N1Cl2O3
FeB18H42C8(SN)2,mp-1226982,0.5531999999999999,-0.34885974,0.2009303446843731,"{26: 1, 5: 18, 1: 42, 6: 8, 16: 2, 7: 2}","[1, 5, 6, 7, 16, 26]",1425186872162261,Fe1B18H42C8S2N2
B20H42N4O3,mp-1202539,4.4239,3.11874849,0.1845619045516322,"{5: 20, 1: 42, 7: 4, 8: 3}","[1, 5, 7, 8]",1425207483,B20H42N4O3
MgB2H42C26(N7O3)2,mp-1199767,4.6877,2.16063233,0.2829995392527555,"{12: 1, 5: 2, 1: 42, 6: 26, 7: 14, 8: 6}","[1, 5, 6, 7, 8, 12]",1425262671486121,Mg1B2H42C26N14O6
LiBH4C2(O3F)2,mp-1196081,3.4009,-1.85544665,0.0642935609461803,"{3: 1, 5: 1, 1: 4, 6: 2, 8: 6, 9: 2}","[1, 3, 5, 6, 8, 9]",143151628692,Li1B1H4C2O6F2
LiB(HO)4,mp-23662,5.5694,-0.77171528,0.008493894875003,"{3: 1, 5: 1, 1: 4, 8: 4}","[1, 3, 5, 8]",14315184,Li1B1H4O4
Li(BH)4,mp-1211283,1.7113,-0.01388636,0.1767149546230131,"{3: 1, 5: 4, 1: 4}","[1, 3, 5]",143154,Li1B4H4
Li2B4H4O9,mp-604459,5.1172,-0.51548704,0.0115602515350818,"{3: 2, 5: 4, 1: 4, 8: 9}","[1, 3, 5, 8]",14325489,Li2B4H4O9
Li4CaB10(HO5)4,mp-1202263,4.884799999999999,0.81960322,0.0054133775555413,"{3: 4, 20: 1, 5: 10, 1: 4, 8: 20}","[1, 3, 5, 8, 20]",1434510820201,Li4Ca1B10H4O20
CsNaB10(H2O9)2,mp-1226923,5.7673000000000005,5.0135821,0.0007185972794001,"{55: 1, 11: 1, 5: 10, 1: 4, 8: 18}","[1, 5, 8, 11, 55]",14510818111551,Cs1Na1B10H4O18
Ba3Al2B10H4O23,mp-1201953,4.970899999999999,-0.00076365,0.0,"{56: 3, 13: 2, 5: 10, 1: 4, 8: 23}","[1, 5, 8, 13, 56]",14510823132563,Ba3Al2B10H4O23
Ba3Ga2B10H4O23,mp-1229265,4.7953,-0.28791826,0.0,"{56: 3, 31: 2, 5: 10, 1: 4, 8: 23}","[1, 5, 8, 31, 56]",14510823312563,Ba3Ga2B10H4O23
KZnB(H2Cl)2,mp-1105530,4.885,-2.36205056,0.0156137472685191,"{19: 1, 30: 1, 5: 1, 1: 4, 17: 2}","[1, 5, 17, 19, 30]",1451172191301,K1Zn1B1H4Cl2
FeB12(HO6)4,mp-1194745,0.0165999999999999,-1.113406,0.1146101067378033,"{26: 1, 5: 12, 1: 4, 8: 24}","[1, 5, 8, 26]",14512824261,Fe1B12H4O24
Cs2B12H4F9,mp-1213928,3.3402000000000003,-0.7460994,0.1550513733779146,"{55: 2, 5: 12, 1: 4, 9: 9}","[1, 5, 9, 55]",1451299552,Cs2B12H4F9
KBH4(CN4)2,mp-567593,4.7685,-2.19962703,0.2551826837500002,"{19: 1, 5: 1, 1: 4, 6: 2, 7: 8}","[1, 5, 6, 7, 19]",14516278191,K1B1H4C2N8
BH4C4N5,mp-1193817,6.3532,-4.08584036,0.3290769003571396,"{5: 1, 1: 4, 6: 4, 7: 5}","[1, 5, 6, 7]",14516475,B1H4C4N5
KBH4C4(N2O)4,mp-1199292,2.731,0.50100132,0.4824995752890801,"{19: 1, 5: 1, 1: 4, 6: 4, 7: 8, 8: 4}","[1, 5, 6, 7, 8, 19]",1451647884191,K1B1H4C4N8O4
TbBH4,mp-2647009,0.0,5.24926768,0.2198184588106446,"{65: 1, 5: 1, 1: 4}","[1, 5, 65]",1451651,Tb1B1H4
DyBH4,mp-2647060,0.0,5.26502593,0.2331954870383423,"{66: 1, 5: 1, 1: 4}","[1, 5, 66]",1451661,Dy1B1H4
HoBH4,mp-2647019,0.0,5.21646542,0.2508248206298908,"{67: 1, 5: 1, 1: 4}","[1, 5, 67]",1451671,Ho1B1H4
TmBH4,mp-2646998,0.0,5.26442159,0.2809371707824741,"{69: 1, 5: 1, 1: 4}","[1, 5, 69]",1451691,Tm1B1H4
BH4N,mp-27341,5.9404,-2.40936286,0.0429370870833354,"{5: 1, 1: 4, 7: 1}","[1, 5, 7]",145171,B1H4N1
BAsH4NO4F,mp-1191775,4.3662,-0.8169602,0.0464181579282394,"{5: 1, 33: 1, 1: 4, 7: 1, 8: 4, 9: 1}","[1, 5, 7, 8, 9, 33]",1451718491331,B1As1H4N1O4F1
Ge3BH4NO8,mp-1204732,3.2039,-0.12805501,0.0172783309625792,"{32: 3, 5: 1, 1: 4, 7: 1, 8: 8}","[1, 5, 7, 8, 32]",14517188323,Ge3B1H4N1O8
NaCoBP2H4O11,mp-1211027,0.1210999999999999,0.84117554,0.1515079232083369,"{11: 1, 27: 1, 5: 1, 15: 2, 1: 4, 8: 11}","[1, 5, 8, 11, 15, 27]",1451811111152271,Na1Co1B1P2H4O11
Na4Al3Ge3B(HO3)4,mp-535042,4.2134,-0.96581547,0.0498129889814835,"{11: 4, 13: 3, 32: 3, 5: 1, 1: 4, 8: 12}","[1, 5, 8, 11, 13, 32]",1451812114133323,Na4Al3Ge3B1H4O12
Na4Ga3Ge3B(HO3)4,mp-1203580,3.5638,2.07604304,0.0595504978472209,"{11: 4, 31: 3, 32: 3, 5: 1, 1: 4, 8: 12}","[1, 5, 8, 11, 31, 32]",1451812114313323,Na4Ga3Ge3B1H4O12
K6Al4Si6BH4ClO24,mp-1199737,4.5193,0.41368791,0.0042059768097875,"{19: 6, 13: 4, 14: 6, 5: 1, 1: 4, 17: 1, 8: 24}","[1, 5, 8, 13, 14, 17, 19]",1451824134146171196,K6Al4Si6B1H4Cl1O24
NaB(HO)4,mp-707419,4.873,-1.1172146,0.0061265320833356,"{11: 1, 5: 1, 1: 4, 8: 4}","[1, 5, 8, 11]",145184111,Na1B1H4O4
Na2BH4ClO4,mp-690684,4.583799999999999,-0.28511003,0.0056365436111143,"{11: 2, 5: 1, 1: 4, 17: 1, 8: 4}","[1, 5, 8, 11, 17]",145184112171,Na2B1H4Cl1O4
CuBH4ClO4,mp-1191142,0.1775999999999999,0.79553085,0.0501017473863649,"{29: 1, 5: 1, 1: 4, 17: 1, 8: 4}","[1, 5, 8, 17, 29]",145184171291,Cu1B1H4Cl1O4
Ba5B20(H2O19)2,mp-703591,0.1079999999999999,0.82606993,0.0274973698694003,"{56: 5, 5: 20, 1: 4, 8: 38}","[1, 5, 8, 56]",14520838565,Ba5B20H4O38
Ca(BH2)2,mp-1214284,0.2461999999999999,0.86139403,0.2946042601373655,"{20: 1, 5: 2, 1: 4}","[1, 5, 20]",1452201,Ca1B2H4
B2H4C,mp-29655,4.5776,-2.48347025,0.0852106171703308,"{5: 2, 1: 4, 6: 1}","[1, 5, 6]",145261,B2H4C1
CaB2(H2O3)2,mp-696618,5.5553,0.69274811,0.0150541167307691,"{20: 1, 5: 2, 1: 4, 8: 6}","[1, 5, 8, 20]",145286201,Ca1B2H4O6
B3H4,mp-29446,2.315,-2.71978786,0.1677731443526777,"{5: 3, 1: 4}","[1, 5]",1453,B3H4
Na3B3(HO2)4,mp-1203588,4.7628,0.04351065,0.0,"{11: 3, 5: 3, 1: 4, 8: 8}","[1, 5, 8, 11]",145388113,Na3B3H4O8
RbNaB4H4O13,mp-1179953,0.8300000000000001,-0.38300848,0.0301949528351368,"{37: 1, 11: 1, 5: 4, 1: 4, 8: 13}","[1, 5, 8, 11, 37]",1454813111371,Rb1Na1B4H4O13
B5H4,mp-1201949,2.8736,-4.00620817,0.3254411478556402,"{5: 5, 1: 4}","[1, 5]",1455,B5H4
B5PH4Cl,mp-758806,4.1342,-1.42707913,0.0268031869409091,"{5: 5, 15: 1, 1: 4, 17: 1}","[1, 5, 15, 17]",1455151171,B5P1H4Cl1
B5H4NO10,mp-721905,0.0,-1.77907724,0.3560049624374972,"{5: 5, 1: 4, 7: 1, 8: 10}","[1, 5, 7, 8]",145571810,B5H4N1O10
KB5(H2O5)2,mp-1199251,6.1032,4.85152267,0.0007936925568374,"{19: 1, 5: 5, 1: 4, 8: 10}","[1, 5, 8, 19]",1455810191,K1B5H4O10
Na3B5H4O11,mp-720296,4.606,0.33955042,0.0068805056340197,"{11: 3, 5: 5, 1: 4, 8: 11}","[1, 5, 8, 11]",1455811113,Na3B5H4O11
CaB5H4O9,mp-1214219,1.9247,2.97692023,0.1553612311677605,"{20: 1, 5: 5, 1: 4, 8: 9}","[1, 5, 8, 20]",145589201,Ca1B5H4O9
Ba2B6H4O13,mp-1199077,5.2372,0.99514466,0.002160702976182,"{56: 2, 5: 6, 1: 4, 8: 13}","[1, 5, 8, 56]",1456813562,Ba2B6H4O13
KB6H4(OF3)2,mp-1200547,2.7101,1.55155443,0.2267850355186329,"{19: 1, 5: 6, 1: 4, 8: 2, 9: 6}","[1, 5, 8, 9, 19]",14568296191,K1B6H4O2F6
BaB8H4O15,mp-1202880,5.6377,5.50772785,0.0,"{56: 1, 5: 8, 1: 4, 8: 15}","[1, 5, 8, 56]",1458815561,Ba1B8H4O15
Li3Ce4B12(H12Cl)4,mp-1223687,0.0584999999999999,-0.25455906,0.1311303185622057,"{3: 3, 58: 4, 5: 12, 1: 48, 17: 4}","[1, 3, 5, 17, 58]",14833512174584,Li3Ce4B12H48Cl4
SiB2H50C21N2,mp-1201311,4.3716,-1.49395842,0.0998430818682489,"{14: 1, 5: 2, 1: 50, 6: 21, 7: 2}","[1, 5, 6, 7, 14]",1505262172141,Si1B2H50C21N2
B40H51F3,mp-1247878,0.9112999999999998,-2.62831495,0.1806134100365719,"{5: 40, 1: 51, 9: 3}","[1, 5, 9]",15154093,B40H51F3
B3H52C16(NO)12,mp-699412,0.0020000000000002,-2.48370375,0.3292560234355326,"{5: 3, 1: 52, 6: 16, 7: 12, 8: 12}","[1, 5, 6, 7, 8]",15253616712812,B3H52C16N12O12
LiBH5N,mp-1196392,4.1364,-1.49019917,0.0907355858333334,"{3: 1, 5: 1, 1: 5, 7: 1}","[1, 3, 5, 7]",15315171,Li1B1H5N1
Li(BH)5,mp-941221,4.9946,-1.68748604,0.0552417815313859,"{3: 1, 5: 5, 1: 5}","[1, 3, 5]",153155,Li1B5H5
Li2(BH)5,mp-1210808,3.4535,-1.23316488,0.3371070739583341,"{3: 2, 5: 5, 1: 5}","[1, 3, 5]",153255,Li2B5H5
Li4B8H5O18,mp-1223603,0.9162,0.53838857,0.0127810867060489,"{3: 4, 5: 8, 1: 5, 8: 18}","[1, 3, 5, 8]",153458818,Li4B8H5O18
SrCaB14H5O26,mp-1210468,0.0096999999999998,-1.31779791,0.5978258726142522,"{38: 1, 20: 1, 5: 14, 1: 5, 8: 26}","[1, 5, 8, 20, 38]",15514826201381,Sr1Ca1B14H5O26
BH5CN2,mp-696210,5.4699,-2.8949046,0.1969259951388897,"{5: 1, 1: 5, 6: 1, 7: 2}","[1, 5, 6, 7]",15516172,B1H5C1N2
BH5C4(N2O)2,mp-706227,0.0069,-0.27832589,0.880366020109955,"{5: 1, 1: 5, 6: 4, 7: 4, 8: 2}","[1, 5, 6, 7, 8]",1551647482,B1H5C4N4O2
BH5NCl,mp-1106172,5.4121,-1.8079802,0.0584226138541668,"{5: 1, 1: 5, 7: 1, 17: 1}","[1, 5, 7, 17]",155171171,B1H5N1Cl1
KBH5N,mp-1203671,4.2976,3.20917102,0.1025129349479172,"{19: 1, 5: 1, 1: 5, 7: 1}","[1, 5, 7, 19]",155171191,K1B1H5N1
AlBP2H5NO9,mp-24757,5.068999999999999,1.0173083,0.0015117843969232,"{13: 1, 5: 1, 15: 2, 1: 5, 7: 1, 8: 9}","[1, 5, 7, 8, 13, 15]",15517189131152,Al1B1P2H5N1O9
FeBP2H5NO9,mp-766957,2.8005,0.55567158,0.00509029324561,"{26: 1, 5: 1, 15: 2, 1: 5, 7: 1, 8: 9}","[1, 5, 7, 8, 15, 26]",15517189152261,Fe1B1P2H5N1O9
GaBP2H5NO9,mp-1198425,4.6499,0.43938955,0.0051112858443085,"{31: 1, 5: 1, 15: 2, 1: 5, 7: 1, 8: 9}","[1, 5, 7, 8, 15, 31]",15517189152311,Ga1B1P2H5N1O9
BH5(NF2)2,mp-706612,6.5929,-1.97772667,0.1038695178124626,"{5: 1, 1: 5, 7: 2, 9: 4}","[1, 5, 7, 9]",15517294,B1H5N2F4
CaCoBP2H5O11,mp-1199897,3.3187000000000006,1.17449395,0.0317623816269874,"{20: 1, 27: 1, 5: 1, 15: 2, 1: 5, 8: 11}","[1, 5, 8, 15, 20, 27]",1551811152201271,Ca1Co1B1P2H5O11
Cu2BH5O6,mp-558794,0.0409000000000001,1.86211099,0.0498924892857113,"{29: 2, 5: 1, 1: 5, 8: 6}","[1, 5, 8, 29]",155186292,Cu2B1H5O6
B2H5,mp-27990,6.2615,-4.03449094,0.0070535537500004,"{5: 2, 1: 5}","[1, 5]",1552,B2H5
NaB2H5O6,mp-706629,5.2761,-1.29207717,0.0096582835565586,"{11: 1, 5: 2, 1: 5, 8: 6}","[1, 5, 8, 11]",155286111,Na1B2H5O6
B3H5,mp-569405,3.6391,-2.63229778,0.0116127275047341,"{5: 3, 1: 5}","[1, 5]",1553,B3H5
B3H5N3,mp-1214811,4.8954,1.92818024,0.0188441734090911,"{5: 3, 1: 5, 7: 3}","[1, 5, 7]",155373,B3H5N3
CaB3H5O8,mp-560899,5.5945,0.64948834,0.0098115024999767,"{20: 1, 5: 3, 1: 5, 8: 8}","[1, 5, 8, 20]",155388201,Ca1B3H5O8
B4H5,mp-27798,2.8803,-2.1005293,0.0123538504340281,"{5: 4, 1: 5}","[1, 5]",1554,B4H5
Na(BH)5,mp-776332,4.6683,-1.35213925,0.0766246372113368,"{11: 1, 5: 5, 1: 5}","[1, 5, 11]",1555111,Na1B5H5
K(BH)5,mp-24270,4.4587,-1.19671541,0.0643049107765145,"{19: 1, 5: 5, 1: 5}","[1, 5, 19]",1555191,K1B5H5
B5TeH5C,mp-1203749,2.1558,2.11331642,0.0401083708216098,"{5: 5, 52: 1, 1: 5, 6: 1}","[1, 5, 6, 52]",155561521,B5Te1H5C1
Na2B5H5O11,mp-720593,4.9627,-0.35572271,0.0124569871281723,"{11: 2, 5: 5, 1: 5, 8: 11}","[1, 5, 8, 11]",1555811112,Na2B5H5O11
K2B5H5O11,mp-707775,4.8926,-0.67007852,0.0154965338587071,"{19: 2, 5: 5, 1: 5, 8: 11}","[1, 5, 8, 19]",1555811192,K2B5H5O11
Na2B5H5O12,mp-720406,0.0684,-0.77430328,0.1131960787061459,"{11: 2, 5: 5, 1: 5, 8: 12}","[1, 5, 8, 11]",1555812112,Na2B5H5O12
Ca2SiB5H5O14,mp-850516,5.409000000000001,1.13267333,0.0022094150617295,"{20: 2, 14: 1, 5: 5, 1: 5, 8: 14}","[1, 5, 8, 14, 20]",1555814141202,Ca2Si1B5H5O14
Ca4Si3B5(HO4)5,mp-1227188,5.4639,2.20500552,0.0090194500675631,"{20: 4, 14: 3, 5: 5, 1: 5, 8: 20}","[1, 5, 8, 14, 20]",1555820143204,Ca4Si3B5H5O20
K2B6H5NO2,mp-722910,1.7669,-0.89398295,0.6188287647144088,"{19: 2, 5: 6, 1: 5, 7: 1, 8: 2}","[1, 5, 7, 8, 19]",15567182192,K2B6H5N1O2
B2P6H60Ir2C18O3F8,mp-1229246,1.0734,0.6990176,0.0712604626536084,"{5: 2, 15: 6, 1: 60, 77: 2, 6: 18, 8: 3, 9: 8}","[1, 5, 6, 8, 9, 15, 77]",160526188398156772,B2P6H60Ir2C18O3F8
B3H60C16(NO)12,mp-677715,0.0,1.90629744,0.1652028562269389,"{5: 3, 1: 60, 6: 16, 7: 12, 8: 12}","[1, 5, 6, 7, 8]",16053616712812,B3H60C16N12O12
LiBH6N,mp-1202697,5.7189,3.05847216,0.1672947271759248,"{3: 1, 5: 1, 1: 6, 7: 1}","[1, 3, 5, 7]",16315171,Li1B1H6N1
LiBH6O,mp-1203666,6.4335,2.25333794,0.1092477784722225,"{3: 1, 5: 1, 1: 6, 8: 1}","[1, 3, 5, 8]",16315181,Li1B1H6O1
LiNiBP2H6O11,mp-1212004,0.0,5.36993126,0.0133275929166654,"{3: 1, 28: 1, 5: 1, 15: 2, 1: 6, 8: 11}","[1, 3, 5, 8, 15, 28]",163151811152281,Li1Ni1B1P2H6O11
Ba3Li2B10(H3O11)2,mp-1197500,5.4423,0.83815386,0.0021803773384965,"{56: 3, 3: 2, 5: 10, 1: 6, 8: 22}","[1, 3, 5, 8, 56]",1632510822563,Ba3Li2B10H6O22
Li2BH6N,mp-1180702,4.2075,-2.07461711,0.0798410026666669,"{3: 2, 5: 1, 1: 6, 7: 1}","[1, 3, 5, 7]",16325171,Li2B1H6N1
CdB10H6O19,mp-1195283,4.497,3.78557447,0.0072327606944444,"{48: 1, 5: 10, 1: 6, 8: 19}","[1, 5, 8, 48]",16510819481,Cd1B10H6O19
GaBH6,mp-30150,4.921,-3.59225012,0.0513880765104168,"{31: 1, 5: 1, 1: 6}","[1, 5, 31]",1651311,Ga1B1H6
SiBH6C2NCl2,mp-1204978,5.1282,-2.09392041,0.0381033192911601,"{14: 1, 5: 1, 1: 6, 6: 2, 7: 1, 17: 2}","[1, 5, 6, 7, 14, 17]",16516271141172,Si1B1H6C2N1Cl2
BH6C2N5F4,mp-1199055,4.3443000000000005,3.89056381,0.0407754056944531,"{5: 1, 1: 6, 6: 2, 7: 5, 9: 4}","[1, 5, 6, 7, 9]",1651627594,B1H6C2N5F4
BH6N,mp-1105968,6.0173000000000005,-2.26105717,0.0469341006250001,"{5: 1, 1: 6, 7: 1}","[1, 5, 7]",165171,B1H6N1
Mg2BP3(H3O7)2,mp-553891,5.2063,0.87689936,0.0025709050354132,"{12: 2, 5: 1, 15: 3, 1: 6, 8: 14}","[1, 5, 8, 12, 15]",1651814122153,Mg2B1P3H6O14
Co2BP3(H3O7)2,mp-1214582,3.0194,4.10595216,0.0227422976923099,"{27: 2, 5: 1, 15: 3, 1: 6, 8: 14}","[1, 5, 8, 15, 27]",1651814153272,Co2B1P3H6O14
MgBP(H3O4)2,mp-758868,5.3032,0.23087027,0.0005753741421559,"{12: 1, 5: 1, 15: 1, 1: 6, 8: 8}","[1, 5, 8, 12, 15]",165188121151,Mg1B1P1H6O8
Mg(BH3)2,mp-1202722,5.4818,-4.32585555,0.0344478850000005,"{12: 1, 5: 2, 1: 6}","[1, 5, 12]",1652121,Mg1B2H6
Co7B24(H3O23)2,mp-1197918,2.9523,6.04326305,0.0793439608366828,"{27: 7, 5: 24, 1: 6, 8: 46}","[1, 5, 8, 27]",16524846277,Co7B24H6O46
Ba11B26P2(H3O29)2,mp-1195112,4.487,1.46209596,0.0,"{56: 11, 5: 26, 15: 2, 1: 6, 8: 58}","[1, 5, 8, 15, 56]",165268581525611,Ba11B26P2H6O58
CuB2P2(HO2)6,mp-1200514,1.206,0.63130597,0.0162994520169048,"{29: 1, 5: 2, 15: 2, 1: 6, 8: 12}","[1, 5, 8, 15, 29]",1652812152291,Cu1B2P2H6O12
MgB2H6O7,mp-706910,5.412599999999999,0.56934576,0.0281039625000056,"{12: 1, 5: 2, 1: 6, 8: 7}","[1, 5, 8, 12]",165287121,Mg1B2H6O7
KB3(H3O4)2,mp-707961,4.0008,-1.88754202,0.4673135647221977,"{19: 1, 5: 3, 1: 6, 8: 8}","[1, 5, 8, 19]",165388191,K1B3H6O8
Ca4MgB4H6(CO9)2,mp-697563,4.2989,1.58549668,0.0476334609285693,"{20: 4, 12: 1, 5: 4, 1: 6, 6: 2, 8: 18}","[1, 5, 6, 8, 12, 20]",165462818121204,Ca4Mg1B4H6C2O18
K(BH)6,mp-24239,5.5284,-2.52744351,0.0,"{19: 1, 5: 6, 1: 6}","[1, 5, 19]",1656191,K1B6H6
AlB6H6(CCl3)2,mp-1205009,3.3489,-1.10745167,0.015050124557387,"{13: 1, 5: 6, 1: 6, 6: 2, 17: 6}","[1, 5, 6, 13, 17]",165662131176,Al1B6H6C2Cl6
Tl(BH)6,mp-23691,4.5269,-1.30079993,0.0,"{81: 1, 5: 6, 1: 6}","[1, 5, 81]",1656811,Tl1B6H6
Na2Al17Si11B7(H3O31)2,mp-534773,4.069699999999999,4.0900915,0.0207357670453491,"{11: 2, 13: 17, 14: 11, 5: 7, 1: 6, 8: 62}","[1, 5, 8, 11, 13, 14]",165786211213171411,Na2Al17Si11B7H6O62
LiBH7N,mp-1203555,5.643,1.66836161,0.0446098807500039,"{3: 1, 5: 1, 1: 7, 7: 1}","[1, 3, 5, 7]",17315171,Li1B1H7N1
Li2(BH)7,mp-1210763,4.5411,3.33965028,0.1469809121651772,"{3: 2, 5: 7, 1: 7}","[1, 3, 5]",173257,Li2B7H7
Ba4GaB10H7O24,mp-1195660,4.3361,1.12160736,0.0018229750543463,"{56: 4, 31: 1, 5: 10, 1: 7, 8: 24}","[1, 5, 8, 31, 56]",17510824311564,Ba4Ga1B10H7O24
Ba2B11H7O22,mp-1196038,5.657,5.30426811,0.0,"{56: 2, 5: 11, 1: 7, 8: 22}","[1, 5, 8, 56]",17511822562,Ba2B11H7O22
BH7C2N4OF4,mp-1198829,5.0921,3.25230335,0.0146020328508731,"{5: 1, 1: 7, 6: 2, 7: 4, 8: 1, 9: 4}","[1, 5, 6, 7, 8, 9]",175162748194,B1H7C2N4O1F4
BH7N2,mp-27612,5.6370000000000005,-2.2133666,0.235095904000004,"{5: 1, 1: 7, 7: 2}","[1, 5, 7]",175172,B1H7N2
MgB2H7,mp-1202883,3.9014,-3.62208196,0.0489609556666668,"{12: 1, 5: 2, 1: 7}","[1, 5, 12]",1752121,Mg1B2H7
AlB2P2H7O13,mp-1200535,2.5429000000000004,3.31353578,0.2300390463333528,"{13: 1, 5: 2, 15: 2, 1: 7, 8: 13}","[1, 5, 8, 13, 15]",1752813131152,Al1B2P2H7O13
B3H7CO,mp-696308,4.0448,-3.25141263,0.2935552467997606,"{5: 3, 1: 7, 6: 1, 8: 1}","[1, 5, 6, 8]",17536181,B3H7C1O1
Fe2B3H7(CO)6,mp-863008,3.6599,-1.35967763,0.8161891857291677,"{26: 2, 5: 3, 1: 7, 6: 6, 8: 6}","[1, 5, 6, 8, 26]",17536686262,Fe2B3H7C6O6
CaB3H7O9,mp-720430,5.4108,-0.48010201,0.0049309519999898,"{20: 1, 5: 3, 1: 7, 8: 9}","[1, 5, 8, 20]",175389201,Ca1B3H7O9
B5H7S,mp-1197387,2.0846,0.69986666,0.1074980548603061,"{5: 5, 1: 7, 16: 1}","[1, 5, 16]",1755161,B5H7S1
La2B5H7(C2O7)2,mp-1195834,4.326,4.69047469,0.0531722270937393,"{57: 2, 5: 5, 1: 7, 6: 4, 8: 14}","[1, 5, 6, 8, 57]",175564814572,La2B5H7C4O14
CeB5H7NO15,mp-1198651,0.2798999999999996,3.03867017,0.0309076203160918,"{58: 1, 5: 5, 1: 7, 7: 1, 8: 15}","[1, 5, 7, 8, 58]",175571815581,Ce1B5H7N1O15
Ca2B5H7O13,mp-1197116,5.7199,6.27441966,0.0065715043518546,"{20: 2, 5: 5, 1: 7, 8: 13}","[1, 5, 8, 20]",1755813202,Ca2B5H7O13
B6H7O6,mp-1197106,2.1929,3.76537392,0.2485988629385973,"{5: 6, 1: 7, 8: 6}","[1, 5, 8]",175686,B6H7O6
SmB7H7O17,mp-1219420,0.1217,-0.69398082,0.114509895384101,"{62: 1, 5: 7, 1: 7, 8: 17}","[1, 5, 8, 62]",1757817621,Sm1B7H7O17