formula,material_id,band_gap,efermi,energy_above_hull,comp_atoms,sorted_keys_comp_atoms,comp_number,new_formula
NaLiB2(H5N)2,mp-1203079,4.0857,2.6281151,0.099076751145831,"{11: 1, 3: 1, 5: 2, 1: 10, 7: 2}","[1, 3, 5, 7, 11]",110315272111,Na1Li1B2H10N2
LiB6(H5O)2,mp-1198595,5.3429,3.30550538,0.1210538574814403,"{3: 1, 5: 6, 1: 10, 8: 2}","[1, 3, 5, 8]",110315682,Li1B6H10O2
Li4BH10N3,mp-1201205,3.588,-1.42426133,0.0591648056944453,"{3: 4, 5: 1, 1: 10, 7: 3}","[1, 3, 5, 7]",110345173,Li4B1H10N3
CsAg(BH)10,mp-699468,3.9226,-0.67417029,0.086146454548909,"{55: 1, 47: 1, 5: 10, 1: 10}","[1, 5, 47, 55]",110510471551,Cs1Ag1B10H10
SiB11H10C4F11,mp-559162,3.4362,-1.59557363,0.0995255475744976,"{14: 1, 5: 11, 1: 10, 6: 4, 9: 11}","[1, 5, 6, 9, 14]",11051164911141,Si1B11H10C4F11
MnB12(H5O12)2,mp-1194831,4.6582,0.54475686,0.0033852284929167,"{25: 1, 5: 12, 1: 10, 8: 24}","[1, 5, 8, 25]",110512824251,Mn1B12H10O24
ZnB12(H5O12)2,mp-1195627,5.783799999999999,-0.63100536,0.0050514002748309,"{30: 1, 5: 12, 1: 10, 8: 24}","[1, 5, 8, 30]",110512824301,Zn1B12H10O24
BH10C2N,mp-1203788,5.7052,1.85191032,0.1817615333928568,"{5: 1, 1: 10, 6: 2, 7: 1}","[1, 5, 6, 7]",110516271,B1H10C2N1
BH10C2N5O3,mp-734069,4.5377,-0.65273617,0.0115088102381086,"{5: 1, 1: 10, 6: 2, 7: 5, 8: 3}","[1, 5, 6, 7, 8]",11051627583,B1H10C2N5O3
BH10C3NF4,mp-1204293,7.2814,-4.03363401,0.0724014034868263,"{5: 1, 1: 10, 6: 3, 7: 1, 9: 4}","[1, 5, 6, 7, 9]",11051637194,B1H10C3N1F4
CaB2(H5N)2,mp-1103502,3.7871,-0.56073939,0.0838772671111103,"{20: 1, 5: 2, 1: 10, 7: 2}","[1, 5, 7, 20]",1105272201,Ca1B2H10N2
MnB2P3H10N2ClO13,mp-1195729,4.4006,1.2816053,0.0015175310131798,"{25: 1, 5: 2, 15: 3, 1: 10, 7: 2, 17: 1, 8: 13}","[1, 5, 7, 8, 15, 17, 25]",1105272813153171251,Mn1B2P3H10N2Cl1O13
CaB2H10O,mp-1198143,5.4184,2.27099685,0.150529329508914,"{20: 1, 5: 2, 1: 10, 8: 1}","[1, 5, 8, 20]",1105281201,Ca1B2H10O1
BaB2H10O9,mp-1182666,1.0013,-1.47672159,0.3391005365151649,"{56: 1, 5: 2, 1: 10, 8: 9}","[1, 5, 8, 56]",1105289561,Ba1B2H10O9
B3H10N,mp-1196163,5.9859,-3.79947284,0.1139301795357141,"{5: 3, 1: 10, 7: 1}","[1, 5, 7]",1105371,B3H10N1
NaB5H10O13,mp-540721,5.6657,-1.78590995,0.0019217801724149,"{11: 1, 5: 5, 1: 10, 8: 13}","[1, 5, 8, 11]",11055813111,Na1B5H10O13
NaCaB5(H5O7)2,mp-707788,4.6955,-0.23681019,0.0072865477419252,"{11: 1, 20: 1, 5: 5, 1: 10, 8: 14}","[1, 5, 8, 11, 20]",11055814111201,Na1Ca1B5H10O14
B6H10C2SBr,mp-849797,4.5166,-1.24942919,0.0231395399967384,"{5: 6, 1: 10, 6: 2, 16: 1, 35: 1}","[1, 5, 6, 16, 35]",1105662161351,B6H10C2S1Br1
MgB6(H2O3)5,mp-1195993,4.9457,4.14080791,0.0250342384609387,"{12: 1, 5: 6, 1: 10, 8: 15}","[1, 5, 8, 12]",11056815121,Mg1B6H10O15
B7H10,mp-27820,2.5117,-1.91165352,0.0319915280213898,"{5: 7, 1: 10}","[1, 5]",11057,B7H10
B8H10N,mp-733481,0.3415999999999999,-1.06958125,0.2531581695614031,"{5: 8, 1: 10, 7: 1}","[1, 5, 7]",1105871,B8H10N1
NaB9H10C,mp-2646917,5.2004,-2.12017698,0.0444443513828032,"{11: 1, 5: 9, 1: 10, 6: 1}","[1, 5, 6, 11]",1105961111,Na1B9H10C1
LiB2H11N2,mp-1196441,4.508900000000001,-1.6068041,0.0724705604687487,"{3: 1, 5: 2, 1: 11, 7: 2}","[1, 3, 5, 7]",111315272,Li1B2H11N2
Li2(BH)11,mp-1210701,3.8953,2.05271529,0.0981073966220211,"{3: 2, 5: 11, 1: 11}","[1, 3, 5]",11132511,Li2B11H11
B11H11C4SI10NF,mp-1199984,2.213,0.70220235,0.051445636662744,"{5: 11, 1: 11, 6: 4, 16: 1, 53: 10, 7: 1, 9: 1}","[1, 5, 6, 7, 9, 16, 53]",1115116471911615310,B11H11C4S1I10N1F1
BH11C4NClF4,mp-559235,6.373200000000001,-2.42684134,0.1133172901704533,"{5: 1, 1: 11, 6: 4, 7: 1, 17: 1, 9: 4}","[1, 5, 6, 7, 9, 17]",11151647194171,B1H11C4N1Cl1F4
BH11C4BrNF4,mp-554318,5.1176,-1.89366817,0.1113164828977266,"{5: 1, 1: 11, 6: 4, 35: 1, 7: 1, 9: 4}","[1, 5, 6, 7, 9, 35]",11151647194351,B1H11C4Br1N1F4
BH11AuC4IN2,mp-698289,1.9587,0.09435819,0.2317276152812484,"{5: 1, 1: 11, 79: 1, 6: 4, 53: 1, 7: 2}","[1, 5, 6, 7, 53, 79]",111516472531791,B1H11Au1C4I1N2
B5H11,mp-30529,4.6651,-3.65111586,0.0221942086576714,"{5: 5, 1: 11}","[1, 5]",11155,B5H11
B5H11N2,mp-27892,3.8593,-0.24607977,0.1129380675833351,"{5: 5, 1: 11, 7: 2}","[1, 5, 7]",1115572,B5H11N2
LiB(H3N)4,mp-1201648,5.2719000000000005,2.80272208,0.2339685379629621,"{3: 1, 5: 1, 1: 12, 7: 4}","[1, 3, 5, 7]",112315174,Li1B1H12N4
LiZn(BH4)3,mp-1204713,4.8749,-3.457036,0.0278867753676541,"{3: 1, 30: 1, 5: 3, 1: 12}","[1, 3, 5, 30]",1123153301,Li1Zn1B3H12
Sn4HgB44H124C24(N4Cl)2,mp-1200316,2.3413,-1.58375935,0.1714862126637122,"{50: 4, 80: 1, 5: 44, 1: 124, 6: 24, 7: 8, 17: 2}","[1, 5, 6, 7, 17, 50, 80]",112454462478172504801,Sn4Hg1B44H124C24N8Cl2
B10H12C3O2,mp-1199710,4.7316,1.61714392,0.2344118787577178,"{5: 10, 1: 12, 6: 3, 8: 2}","[1, 5, 6, 8]",1125106382,B10H12C3O2
NaB11H12C,mp-2646947,5.7094000000000005,-2.62415783,0.0589105642807243,"{11: 1, 5: 11, 1: 12, 6: 1}","[1, 5, 6, 11]",11251161111,Na1B11H12C1
Rb3B12H12Cl,mp-24798,4.954000000000001,-1.29506375,0.0824027671428559,"{37: 3, 5: 12, 1: 12, 17: 1}","[1, 5, 17, 37]",112512171373,Rb3B12H12Cl1
Cs3B12H12Cl,mp-24799,4.9577,-0.96204584,0.0788143549999995,"{55: 3, 5: 12, 1: 12, 17: 1}","[1, 5, 17, 55]",112512171553,Cs3B12H12Cl1
K3B12H12Br,mp-510549,4.7872,-1.16279457,0.0853711721428576,"{19: 3, 5: 12, 1: 12, 35: 1}","[1, 5, 19, 35]",112512193351,K3B12H12Br1
K3B12H12I,mp-24240,4.6690000000000005,-0.76810937,0.085748146428572,"{19: 3, 5: 12, 1: 12, 53: 1}","[1, 5, 19, 53]",112512193531,K3B12H12I1
Rb3B12H12Br,mp-24796,4.7451,-1.26936135,0.0800714192857148,"{37: 3, 5: 12, 1: 12, 35: 1}","[1, 5, 35, 37]",112512351373,Rb3B12H12Br1
Cs3B12H12Br,mp-542819,4.7566,-0.87356941,0.0773915407142844,"{55: 3, 5: 12, 1: 12, 35: 1}","[1, 5, 35, 55]",112512351553,Cs3B12H12Br1
Rb3B12H12I,mp-24241,4.6171,-0.80725602,0.0825726610714276,"{37: 3, 5: 12, 1: 12, 53: 1}","[1, 5, 37, 53]",112512373531,Rb3B12H12I1
Ba(BH)12,mp-1203559,5.8133,-2.5129335,0.0,"{56: 1, 5: 12, 1: 12}","[1, 5, 56]",112512561,Ba1B12H12
BaB12(H2O)6,mp-1201057,0.0,-2.49778159,0.940081092642668,"{56: 1, 5: 12, 1: 12, 8: 6}","[1, 5, 8, 56]",11251286561,Ba1B12H12O6
CaB12(H3O2)4,mp-699475,0.0313000000000001,-1.27522654,0.881792809124307,"{20: 1, 5: 12, 1: 12, 8: 8}","[1, 5, 8, 20]",11251288201,Ca1B12H12O8
BH12N4F3,mp-1200814,4.9249,-2.61456564,0.0589897857499979,"{5: 1, 1: 12, 7: 4, 9: 3}","[1, 5, 7, 9]",112517493,B1H12N4F3
B2H12C3(NO)6,mp-558377,4.589700000000001,-0.72322731,0.0045343000925912,"{5: 2, 1: 12, 6: 3, 7: 6, 8: 6}","[1, 5, 6, 7, 8]",11252637686,B2H12C3N6O6
CaB2(H6O5)2,mp-554736,5.4565,-0.85401865,0.011343565499998,"{20: 1, 5: 2, 1: 12, 8: 10}","[1, 5, 8, 20]",11252810201,Ca1B2H12O10
Ca2CuB2(HO)12,mp-752783,0.3101,1.94022212,0.0357443224999869,"{20: 2, 29: 1, 5: 2, 1: 12, 8: 12}","[1, 5, 8, 20, 29]",11252812202291,Ca2Cu1B2H12O12
MgNiB2P2(H3O4)4,mp-1224736,4.5703,4.76484841,0.0010720531967916,"{12: 1, 28: 1, 5: 2, 15: 2, 1: 12, 8: 16}","[1, 5, 8, 12, 15, 28]",11252816121152281,Mg1Ni1B2P2H12O16
NaZn(BH4)3,mp-1203290,5.7671,-3.73271931,0.0162462677205961,"{11: 1, 30: 1, 5: 3, 1: 12}","[1, 5, 11, 30]",11253111301,Na1Zn1B3H12
KCd(BH4)3,mp-1199830,3.8412,-2.8756509,0.0107780750000001,"{19: 1, 48: 1, 5: 3, 1: 12}","[1, 5, 19, 48]",11253191481,K1Cd1B3H12
Y(BH4)3,mp-571369,4.5766,-3.3669731,0.0,"{39: 1, 5: 3, 1: 12}","[1, 5, 39]",11253391,Y1B3H12
B3H12CN4O,mp-699467,3.0203,-0.35674474,0.4986068328928592,"{5: 3, 1: 12, 6: 1, 7: 4, 8: 1}","[1, 5, 6, 7, 8]",11253617481,B3H12C1N4O1
CsNaB4H12O13,mp-542533,4.9524,-1.20543421,0.0086628578830554,"{55: 1, 11: 1, 5: 4, 1: 12, 8: 13}","[1, 5, 8, 11, 55]",11254813111551,Cs1Na1B4H12O13
B5H12C2NO10,mp-723094,5.6887,-2.31269252,0.0172514353240673,"{5: 5, 1: 12, 6: 2, 7: 1, 8: 10}","[1, 5, 6, 7, 8]",112556271810,B5H12C2N1O10
CdB6H12(N2O5)2,mp-1195051,4.3356,0.51133561,0.0,"{48: 1, 5: 6, 1: 12, 7: 4, 8: 10}","[1, 5, 7, 8, 48]",1125674810481,Cd1B6H12N4O10
MgB6(H3O4)4,mp-1205090,5.4762,-1.115723,0.0121655779428584,"{12: 1, 5: 6, 1: 12, 8: 16}","[1, 5, 8, 12]",11256816121,Mg1B6H12O16
CaMgB6H12O17,mp-781555,5.6314,-0.09263289,0.0029889800675695,"{20: 1, 12: 1, 5: 6, 1: 12, 8: 17}","[1, 5, 8, 12, 20]",11256817121201,Ca1Mg1B6H12O17
LiBH,mp-23694,0.0,1.54563464,0.1260037177976176,"{3: 1, 5: 1, 1: 1}","[1, 3, 5]",113151,Li1B1H1
B10H13,mp-706664,3.3079,-2.43319996,0.0054891275747275,"{5: 10, 1: 13}","[1, 5]",113510,B10H13
B10H13Cl,mp-1195877,3.6163,0.99465387,0.0011473294791759,"{5: 10, 1: 13, 17: 1}","[1, 5, 17]",113510171,B10H13Cl1
B10H13Br,mp-1197561,3.3357,0.90531112,0.0001291800000009,"{5: 10, 1: 13, 35: 1}","[1, 5, 35]",113510351,B10H13Br1
CsB10H13C,mp-759303,4.842499999999999,-1.47851427,0.0337056117506051,"{55: 1, 5: 10, 1: 13, 6: 1}","[1, 5, 6, 55]",11351061551,Cs1B10H13C1
B10H13CSN,mp-720401,2.9344,-1.82008552,0.1632189495797815,"{5: 10, 1: 13, 6: 1, 16: 1, 7: 1}","[1, 5, 6, 7, 16]",1135106171161,B10H13C1S1N1
K2B10H13O2,mp-705494,3.7309,-0.67962843,0.2195358391408479,"{19: 2, 5: 10, 1: 13, 8: 2}","[1, 5, 8, 19]",11351082192,K2B10H13O2
KB11H13C2NO,mp-1195330,4.8833,-2.40905026,0.1434139841235566,"{19: 1, 5: 11, 1: 13, 6: 2, 7: 1, 8: 1}","[1, 5, 6, 7, 8, 19]",113511627181191,K1B11H13C2N1O1
BAsH13C3N,mp-1199944,4.006,2.01983248,0.2217466217763135,"{5: 1, 33: 1, 1: 13, 6: 3, 7: 1}","[1, 5, 6, 7, 33]",113516371331,B1As1H13C3N1
B2AsH13C3Br3N,mp-1197013,4.675000000000001,2.62777923,0.1547661901630412,"{5: 2, 33: 1, 1: 13, 6: 3, 35: 3, 7: 1}","[1, 5, 6, 7, 33, 35]",113526371331353,B2As1H13C3Br3N1
MgB2H13N3,mp-1202237,4.9993,-1.40489545,0.0432298601151339,"{12: 1, 5: 2, 1: 13, 7: 3}","[1, 5, 7, 12]",1135273121,Mg1B2H13N3
CaB2H13N3,mp-1197534,4.6,-1.51239451,0.0552586260087721,"{20: 1, 5: 2, 1: 13, 7: 3}","[1, 5, 7, 20]",1135273201,Ca1B2H13N3
CaB3H13O12,mp-733877,5.2325,-0.85702086,0.0119530408620676,"{20: 1, 5: 3, 1: 13, 8: 12}","[1, 5, 8, 20]",11353812201,Ca1B3H13O12
Ca2B3(HO)13,mp-699451,5.0496,0.01808174,0.0173919936290243,"{20: 2, 5: 3, 1: 13, 8: 13}","[1, 5, 8, 20]",11353813202,Ca2B3H13O13
B6H13CN4,mp-1201564,5.2596,3.52306967,0.3453094678645838,"{5: 6, 1: 13, 6: 1, 7: 4}","[1, 5, 6, 7]",113566174,B6H13C1N4
Sr3Be2B5HO13,mp-1218394,3.6266,2.2347431,0.032754775104153,"{38: 3, 4: 2, 5: 5, 1: 1, 8: 13}","[1, 4, 5, 8, 38]",114255813383,Sr3Be2B5H1O13
Ba3Be2B5HO13,mp-1228181,3.6139,1.70643826,0.0305263180248296,"{56: 3, 4: 2, 5: 5, 1: 1, 8: 13}","[1, 4, 5, 8, 56]",114255813563,Ba3Be2B5H1O13
Li2B3H14N,mp-1204484,6.3948,3.21423158,0.0905379726250021,"{3: 2, 5: 3, 1: 14, 7: 1}","[1, 3, 5, 7]",114325371,Li2B3H14N1
Li4Ca2B16(H2O5)7,mp-1195450,5.1414,-0.18030336,0.0052951636619713,"{3: 4, 20: 2, 5: 16, 1: 14, 8: 35}","[1, 3, 5, 8, 20]",11434516835202,Li4Ca2B16H14O35
Be(B3H7)2,mp-27748,4.315,-2.93366716,0.0167134023322494,"{4: 1, 5: 6, 1: 14}","[1, 4, 5]",1144156,Be1B6H14
B10H14C10S(OF2)3,mp-1194781,4.337199999999999,2.08576149,0.4503137154157812,"{5: 10, 1: 14, 6: 10, 16: 1, 8: 3, 9: 6}","[1, 5, 6, 8, 9, 16]",1145106108396161,B10H14C10S1O3F6
CaB2(H7N)2,mp-866308,5.4223,-2.22989576,0.0471247884210468,"{20: 1, 5: 2, 1: 14, 7: 2}","[1, 5, 7, 20]",1145272201,Ca1B2H14N2
MnB2(H7N)2,mp-1195203,2.2966,-1.12662213,0.0839593324115242,"{25: 1, 5: 2, 1: 14, 7: 2}","[1, 5, 7, 25]",1145272251,Mn1B2H14N2
AlB3H14N,mp-1252808,1.5074999999999998,-3.58822991,0.224480839539475,"{13: 1, 5: 3, 1: 14, 7: 1}","[1, 5, 7, 13]",1145371131,Al1B3H14N1
B6P2H14N2O19,mp-1197636,1.0871,0.64529756,0.1244321687209453,"{5: 6, 15: 2, 1: 14, 7: 2, 8: 19}","[1, 5, 7, 8, 15]",1145672819152,B6P2H14N2O19
MgB6H14O17,mp-1196351,5.2179,-1.06294172,0.0124528511250012,"{12: 1, 5: 6, 1: 14, 8: 17}","[1, 5, 8, 12]",11456817121,Mg1B6H14O17
NaB7H14C2(NO7)2,mp-1195917,4.7153,4.49881624,0.0420810146278407,"{11: 1, 5: 7, 1: 14, 6: 2, 7: 2, 8: 14}","[1, 5, 6, 7, 8, 11]",114576272814111,Na1B7H14C2N2O14
CsB9H14,mp-27590,3.8007,-1.20259877,0.0639923027083106,"{55: 1, 5: 9, 1: 14}","[1, 5, 55]",11459551,Cs1B9H14
Fe3B11HO20,mp-1203485,0.3226000000000004,5.89050369,0.0,"{26: 3, 5: 11, 1: 1, 8: 20}","[1, 5, 8, 26]",11511820263,Fe3B11H1O20
Co3B11HO20,mp-1199160,2.1750000000000003,5.32772451,0.0879356720952362,"{27: 3, 5: 11, 1: 1, 8: 20}","[1, 5, 8, 27]",11511820273,Co3B11H1O20
AgBHC12(NF2)9,mp-1215142,3.448,-0.55191821,0.1504314331845204,"{47: 1, 5: 1, 1: 1, 6: 12, 7: 9, 9: 18}","[1, 5, 6, 7, 9, 47]",115161279918471,Ag1B1H1C12N9F18
BHN4,mp-1200679,4.359,2.05743988,0.1705548155555565,"{5: 1, 1: 1, 7: 4}","[1, 5, 7]",115174,B1H1N4
Ca2Al2FeSi4BHO16,mp-24392,3.9301,3.60358649,0.0029762081481532,"{20: 2, 13: 2, 26: 1, 14: 4, 5: 1, 1: 1, 8: 16}","[1, 5, 8, 13, 14, 20, 26]",1151816132144202261,Ca2Al2Fe1Si4B1H1O16
Na2BHO3,mp-556125,3.8106,0.40732859,0.0,"{11: 2, 5: 1, 1: 1, 8: 3}","[1, 5, 8, 11]",115183112,Na2B1H1O3
MgBHO3,mp-23748,5.4377,1.43306323,0.0,"{12: 1, 5: 1, 1: 1, 8: 3}","[1, 5, 8, 12]",115183121,Mg1B1H1O3
CaSiBHO5,mp-554371,5.390499999999999,2.22370392,0.0019108412962953,"{20: 1, 14: 1, 5: 1, 1: 1, 8: 5}","[1, 5, 8, 14, 20]",115185141201,Ca1Si1B1H1O5
K2BAs2HO8,mp-1224203,3.7037,3.0402329,0.0,"{19: 2, 5: 1, 33: 2, 1: 1, 8: 8}","[1, 5, 8, 19, 33]",115188192332,K2B1As2H1O8
KFeBP2HO9,mp-1204854,2.8184,0.37874258,0.0,"{19: 1, 26: 1, 5: 1, 15: 2, 1: 1, 8: 9}","[1, 5, 8, 15, 19, 26]",115189152191261,K1Fe1B1P2H1O9
RbVBP2HO9,mp-767613,1.7429,1.59214161,0.0,"{37: 1, 23: 1, 5: 1, 15: 2, 1: 1, 8: 9}","[1, 5, 8, 15, 23, 37]",115189152231371,Rb1V1B1P2H1O9
RbFeBP2HO9,mp-24648,2.3976,0.51798349,0.0,"{37: 1, 26: 1, 5: 1, 15: 2, 1: 1, 8: 9}","[1, 5, 8, 15, 26, 37]",115189152261371,Rb1Fe1B1P2H1O9
CsFeBP2HO9,mp-757463,0.945,1.42602301,0.0,"{55: 1, 26: 1, 5: 1, 15: 2, 1: 1, 8: 9}","[1, 5, 8, 15, 26, 55]",115189152261551,Cs1Fe1B1P2H1O9
BaCoBP2HO9,mp-24828,2.5883000000000003,1.81551262,0.0299788227500048,"{56: 1, 27: 1, 5: 1, 15: 2, 1: 1, 8: 9}","[1, 5, 8, 15, 27, 56]",115189152271561,Ba1Co1B1P2H1O9
CoBP2HPbO9,mp-1193243,3.2483000000000004,2.48942417,0.029445781211117,"{27: 1, 5: 1, 15: 2, 1: 1, 82: 1, 8: 9}","[1, 5, 8, 15, 27, 82]",115189152271821,Co1B1P2H1Pb1O9
RbGaBP2HO9,mp-24761,4.662599999999999,0.57338293,0.0001912982862863,"{37: 1, 31: 1, 5: 1, 15: 2, 1: 1, 8: 9}","[1, 5, 8, 15, 31, 37]",115189152311371,Rb1Ga1B1P2H1O9
RbInBP2HO9,mp-766175,3.8236,1.08413335,0.0,"{37: 1, 49: 1, 5: 1, 15: 2, 1: 1, 8: 9}","[1, 5, 8, 15, 37, 49]",115189152371491,Rb1In1B1P2H1O9
NaB2HO4,mp-706489,5.126,-0.16831112,0.0123675735403088,"{11: 1, 5: 2, 1: 1, 8: 4}","[1, 5, 8, 11]",115284111,Na1B2H1O4
GdB2HO5,mp-1225228,3.1258,4.38426075,0.0294228759799324,"{64: 1, 5: 2, 1: 1, 8: 5}","[1, 5, 8, 64]",115285641,Gd1B2H1O5
TmB2HO5,mp-1201207,4.6471,6.0330492,0.1363623549073924,"{69: 1, 5: 2, 1: 1, 8: 5}","[1, 5, 8, 69]",115285691,Tm1B2H1O5
Bi2B3HO8,mp-1200581,3.2252,2.14113457,0.0065361061904738,"{83: 2, 5: 3, 1: 1, 8: 8}","[1, 5, 8, 83]",115388832,Bi2B3H1O8
Sr3Ga3B4HO14,mp-1218783,3.4342,1.22705472,0.0133929267928465,"{38: 3, 31: 3, 5: 4, 1: 1, 8: 14}","[1, 5, 8, 31, 38]",1154814313383,Sr3Ga3B4H1O14
YB3H15N,mp-1195041,4.611800000000001,-3.23403027,0.0903023451874922,"{39: 1, 5: 3, 1: 15, 7: 1}","[1, 5, 7, 39]",1155371391,Y1B3H15N1
MgB3H15O13,mp-706339,4.9097,-1.10628102,0.0153830476562522,"{12: 1, 5: 3, 1: 15, 8: 13}","[1, 5, 8, 12]",11553813121,Mg1B3H15O13
Mg2B4H15,mp-1204358,5.7331,-4.41485645,0.0199483725,"{12: 2, 5: 4, 1: 15}","[1, 5, 12]",11554122,Mg2B4H15
B5H15C3N,mp-600191,4.1616,-1.00713796,0.1784178654398145,"{5: 5, 1: 15, 6: 3, 7: 1}","[1, 5, 6, 7]",115556371,B5H15C3N1
CsB6(H5N)3,mp-1201361,4.5834,2.35221039,0.1339310986400015,"{55: 1, 5: 6, 1: 15, 7: 3}","[1, 5, 7, 55]",1155673551,Cs1B6H15N3
Ba2B5HO10,mp-1198110,4.787400000000001,0.7525282,0.0,"{56: 2, 5: 5, 1: 1, 8: 10}","[1, 5, 8, 56]",1155810562,Ba2B5H1O10
LaB5HO10,mp-1211684,0.1492,1.57792502,0.0514102574264914,"{57: 1, 5: 5, 1: 1, 8: 10}","[1, 5, 8, 57]",1155810571,La1B5H1O10
LiB(H8O5)2,mp-1222914,5.0895,-2.09936354,0.0106385300892872,"{3: 1, 5: 1, 1: 16, 8: 10}","[1, 3, 5, 8]",1163151810,Li1B1H16O10
RbLiMg(BH4)4,mp-1219622,6.4948,-3.4742923,0.0049855157971041,"{37: 1, 3: 1, 12: 1, 5: 4, 1: 16}","[1, 3, 5, 12, 37]",1163154121371,Rb1Li1Mg1B4H16
LiY(BH4)4,mp-1190102,5.742,-4.39290425,0.0094216672159026,"{3: 1, 39: 1, 5: 4, 1: 16}","[1, 3, 5, 39]",1163154391,Li1Y1B4H16
Li2MgB12(H4O7)4,mp-1195467,5.849600000000001,-1.06271309,0.0058031717861828,"{3: 2, 12: 1, 5: 12, 1: 16, 8: 28}","[1, 3, 5, 8, 12]",11632512828121,Li2Mg1B12H16O28
Be(B3H8)2,mp-1205430,6.2485,1.65974092,0.0004702818527828,"{4: 1, 5: 6, 1: 16}","[1, 4, 5]",1164156,Be1B6H16
B10H16CSe,mp-1199920,3.3257000000000003,0.71025911,0.1098363634012038,"{5: 10, 1: 16, 6: 1, 34: 1}","[1, 5, 6, 34]",11651061341,B10H16C1Se1
Na2MgB12(H4O7)4,mp-1221910,4.9665,4.33654766,0.0151961788135279,"{11: 2, 12: 1, 5: 12, 1: 16, 8: 28}","[1, 5, 8, 11, 12]",116512828112121,Na2Mg1B12H16O28
K4Ba2B14H16O33,mp-1199499,4.9133,-0.09115181,0.0,"{19: 4, 56: 2, 5: 14, 1: 16, 8: 33}","[1, 5, 8, 19, 56]",116514833194562,K4Ba2B14H16O33
Ca2MgB2H16(CO9)2,mp-707983,4.640300000000001,-0.03054917,0.0238062570731818,"{20: 2, 12: 1, 5: 2, 1: 16, 6: 2, 8: 18}","[1, 5, 6, 8, 12, 20]",1165262818121202,Ca2Mg1B2H16C2O18
NaY(BH4)4,mp-1194788,5.9548000000000005,-4.08860741,0.0058805063068216,"{11: 1, 39: 1, 5: 4, 1: 16}","[1, 5, 11, 39]",11654111391,Na1Y1B4H16
K2Mg(BH4)4,mp-1197682,6.3148,2.89421948,0.0155354532971001,"{19: 2, 12: 1, 5: 4, 1: 16}","[1, 5, 12, 19]",11654121192,K2Mg1B4H16
KY(BH4)4,mp-1197756,6.0454,-4.45712817,8.450517045854866e-05,"{19: 1, 39: 1, 5: 4, 1: 16}","[1, 5, 19, 39]",11654191391,K1Y1B4H16
K2Mn(BH4)4,mp-1203215,2.5177,0.63925876,0.0163796094021719,"{19: 2, 25: 1, 5: 4, 1: 16}","[1, 5, 19, 25]",11654192251,K2Mn1B4H16
K2Cd(BH4)4,mp-1197108,5.3008,1.81949689,0.0026357820652131,"{19: 2, 48: 1, 5: 4, 1: 16}","[1, 5, 19, 48]",11654192481,K2Cd1B4H16
RbY(BH4)4,mp-1201985,6.1376,1.91585337,0.0,"{37: 1, 39: 1, 5: 4, 1: 16}","[1, 5, 37, 39]",11654371391,Rb1Y1B4H16
CsY(BH4)4,mp-1204501,5.7043,2.23420824,0.0007079172159132,"{55: 1, 39: 1, 5: 4, 1: 16}","[1, 5, 39, 55]",11654391551,Cs1Y1B4H16
U(BH4)4,mp-27350,0.074,0.5788275,0.0,"{92: 1, 5: 4, 1: 16}","[1, 5, 92]",11654921,U1B4H16
AlZnB5H16C4(N2O5)2,mp-1195007,4.4958,-0.13957308,0.0348889871951243,"{13: 1, 30: 1, 5: 5, 1: 16, 6: 4, 7: 4, 8: 10}","[1, 5, 6, 7, 8, 13, 30]",116556474810131301,Al1Zn1B5H16C4N4O10
AlB5H16(NO7)2,mp-1200079,4.7254000000000005,3.43037345,0.0203751998026424,"{13: 1, 5: 5, 1: 16, 7: 2, 8: 14}","[1, 5, 7, 8, 13]",1165572814131,Al1B5H16N2O14
NaCaB5H16O17,mp-698191,2.9061,0.87245929,0.2525717728125016,"{11: 1, 20: 1, 5: 5, 1: 16, 8: 17}","[1, 5, 8, 11, 20]",11655817111201,Na1Ca1B5H16O17
Cr(B3H8)2,mp-567148,1.0282,-0.93968414,0.0502784813043479,"{24: 1, 5: 6, 1: 16}","[1, 5, 24]",11656241,Cr1B6H16
NiB6(H8O9)2,mp-695976,4.9323,-0.89126618,0.0318784316260156,"{28: 1, 5: 6, 1: 16, 8: 18}","[1, 5, 8, 28]",11656818281,Ni1B6H16O18
Ca3B6(H4O5)4,mp-707129,5.4566,0.38711028,0.0103837572777862,"{20: 3, 5: 6, 1: 16, 8: 20}","[1, 5, 8, 20]",11656820203,Ca3B6H16O20
BH17C5N2,mp-1194718,4.2447,2.42953298,0.2011347103499989,"{5: 1, 1: 17, 6: 5, 7: 2}","[1, 5, 6, 7]",117516572,B1H17C5N2
BH17C6NCl,mp-1204476,5.0663,2.95259589,0.124378069951927,"{5: 1, 1: 17, 6: 6, 7: 1, 17: 1}","[1, 5, 6, 7, 17]",117516671171,B1H17C6N1Cl1
MnB2H17N3,mp-1195307,1.9165,0.79956335,0.0764849668290867,"{25: 1, 5: 2, 1: 17, 7: 3}","[1, 5, 7, 25]",1175273251,Mn1B2H17N3
Na3CuB8H17O23,mp-722906,0.6148,0.91678714,0.0197020817588038,"{11: 3, 29: 1, 5: 8, 1: 17, 8: 23}","[1, 5, 8, 11, 29]",11758823113291,Na3Cu1B8H17O23
LiMgB3(H9N)2,mp-866665,6.5113,-2.58472324,0.0619600141333354,"{3: 1, 12: 1, 5: 3, 1: 18, 7: 2}","[1, 3, 5, 7, 12]",118315372121,Li1Mg1B3H18N2
B10H18C2S,mp-1202352,2.1031000000000004,-1.03107539,0.110055159279363,"{5: 10, 1: 18, 6: 2, 16: 1}","[1, 5, 6, 16]",11851062161,B10H18C2S1
CoBH18N6(ClF2)2,mp-1201834,3.1185,1.98232791,0.0233475070052078,"{27: 1, 5: 1, 1: 18, 7: 6, 17: 2, 9: 4}","[1, 5, 7, 9, 17, 27]",118517694172271,Co1B1H18N6Cl2F4
CoBH18Br2(N3F2)2,mp-561162,2.331,-0.62544787,0.0206390011458319,"{27: 1, 5: 1, 1: 18, 35: 2, 7: 6, 9: 4}","[1, 5, 7, 9, 27, 35]",118517694271352,Co1B1H18Br2N6F4
KCa4B22H18ClO46,mp-722344,5.5101,0.07435818,0.0,"{19: 1, 20: 4, 5: 22, 1: 18, 17: 1, 8: 46}","[1, 5, 8, 17, 19, 20]",118522846171191204,K1Ca4B22H18Cl1O46