formula,material_id,band_gap,efermi,energy_above_hull,comp_atoms,sorted_keys_comp_atoms,comp_number,new_formula
B2Mo2Ir,mp-20391,0.0,9.31037433,0.03672641800000065,"{5: 2, 42: 2, 77: 1}","[5, 42, 77]",52422771,B2Mo2Ir1
B2Mo3,mp-1079053,0.0,9.14885023,0.023003367999997693,"{5: 2, 42: 3}","[5, 42]",52423,B2Mo3
Hf9B2Mo3,mp-1224546,0.0,5.52035114,0.15660845892857367,"{72: 9, 5: 2, 42: 3}","[5, 42, 72]",52423729,Hf9B2Mo3
Er4TaV7B24,mp-1225684,0.0,7.17406515,0.0,"{68: 4, 73: 1, 23: 7, 5: 24}","[5, 23, 68, 73]",524237684731,Er4Ta1V7B24
TcB2,mp-1019317,0.0,7.87862969,0.0,"{43: 1, 5: 2}","[5, 43]",52431,Tc1B2
PuTcB2,mp-1188688,0.0,10.50891055,0.008609004900002049,"{94: 1, 43: 1, 5: 2}","[5, 43, 94]",52431941,Pu1Tc1B2
ZrUB24,mp-1215198,0.0,7.41841463,0.014180976474358786,"{40: 1, 92: 1, 5: 24}","[5, 40, 92]",524401921,Zr1U1B24
B2Ru,mp-1077,0.0,8.39468822,0.0,"{5: 2, 44: 1}","[5, 44]",52441,B2Ru1
CeB2Ru,mp-1188136,0.0,8.82171866,0.0,"{58: 1, 5: 2, 44: 1}","[5, 44, 58]",52441581,Ce1B2Ru1
TbB2Ru,mp-1188601,0.0,6.12502389,0.0,"{65: 1, 5: 2, 44: 1}","[5, 44, 65]",52441651,Tb1B2Ru1
DyB2Ru,mp-1189977,0.0,6.07877904,0.0,"{66: 1, 5: 2, 44: 1}","[5, 44, 66]",52441661,Dy1B2Ru1
HoB2Ru,mp-1181033,0.0,6.06856125,0.0,"{67: 1, 5: 2, 44: 1}","[5, 44, 67]",52441671,Ho1B2Ru1
ErB2Ru,mp-1181423,0.0,6.06764232,0.0,"{68: 1, 5: 2, 44: 1}","[5, 44, 68]",52441681,Er1B2Ru1
TmB2Ru,mp-1188615,0.0,6.0339418,0.0,"{69: 1, 5: 2, 44: 1}","[5, 44, 69]",52441691,Tm1B2Ru1
LuB2Ru,mp-29239,0.0,6.0701314,0.0,"{71: 1, 5: 2, 44: 1}","[5, 44, 71]",52441711,Lu1B2Ru1
B2RuW,mp-1228657,0.0,8.80514275,0.09159416795454689,"{5: 2, 44: 1, 74: 1}","[5, 44, 74]",52441741,B2Ru1W1
PuB2Ru,mp-1189387,0.0,10.61510982,0.025041298499996145,"{94: 1, 5: 2, 44: 1}","[5, 44, 94]",52441941,Pu1B2Ru1
U5(B12Mo5)2,mp-662590,0.0,10.23097253,0.0,"{92: 5, 5: 24, 42: 10}","[5, 42, 92]",5244210925,U5B24Mo10
CeB2Ru2Rh,mp-1226655,0.0,8.27669911,0.0004966946428606178,"{58: 1, 5: 2, 44: 2, 45: 1}","[5, 44, 45, 58]",52442451581,Ce1B2Ru2Rh1
Ce(BRu)2,mp-15588,0.0,7.35737345,0.0019292222499949219,"{58: 1, 5: 2, 44: 2}","[5, 44, 58]",52442581,Ce1B2Ru2
Pr(BRu)2,mp-975729,0.0,5.55542653,0.0,"{59: 1, 5: 2, 44: 2}","[5, 44, 59]",52442591,Pr1B2Ru2
Nd(BRu)2,mp-1079388,0.0,5.48529402,0.0,"{60: 1, 5: 2, 44: 2}","[5, 44, 60]",52442601,Nd1B2Ru2
Sm(BRu)2,mp-978771,0.0,5.35661871,0.0,"{62: 1, 5: 2, 44: 2}","[5, 44, 62]",52442621,Sm1B2Ru2
Gd(BRu)2,mp-1095164,0.0,5.35078106,0.0,"{64: 1, 5: 2, 44: 2}","[5, 44, 64]",52442641,Gd1B2Ru2
Ho(BRu)2,mp-1213627,0.0,3.69108409,0.9757409267500012,"{67: 1, 5: 2, 44: 2}","[5, 44, 67]",52442671,Ho1B2Ru2
B24Mo7,mp-1228730,0.0,6.60252332,0.15206720559139697,"{5: 24, 42: 7}","[5, 42]",524427,B24Mo7
Th(BRu)2,mp-1080672,0.0,7.29319258,0.0,"{90: 1, 5: 2, 44: 2}","[5, 44, 90]",52442901,Th1B2Ru2
U(BRu)2,mp-1208853,0.0,9.37075884,0.5677684183333369,"{92: 1, 5: 2, 44: 2}","[5, 44, 92]",52442921,U1B2Ru2
LaB2Ru3,mp-29723,0.0,8.57150621,0.006170883888886536,"{57: 1, 5: 2, 44: 3}","[5, 44, 57]",52443571,La1B2Ru3
CeB2Ru3,mp-5940,0.0,8.37334088,0.0,"{58: 1, 5: 2, 44: 3}","[5, 44, 58]",52443581,Ce1B2Ru3
PrB2Ru3,mp-5939,0.0,6.65709711,0.027026917499997083,"{59: 1, 5: 2, 44: 3}","[5, 44, 59]",52443591,Pr1B2Ru3
NdB2Ru3,mp-7099,0.0,6.5765469,0.01768169333333347,"{60: 1, 5: 2, 44: 3}","[5, 44, 60]",52443601,Nd1B2Ru3
SmB2Ru3,mp-3467,0.0,6.43380131,0.024248041666663056,"{62: 1, 5: 2, 44: 3}","[5, 44, 62]",52443621,Sm1B2Ru3
GdB2Ru3,mp-22335,0.0,5.99510874,0.0,"{64: 1, 5: 2, 44: 3}","[5, 44, 64]",52443641,Gd1B2Ru3
TbB2Ru3,mp-3186,0.0,6.57106817,0.0,"{65: 1, 5: 2, 44: 3}","[5, 44, 65]",52443651,Tb1B2Ru3
DyB2Ru3,mp-3092,0.0,6.546189,0.0,"{66: 1, 5: 2, 44: 3}","[5, 44, 66]",52443661,Dy1B2Ru3
HoB2Ru3,mp-2985,0.0,6.50708081,0.0,"{67: 1, 5: 2, 44: 3}","[5, 44, 67]",52443671,Ho1B2Ru3
ErB2Ru3,mp-3093,0.0,6.51986987,0.0,"{68: 1, 5: 2, 44: 3}","[5, 44, 68]",52443681,Er1B2Ru3
TmB2Ru3,mp-5620,0.0,6.50633238,0.0,"{69: 1, 5: 2, 44: 3}","[5, 44, 69]",52443691,Tm1B2Ru3
LuB2Ru3,mp-5578,0.0,6.50186952,0.0,"{71: 1, 5: 2, 44: 3}","[5, 44, 71]",52443711,Lu1B2Ru3
ThB2Ru3,mp-3223,0.0,8.15012406,0.0,"{90: 1, 5: 2, 44: 3}","[5, 44, 90]",52443901,Th1B2Ru3
UB2Ru3,mp-10137,0.0,9.40953719,0.0,"{92: 1, 5: 2, 44: 3}","[5, 44, 92]",52443921,U1B2Ru3
PuB2Ru3,mp-1072629,0.0,9.60758799,0.0,"{94: 1, 5: 2, 44: 3}","[5, 44, 94]",52443941,Pu1B2Ru3
Ta3B2Ru5,mp-1188194,0.0,7.6758746,0.0,"{73: 3, 5: 2, 44: 5}","[5, 44, 73]",52445733,Ta3B2Ru5
CeB2Ir2Rh,mp-1226636,0.0,8.76326383,0.0,"{58: 1, 5: 2, 77: 2, 45: 1}","[5, 45, 58, 77]",52451581772,Ce1B2Ir2Rh1
LaB2Rh3,mp-3465,0.0,8.15320733,0.01761287133332523,"{57: 1, 5: 2, 45: 3}","[5, 45, 57]",52453571,La1B2Rh3
CeB2Rh3,mp-5757,0.0,7.83489014,0.0,"{58: 1, 5: 2, 45: 3}","[5, 45, 58]",52453581,Ce1B2Rh3
PrB2Rh3,mp-5369,0.0,6.53354547,0.0,"{59: 1, 5: 2, 45: 3}","[5, 45, 59]",52453591,Pr1B2Rh3
NdB2Rh3,mp-3055,0.0,6.2086553,0.0,"{60: 1, 5: 2, 45: 3}","[5, 45, 60]",52453601,Nd1B2Rh3
SmB2Rh3,mp-2947,0.0,6.05501445,0.0,"{62: 1, 5: 2, 45: 3}","[5, 45, 62]",52453621,Sm1B2Rh3
EuB2Rh3,mp-21127,0.0,6.07415282,0.0,"{63: 1, 5: 2, 45: 3}","[5, 45, 63]",52453631,Eu1B2Rh3
GdB2Rh3,mp-22117,0.0,5.78733134,0.0,"{64: 1, 5: 2, 45: 3}","[5, 45, 64]",52453641,Gd1B2Rh3
TbB2Rh3,mp-1072051,0.0,6.2679199,0.002203510476181947,"{65: 1, 5: 2, 45: 3}","[5, 45, 65]",52453651,Tb1B2Rh3
DyB2Rh3,mp-1025143,0.0,6.12924157,0.006018859901955054,"{66: 1, 5: 2, 45: 3}","[5, 45, 66]",52453661,Dy1B2Rh3
HoB2Rh3,mp-1025027,0.0,6.10299174,0.008223444754896114,"{67: 1, 5: 2, 45: 3}","[5, 45, 67]",52453671,Ho1B2Rh3
ErB2Rh3,mp-5678,0.0,6.10035034,0.012205608529407108,"{68: 1, 5: 2, 45: 3}","[5, 45, 68]",52453681,Er1B2Rh3
TmB2Rh3,mp-1076960,0.0,6.08181945,0.0156775040833379,"{69: 1, 5: 2, 45: 3}","[5, 45, 69]",52453691,Tm1B2Rh3
LuB2Rh3,mp-1025024,0.0,6.05882974,0.024255737333337635,"{71: 1, 5: 2, 45: 3}","[5, 45, 71]",52453711,Lu1B2Rh3
PuB2Rh3,mp-1024968,0.0,8.89100619,0.0,"{94: 1, 5: 2, 45: 3}","[5, 45, 94]",52453941,Pu1B2Rh3
Sn5(BRh3)2,mp-30060,0.0,8.36975957,0.0,"{50: 5, 5: 2, 45: 6}","[5, 45, 50]",52456505,Sn5B2Rh6
La(CeB8)3,mp-1223276,0.0,8.17159848,0.00040736392857176895,"{57: 1, 58: 3, 5: 24}","[5, 57, 58]",524571583,La1Ce3B24
La(SmB8)3,mp-1223255,0.0,7.03754636,0.0019278764285743932,"{57: 1, 62: 3, 5: 24}","[5, 57, 62]",524571623,La1Sm3B24
Pr16Re25B24,mp-1220630,0.0,5.90845118,0.0352548914769244,"{59: 16, 75: 25, 5: 24}","[5, 59, 75]",52459167525,Pr16Re25B24
B2Pd5,mp-2617,0.0,5.22222431,0.008754007857142199,"{5: 2, 46: 5}","[5, 46]",52465,B2Pd5
AgB2,mp-12062,0.0,5.46587824,0.5238218650000004,"{47: 1, 5: 2}","[5, 47]",52471,Ag1B2
B24N4O,mp-1182541,0.5870999999999995,5.93908571,0.4826085206609205,"{5: 24, 7: 4, 8: 1}","[5, 7, 8]",5247481,B24N4O1
CdB2,mp-1072852,0.0,0.47643351,2.5725911972222217,"{48: 1, 5: 2}","[5, 48]",52481,Cd1B2
NaB24S6(Br2O)12,mp-1197248,0.0,-0.5955176,0.7045417668122917,"{11: 1, 5: 24, 16: 6, 35: 24, 8: 12}","[5, 8, 11, 16, 35]",5248121111663524,Na1B24S6Br24O12
Sn5(BIr3)2,mp-28998,0.0,9.50562458,0.0,"{50: 5, 5: 2, 77: 6}","[5, 50, 77]",52505776,Sn5B2Ir6
La(BOs)2,mp-1095136,0.0,7.5956437,0.0,"{57: 1, 5: 2, 76: 2}","[5, 57, 76]",52571762,La1B2Os2
La(BIr)2,mp-1211813,0.0,8.63531257,0.2853606039999992,"{57: 1, 5: 2, 77: 2}","[5, 57, 77]",52571772,La1B2Ir2
LaB2Ir3,mp-10112,0.0,9.57934318,0.0,"{57: 1, 5: 2, 77: 3}","[5, 57, 77]",52571773,La1B2Ir3
Ce(BOs)2,mp-1080734,0.0,7.44706327,0.0,"{58: 1, 5: 2, 76: 2}","[5, 58, 76]",52581762,Ce1B2Os2
Ce(BIr)2,mp-8680,0.0,8.38779743,0.0,"{58: 1, 5: 2, 77: 2}","[5, 58, 77]",52581772,Ce1B2Ir2
CeB2Ir3,mp-11593,0.0,9.24853872,0.0,"{58: 1, 5: 2, 77: 3}","[5, 58, 77]",52581773,Ce1B2Ir3
Ce2B2Ir5,mp-30898,0.0,9.27794156,0.0,"{58: 2, 5: 2, 77: 5}","[5, 58, 77]",52582775,Ce2B2Ir5
Pr(BOs)2,mp-975738,0.0,5.63933995,0.0,"{59: 1, 5: 2, 76: 2}","[5, 59, 76]",52591762,Pr1B2Os2
Pr(BIr)2,mp-1080104,0.0,6.67918501,0.0,"{59: 1, 5: 2, 77: 2}","[5, 59, 77]",52591772,Pr1B2Ir2
PrB2Ir3,mp-11594,0.0,7.66297727,0.0,"{59: 1, 5: 2, 77: 3}","[5, 59, 77]",52591773,Pr1B2Ir3
Nd(BOs)2,mp-1080515,0.0,5.58433202,0.0,"{60: 1, 5: 2, 76: 2}","[5, 60, 76]",52601762,Nd1B2Os2
Nd(BIr)2,mp-1078948,0.0,6.62942859,0.0,"{60: 1, 5: 2, 77: 2}","[5, 60, 77]",52601772,Nd1B2Ir2
NdB2Ir3,mp-1025068,0.0,7.70520736,0.0,"{60: 1, 5: 2, 77: 3}","[5, 60, 77]",52601773,Nd1B2Ir3
SmB2,mp-10141,0.0,4.79366423,0.12776528233333195,"{62: 1, 5: 2}","[5, 62]",52621,Sm1B2
Sm(BOs)2,mp-978678,0.0,5.46976968,0.0,"{62: 1, 5: 2, 76: 2}","[5, 62, 76]",52621762,Sm1B2Os2
Sm(BIr)2,mp-1079428,0.0,6.46612099,0.0,"{62: 1, 5: 2, 77: 2}","[5, 62, 77]",52621772,Sm1B2Ir2
SmB2Ir3,mp-1080381,0.0,7.4619882,0.0,"{62: 1, 5: 2, 77: 3}","[5, 62, 77]",52621773,Sm1B2Ir3
Eu(BIr)2,mp-20976,0.0,5.91412659,0.0,"{63: 1, 5: 2, 77: 2}","[5, 63, 77]",52631772,Eu1B2Ir2
Eu3B2Pt7,mp-1102298,0.0,5.69310295,0.0,"{63: 3, 5: 2, 78: 7}","[5, 63, 78]",52633787,Eu3B2Pt7
GdB2,mp-425,0.0,4.82162606,0.06832967733333106,"{64: 1, 5: 2}","[5, 64]",52641,Gd1B2
GdB2Os,mp-1188331,0.0,6.18582809,0.0,"{64: 1, 5: 2, 76: 1}","[5, 64, 76]",52641761,Gd1B2Os1
Gd(BOs)2,mp-1079837,0.0,5.4809517,0.0,"{64: 1, 5: 2, 76: 2}","[5, 64, 76]",52641762,Gd1B2Os2
GdB2Ir3,mp-1077270,0.0,7.422112,0.0,"{64: 1, 5: 2, 77: 3}","[5, 64, 77]",52641773,Gd1B2Ir3
TbB2,mp-965,0.0,4.97299234,0.0,"{65: 1, 5: 2}","[5, 65]",52651,Tb1B2
TbB2Os,mp-1189495,0.0,6.36623056,0.0,"{65: 1, 5: 2, 76: 1}","[5, 65, 76]",52651761,Tb1B2Os1
Tb(BIr)2,mp-1079255,0.0,6.5924534,0.0,"{65: 1, 5: 2, 77: 2}","[5, 65, 77]",52651772,Tb1B2Ir2
TbB2Ir3,mp-1025075,0.0,7.58797277,0.0,"{65: 1, 5: 2, 77: 3}","[5, 65, 77]",52651773,Tb1B2Ir3
DyB2,mp-2057,0.0,4.94812968,0.0,"{66: 1, 5: 2}","[5, 66]",52661,Dy1B2
DyB2Os,mp-1189918,0.0,6.35798382,0.0,"{66: 1, 5: 2, 76: 1}","[5, 66, 76]",52661761,Dy1B2Os1
Dy(BIr)2,mp-1095029,0.0,6.60317394,0.0,"{66: 1, 5: 2, 77: 2}","[5, 66, 77]",52661772,Dy1B2Ir2
DyB2Ir3,mp-1024993,0.0,7.55278318,0.0,"{66: 1, 5: 2, 77: 3}","[5, 66, 77]",52661773,Dy1B2Ir3
HoB2,mp-2267,0.0,4.87867427,0.0,"{67: 1, 5: 2}","[5, 67]",52671,Ho1B2
HoB2Os,mp-1189925,0.0,6.25400238,0.0,"{67: 1, 5: 2, 76: 1}","[5, 67, 76]",52671761,Ho1B2Os1
HoB2Ir3,mp-1072182,0.0,7.71205861,0.0,"{67: 1, 5: 2, 77: 3}","[5, 67, 77]",52671773,Ho1B2Ir3
ErB2,mp-1774,0.0,4.91684029,0.0,"{68: 1, 5: 2}","[5, 68]",52681,Er1B2
ErB2Os,mp-1189333,0.0,6.28544668,0.0,"{68: 1, 5: 2, 76: 1}","[5, 68, 76]",52681761,Er1B2Os1
ErB2Ir3,mp-5197,0.0,7.56145903,0.0,"{68: 1, 5: 2, 77: 3}","[5, 68, 77]",52681773,Er1B2Ir3
Na12B26O45,mp-1180710,4.581300000000001,0.76419403,0.009038583674699119,"{11: 12, 5: 26, 8: 45}","[5, 8, 11]",5268451112,Na12B26O45
TmB2,mp-800,0.0,4.88110389,0.0,"{69: 1, 5: 2}","[5, 69]",52691,Tm1B2
TmB2Os,mp-1188249,0.0,6.3290064,0.0,"{69: 1, 5: 2, 76: 1}","[5, 69, 76]",52691761,Tm1B2Os1
TmB2Ir3,mp-1077393,0.0,7.4991806,0.0,"{69: 1, 5: 2, 77: 3}","[5, 69, 77]",52691773,Tm1B2Ir3
LuB2,mp-11219,0.0,4.95677884,0.0,"{71: 1, 5: 2}","[5, 71]",52711,Lu1B2
B2NCl3,mp-1214908,4.3775,-1.29020075,0.06572316069444462,"{5: 2, 7: 1, 17: 3}","[5, 7, 17]",5271173,B2N1Cl3
LuB2Os,mp-1189270,0.0,6.30360418,0.0,"{71: 1, 5: 2, 76: 1}","[5, 71, 76]",52711761,Lu1B2Os1
LuB2Os3,mp-2880,0.0,6.79519157,0.0795817800000016,"{71: 1, 5: 2, 76: 3}","[5, 71, 76]",52711763,Lu1B2Os3
LuB2Ir3,mp-1024990,0.0,7.47985893,0.0,"{71: 1, 5: 2, 77: 3}","[5, 71, 77]",52711773,Lu1B2Ir3
HfB2,mp-1994,0.0,8.05107642,0.0,"{72: 1, 5: 2}","[5, 72]",52721,Hf1B2
HfTaB2,mp-1224291,0.0,6.62510342,0.009947190833329955,"{72: 1, 73: 1, 5: 2}","[5, 72, 73]",52721731,Hf1Ta1B2
Hf3B2Ir5,mp-22409,0.0,7.84357177,0.05379568150000047,"{72: 3, 5: 2, 77: 5}","[5, 72, 77]",52723775,Hf3B2Ir5
Sr(BN)2,mp-1068850,3.4722,2.49187969,0.41503084719999883,"{38: 1, 5: 2, 7: 2}","[5, 7, 38]",5272381,Sr1B2N2
Lu2B2N2O13,mp-1196028,0.1352,-1.15332196,0.15705132256578924,"{71: 2, 5: 2, 7: 2, 8: 13}","[5, 7, 8, 71]",5272813712,Lu2B2N2O13
Hf9B2W3,mp-1224535,0.0,5.1800345,0.19079438928571335,"{72: 9, 5: 2, 74: 3}","[5, 72, 74]",52729743,Hf9B2W3
TaB2,mp-1108,0.0,8.9825124,0.0,"{73: 1, 5: 2}","[5, 73]",52731,Ta1B2
Ti4B2N3,mp-1217108,0.0,5.97868604,0.8028528866666669,"{22: 4, 5: 2, 7: 3}","[5, 7, 22]",5273224,Ti4B2N3
Ta2B2Os,mp-1189186,0.0,7.92207459,0.00340387050000146,"{73: 2, 5: 2, 76: 1}","[5, 73, 76]",52732761,Ta2B2Os1
Ta3B2,mp-13415,0.0,6.63103455,0.0,"{73: 3, 5: 2}","[5, 73]",52733,Ta3B2
GaB2N3,mp-1245554,3.236,6.2638304,0.3523754366666676,"{31: 1, 5: 2, 7: 3}","[5, 7, 31]",5273311,Ga1B2N3
B2W,mp-569803,0.0,8.40488089,0.0,"{5: 2, 74: 1}","[5, 74]",52741,B2W1
Ca3(BN2)2,mp-1227905,2.4714000000000005,2.21216055,0.0,"{20: 3, 5: 2, 7: 4}","[5, 7, 20]",5274203,Ca3B2N4
B2OsW2,mp-1188234,0.0,8.81657681,0.02968815999999208,"{5: 2, 76: 1, 74: 2}","[5, 74, 76]",52742761,B2Os1W2
Sr3(BN2)2,mp-1218347,1.9096,1.99280291,0.0,"{38: 3, 5: 2, 7: 4}","[5, 7, 38]",5274383,Sr3B2N4
La3(BN2)2,mp-569935,0.0,8.65654764,0.0,"{57: 3, 5: 2, 7: 4}","[5, 7, 57]",5274573,La3B2N4
Ce3(BN2)2,mp-3603,0.0,9.13755156,0.0,"{58: 3, 5: 2, 7: 4}","[5, 7, 58]",5274583,Ce3B2N4
Pr3(BN2)2,mp-29587,0.0,5.22473927,0.0,"{59: 3, 5: 2, 7: 4}","[5, 7, 59]",5274593,Pr3B2N4
Nd3(BN2)2,mp-29588,0.0,5.15221418,0.0,"{60: 3, 5: 2, 7: 4}","[5, 7, 60]",5274603,Nd3B2N4
ZnB2(NF2)4,mp-1199452,0.6404000000000001,-2.80280803,1.3592360163333312,"{30: 1, 5: 2, 7: 4, 9: 8}","[5, 7, 9, 30]",527498301,Zn1B2N4F8
ReB2,mp-1773,0.0,7.77605134,0.0,"{75: 1, 5: 2}","[5, 75]",52751,Re1B2
PuReB2,mp-1106002,0.0,10.39781935,0.003865146818178289,"{94: 1, 75: 1, 5: 2}","[5, 75, 94]",52751941,Pu1Re1B2
La3B2N5,mp-29990,1.1710000000000012,7.72317911,0.0,"{57: 3, 5: 2, 7: 5}","[5, 7, 57]",5275573,La3B2N5
La4B2N5,mp-1205775,0.0,8.88292298,0.0,"{57: 4, 5: 2, 7: 5}","[5, 7, 57]",5275574,La4B2N5
Ce4B2N5,mp-31017,0.0,8.96409919,0.006411991818190188,"{58: 4, 5: 2, 7: 5}","[5, 7, 58]",5275584,Ce4B2N5
B2Os,mp-2850,0.0,8.77705832,0.0,"{5: 2, 76: 1}","[5, 76]",52761,B2Os1
Mg(BN3)2,mp-1206547,0.0,5.52406295,3.442155343842593,"{12: 1, 5: 2, 7: 6}","[5, 7, 12]",5276121,Mg1B2N6
PuB2Os,mp-1188931,0.0,10.84507944,0.0,"{94: 1, 5: 2, 76: 1}","[5, 76, 94]",52761941,Pu1B2Os1
Th(BOs)2,mp-1079803,0.0,7.34428033,0.0,"{90: 1, 5: 2, 76: 2}","[5, 76, 90]",52762901,Th1B2Os2
UB2Os3,mp-10132,0.0,9.57223012,0.0,"{92: 1, 5: 2, 76: 3}","[5, 76, 92]",52763921,U1B2Os3
PuB2Os3,mp-1077278,0.0,9.58547806,0.2156817829166684,"{94: 1, 5: 2, 76: 3}","[5, 76, 94]",52763941,Pu1B2Os3
La5(BN3)2,mp-570499,0.0,8.80742774,0.0,"{57: 5, 5: 2, 7: 6}","[5, 7, 57]",5276575,La5B2N6
ThB2Ir3,mp-10115,0.0,9.02219435,0.0,"{90: 1, 5: 2, 77: 3}","[5, 77, 90]",52773901,Th1B2Ir3
UB2Ir3,mp-10116,0.0,10.31014679,0.0,"{92: 1, 5: 2, 77: 3}","[5, 77, 92]",52773921,U1B2Ir3
PuB2Ir3,mp-1072199,0.0,10.72031544,0.0,"{94: 1, 5: 2, 77: 3}","[5, 77, 94]",52773941,Pu1B2Ir3
B2Pt3,mp-1228684,0.0,7.07553418,0.058685564083333475,"{5: 2, 78: 3}","[5, 78]",52783,B2Pt3
B2Au,mp-10681,0.0,6.12233634,0.6686477705555554,"{5: 2, 79: 1}","[5, 79]",52791,B2Au1
B2O,mp-614006,0.0,4.82384667,0.9245854276388883,"{5: 2, 8: 1}","[5, 8]",5281,B2O1
Na2Dy2B2TeO10,mp-1194796,2.8880999999999997,1.86485419,0.0,"{11: 2, 66: 2, 5: 2, 52: 1, 8: 10}","[5, 8, 11, 52, 66]",52810112521662,Na2Dy2B2Te1O10
Na2Ho2B2TeO10,mp-1194989,2.9344,1.86432924,0.0,"{11: 2, 67: 2, 5: 2, 52: 1, 8: 10}","[5, 8, 11, 52, 67]",52810112521672,Na2Ho2B2Te1O10
Na2Er2B2TeO10,mp-1195435,2.9645,1.8953966,0.0,"{11: 2, 68: 2, 5: 2, 52: 1, 8: 10}","[5, 8, 11, 52, 68]",52810112521682,Na2Er2B2Te1O10
Na2Tm2B2TeO10,mp-1195532,3.1794000000000002,1.85545498,0.0,"{11: 2, 69: 2, 5: 2, 52: 1, 8: 10}","[5, 8, 11, 52, 69]",52810112521692,Na2Tm2B2Te1O10
Na2Lu2B2TeO10,mp-1195028,2.9727,1.91396208,0.0,"{11: 2, 71: 2, 5: 2, 52: 1, 8: 10}","[5, 8, 11, 52, 71]",52810112521712,Na2Lu2B2Te1O10
Mg3Mn3(BO5)2,mp-555830,0.0,3.87772006,0.01663458027779008,"{12: 3, 25: 3, 5: 2, 8: 10}","[5, 8, 12, 25]",52810123253,Mg3Mn3B2O10
Mg5Ti(BO5)2,mp-1222168,0.4541999999999997,3.83670848,0.05841897680555519,"{12: 5, 22: 1, 5: 2, 8: 10}","[5, 8, 12, 22]",52810125221,Mg5Ti1B2O10
Mg5Sn(BO5)2,mp-1198031,3.8299000000000003,7.00146312,0.0,"{12: 5, 50: 1, 5: 2, 8: 10}","[5, 8, 12, 50]",52810125501,Mg5Sn1B2O10
Al4Co(BO5)2,mp-19348,1.7495000000000003,5.97355309,0.11838840042232679,"{13: 4, 27: 1, 5: 2, 8: 10}","[5, 8, 13, 27]",52810134271,Al4Co1B2O10
LaCeSi2(BO5)2,mp-1223448,0.34060000000000024,7.14602723,0.0032409024999378033,"{57: 1, 58: 1, 14: 2, 5: 2, 8: 10}","[5, 8, 14, 57, 58]",52810142571581,La1Ce1Si2B2O10
K2Ge3(BO5)2,mp-560019,3.8682999999999996,0.76516773,0.000907602668823948,"{19: 2, 32: 3, 5: 2, 8: 10}","[5, 8, 19, 32]",52810192323,K2Ge3B2O10
K2B2Se3O10,mp-1202890,4.1143,-0.43353938,0.0,"{19: 2, 5: 2, 34: 3, 8: 10}","[5, 8, 19, 34]",52810192343,K2B2Se3O10
Ca(BO5)2,mp-1192983,0.0,-0.42096385,0.2706736273076995,"{20: 1, 5: 2, 8: 10}","[5, 8, 20]",52810201,Ca1B2O10
CaU2(BO5)2,mp-1227453,2.0258000000000003,0.90178534,0.0,"{20: 1, 92: 2, 5: 2, 8: 10}","[5, 8, 20, 92]",52810201922,Ca1U2B2O10
V5(BO5)2,mp-771822,0.4389000000000003,4.67845587,0.03395622682598187,"{23: 5, 5: 2, 8: 10}","[5, 8, 23]",52810235,V5B2O10
MnCo5(BO5)2,mp-1221855,0.8859999999999997,3.10982363,0.3281880680555602,"{25: 1, 27: 5, 5: 2, 8: 10}","[5, 8, 25, 27]",52810251275,Mn1Co5B2O10
MnZn5(BO5)2,mp-1221663,0.0,2.11972634,0.07695412398148971,"{25: 1, 30: 5, 5: 2, 8: 10}","[5, 8, 25, 30]",52810251305,Mn1Zn5B2O10
Sr2Mn3(BO5)2,mp-1218788,0.008299999999999974,1.97426401,0.18892331481616953,"{38: 2, 25: 3, 5: 2, 8: 10}","[5, 8, 25, 38]",52810253382,Sr2Mn3B2O10
Co5Sn(BO5)2,mp-1226176,0.39120000000000044,4.56749449,0.20159417777777833,"{27: 5, 50: 1, 5: 2, 8: 10}","[5, 8, 27, 50]",52810275501,Co5Sn1B2O10
B2Se3O10,mp-1194590,3.738,3.77655313,0.0,"{5: 2, 34: 3, 8: 10}","[5, 8, 34]",52810343,B2Se3O10
RbB2Se3O10,mp-1196428,0.15960000000000002,0.27902096,0.062407048496099904,"{37: 1, 5: 2, 34: 3, 8: 10}","[5, 8, 34, 37]",52810343371,Rb1B2Se3O10
Mg(AlB14)2,mp-531611,0.7667999999999999,6.16081801,0.0,"{12: 1, 13: 2, 5: 28}","[5, 12, 13]",528121132,Mg1Al2B28
GaB2(PO6)2,mp-1203116,0.0,-0.15531459,0.3016616924387243,"{31: 1, 5: 2, 15: 2, 8: 12}","[5, 8, 15, 31]",52812152311,Ga1B2P2O12
B2Pb6SO12,mp-553930,2.7033000000000005,2.9954303,0.0,"{5: 2, 82: 6, 16: 1, 8: 12}","[5, 8, 16, 82]",52812161826,B2Pb6S1O12
K2B2(SO4)3,mp-1212598,0.5191000000000001,2.07570938,0.33446197179594606,"{19: 2, 5: 2, 16: 3, 8: 12}","[5, 8, 16, 19]",52812163192,K2B2S3O12
K3Nb3(BO6)2,mp-558828,2.3347,0.50472338,0.0,"{19: 3, 41: 3, 5: 2, 8: 12}","[5, 8, 19, 41]",52812193413,K3Nb3B2O12
K3Ta3(BO6)2,mp-9870,2.6703,0.83911712,0.0,"{19: 3, 73: 3, 5: 2, 8: 12}","[5, 8, 19, 73]",52812193733,K3Ta3B2O12
CrB2(PbO2)6,mp-1197022,1.8898000000000001,2.95321062,0.0009535368760253959,"{24: 1, 5: 2, 82: 6, 8: 12}","[5, 8, 24, 82]",52812241826,Cr1B2Pb6O12
B2Mo(PbO2)6,mp-1196917,2.4454000000000002,3.25996041,0.0,"{5: 2, 42: 1, 82: 6, 8: 12}","[5, 8, 42, 82]",52812421826,B2Mo1Pb6O12
B2Pb6WO12,mp-1198358,2.56,5.562958,0.0017165940029757465,"{5: 2, 82: 6, 74: 1, 8: 12}","[5, 8, 74, 82]",52812741826,B2Pb6W1O12
Na5B2P3O13,mp-557836,5.0786999999999995,0.85901406,0.0,"{11: 5, 5: 2, 15: 3, 8: 13}","[5, 8, 11, 15]",52813115153,Na5B2P3O13
Cs2B2S3O13,mp-1019604,5.8455,-0.31399207,0.0,"{55: 2, 5: 2, 16: 3, 8: 13}","[5, 8, 16, 55]",52813163552,Cs2B2S3O13
Mg3B2SO14,mp-1196808,0.0,-0.80888029,0.41960863787499125,"{12: 3, 5: 2, 16: 1, 8: 14}","[5, 8, 12, 16]",52814123161,Mg3B2S1O14
K3LuB2(PO7)2,mp-1181370,0.1966,-0.99306528,0.25200805778707647,"{19: 3, 71: 1, 5: 2, 15: 2, 8: 14}","[5, 8, 15, 19, 71]",52814152193711,K3Lu1B2P2O14
Rb4B2S4O17,mp-1020662,5.153700000000001,4.50269611,0.0,"{37: 4, 5: 2, 16: 4, 8: 17}","[5, 8, 16, 37]",52817164374,Rb4B2S4O17
Al9Cr(BO9)2,mp-1228622,3.9465999999999997,2.65024664,0.003216583100041248,"{13: 9, 24: 1, 5: 2, 8: 18}","[5, 8, 13, 24]",52818139241,Al9Cr1B2O18
K5Mn2B2P5O21,mp-1226339,0.5683,1.26880499,0.0,"{19: 5, 25: 2, 5: 2, 15: 5, 8: 21}","[5, 8, 15, 19, 25]",52821155195252,K5Mn2B2P5O21
K4U5B2O21,mp-1224701,0.14669999999999994,0.69022575,0.0639808456126687,"{19: 4, 92: 5, 5: 2, 8: 21}","[5, 8, 19, 92]",52821194925,K4U5B2O21
Ta(BO)2,mp-1208744,0.0,1.13096935,1.0784908555308643,"{73: 1, 5: 2, 8: 2}","[5, 8, 73]",5282731,Ta1B2O2
B2O3,mp-306,6.3017,-0.41221484,0.0,"{5: 2, 8: 3}","[5, 8]",5283,B2O3