formula,material_id,band_gap,efermi,energy_above_hull,comp_atoms,sorted_keys_comp_atoms,comp_number,new_formula
Nd(BO2)9,mp-1200214,0.0251,-0.28220813,0.1842870664955311,"{60: 1, 5: 9, 8: 18}","[5, 8, 60]",59818601,Nd1B9O18
KBa2Zn3B9O19,mp-1223606,3.6287,4.65085096,0.0072490011396952,"{19: 1, 56: 2, 30: 3, 5: 9, 8: 19}","[5, 8, 19, 30, 56]",59819191303562,K1Ba2Zn3B9O19
U2B9O22,mp-1217131,0.0722999999999999,0.31916414,0.1284271689772751,"{92: 2, 5: 9, 8: 22}","[5, 8, 92]",59822922,U2B9O22