formula,material_id,band_gap,efermi,energy_above_hull,comp_atoms,sorted_keys_comp_atoms,comp_number,new_formula
GdReB4,mp-1191130,0.0,6.80994988,0.0,"{64: 1, 75: 1, 5: 4}","[5, 64, 75]",54641751,Gd1Re1B4
GdB4Os,mp-1191685,0.0,7.03466814,0.0,"{64: 1, 5: 4, 76: 1}","[5, 64, 76]",54641761,Gd1B4Os1
Gd(BIr)4,mp-1106191,0.0,7.54021382,0.0,"{64: 1, 5: 4, 77: 4}","[5, 64, 77]",54641774,Gd1B4Ir4
TbB4,mp-568225,0.0,5.92258972,0.0,"{65: 1, 5: 4}","[5, 65]",54651,Tb1B4
TbB4W,mp-1191902,0.5609000000000002,6.28606857,0.0,"{65: 1, 5: 4, 74: 1}","[5, 65, 74]",54651741,Tb1B4W1
TbReB4,mp-1192121,0.0,7.01522449,0.0,"{65: 1, 75: 1, 5: 4}","[5, 65, 75]",54651751,Tb1Re1B4
TbB4Os,mp-1192125,0.0,7.22330202,0.0,"{65: 1, 5: 4, 76: 1}","[5, 65, 76]",54651761,Tb1B4Os1
Tb(BIr)4,mp-978921,0.0,7.65367882,0.0,"{65: 1, 5: 4, 77: 4}","[5, 65, 77]",54651774,Tb1B4Ir4
DyB4,mp-2719,0.0,5.90631589,0.0,"{66: 1, 5: 4}","[5, 66]",54661,Dy1B4
DyB4W,mp-1192160,0.5661000000000005,6.27687614,0.0,"{66: 1, 5: 4, 74: 1}","[5, 66, 74]",54661741,Dy1B4W1
DyReB4,mp-1190368,0.0,7.01085164,0.0,"{66: 1, 75: 1, 5: 4}","[5, 66, 75]",54661751,Dy1Re1B4
DyB4Os,mp-1192250,0.0,7.22103093,0.0,"{66: 1, 5: 4, 76: 1}","[5, 66, 76]",54661761,Dy1B4Os1
HoB4,mp-569281,0.0,5.8557998,0.0,"{67: 1, 5: 4}","[5, 67]",54671,Ho1B4
HoB4W,mp-976384,0.2705000000000002,6.53438946,0.0,"{67: 1, 5: 4, 74: 1}","[5, 67, 74]",54671741,Ho1B4W1
HoReB4,mp-975064,0.0,6.97178529,0.0,"{67: 1, 75: 1, 5: 4}","[5, 67, 75]",54671751,Ho1Re1B4
HoB4Os,mp-1190601,0.0,7.18249368,0.0,"{67: 1, 5: 4, 76: 1}","[5, 67, 76]",54671761,Ho1B4Os1
ErB4,mp-2847,0.0,5.88881192,0.0,"{68: 1, 5: 4}","[5, 68]",54681,Er1B4
ErB4W,mp-1192093,0.5911,6.25470356,0.0,"{68: 1, 5: 4, 74: 1}","[5, 68, 74]",54681741,Er1B4W1
ErReB4,mp-1190444,0.0,7.01395365,0.002135527500001011,"{68: 1, 75: 1, 5: 4}","[5, 68, 75]",54681751,Er1Re1B4
ErB4Os,mp-1191929,0.0,7.21310137,0.0,"{68: 1, 5: 4, 76: 1}","[5, 68, 76]",54681761,Er1B4Os1
Er(BIr)4,mp-1189046,0.0,8.28938245,0.0,"{68: 1, 5: 4, 77: 4}","[5, 68, 77]",54681774,Er1B4Ir4
TmB4,mp-568143,0.0,5.86685332,0.0,"{69: 1, 5: 4}","[5, 69]",54691,Tm1B4
TmB4Os,mp-982777,0.0,7.20090927,0.0,"{69: 1, 5: 4, 76: 1}","[5, 69, 76]",54691761,Tm1B4Os1
Tm(BIr)4,mp-1178924,0.0,8.31604676,0.0,"{69: 1, 5: 4, 77: 4}","[5, 69, 77]",54691774,Tm1B4Ir4
LuB4,mp-571495,0.0,5.86642379,0.0,"{71: 1, 5: 4}","[5, 71]",54711,Lu1B4
LuB4Os,mp-973529,0.0,7.21169195,0.0,"{71: 1, 5: 4, 76: 1}","[5, 71, 76]",54711761,Lu1B4Os1
HfTaB4,mp-1224283,0.0,8.45009425,0.0,"{72: 1, 73: 1, 5: 4}","[5, 72, 73]",54721731,Hf1Ta1B4
HfTa5B4,mp-1224295,0.24979999999999958,6.30618181,0.06242481583332449,"{72: 1, 73: 5, 5: 4}","[5, 72, 73]",54721735,Hf1Ta5B4
HfB4Ir3,mp-13861,0.0,9.0003017,0.0,"{72: 1, 5: 4, 77: 3}","[5, 72, 77]",54721773,Hf1B4Ir3
B4N2O11,mp-1204080,2.1279,-2.19098755,0.548321473909307,"{5: 4, 7: 2, 8: 11}","[5, 7, 8]",5472811,B4N2O11
TaB4,mp-1189303,0.0,8.91357078,0.4599013963333327,"{73: 1, 5: 4}","[5, 73]",54731,Ta1B4
TaB4W3,mp-1217974,0.0,8.55909176,0.005516900312500184,"{73: 1, 5: 4, 74: 3}","[5, 73, 74]",54731743,Ta1B4W3
Ta3B4,mp-10142,0.0,8.29819989,0.0,"{73: 3, 5: 4}","[5, 73]",54733,Ta3B4
Ta3B4W3,mp-1217992,0.0,7.79939881,0.10818807600000468,"{73: 3, 5: 4, 74: 3}","[5, 73, 74]",54733743,Ta3B4W3
Ta3Re3B4,mp-1218054,0.0,7.81126069,0.2423311450000014,"{73: 3, 75: 3, 5: 4}","[5, 73, 75]",54733753,Ta3Re3B4
B4W,mp-29651,0.0,9.28465024,0.6008436473333347,"{5: 4, 74: 1}","[5, 74]",54741,B4W1
B4OsW,mp-1228631,0.0,7.9375582,0.0,"{5: 4, 76: 1, 74: 1}","[5, 74, 76]",54741761,B4Os1W1
ThB4W,mp-1102822,0.0,8.39848503,0.0,"{90: 1, 5: 4, 74: 1}","[5, 74, 90]",54741901,Th1B4W1
UB4W,mp-1103255,0.0,9.9199993,0.0,"{92: 1, 5: 4, 74: 1}","[5, 74, 92]",54741921,U1B4W1
PuB4W,mp-1191218,0.0,9.85134644,0.0,"{94: 1, 5: 4, 74: 1}","[5, 74, 94]",54741941,Pu1B4W1
ReB4,mp-1190213,0.0,9.09300222,0.814596086333335,"{75: 1, 5: 4}","[5, 75]",54751,Re1B4
ThReB4,mp-1101769,0.0,8.44890117,0.0,"{90: 1, 75: 1, 5: 4}","[5, 75, 90]",54751901,Th1Re1B4
UReB4,mp-1102585,0.0,10.28868724,0.0,"{92: 1, 75: 1, 5: 4}","[5, 75, 92]",54751921,U1Re1B4
PuReB4,mp-1192270,0.0,10.03410759,0.0,"{94: 1, 75: 1, 5: 4}","[5, 75, 94]",54751941,Pu1Re1B4
B4Os,mp-1188147,0.0,9.06616852,0.7827130438333327,"{5: 4, 76: 1}","[5, 76]",54761,B4Os1
UB4Os,mp-1095488,0.0,10.69388758,0.0,"{92: 1, 5: 4, 76: 1}","[5, 76, 92]",54761921,U1B4Os1
PuB4Os,mp-1191689,0.0,10.59549533,0.0,"{94: 1, 5: 4, 76: 1}","[5, 76, 94]",54761941,Pu1B4Os1
Th(BOs)4,mp-1179056,0.24289999999999967,8.16085064,0.0,"{90: 1, 5: 4, 76: 4}","[5, 76, 90]",54764901,Th1B4Os4
U(BOs)4,mp-1196935,0.0,9.65402133,0.05816864500001806,"{92: 1, 5: 4, 76: 4}","[5, 76, 92]",54764921,U1B4Os4
Th(BIr)4,mp-1106302,0.0,8.78765491,0.0,"{90: 1, 5: 4, 77: 4}","[5, 77, 90]",54774901,Th1B4Ir4
Pu(BIr)4,mp-1188783,0.0,9.41436321,0.171694044658123,"{94: 1, 5: 4, 77: 4}","[5, 77, 94]",54774941,Pu1B4Ir4
La5B4N9,mp-29594,1.3068,7.63554731,0.01138557613426272,"{57: 5, 5: 4, 7: 9}","[5, 7, 57]",5479575,La5B4N9
SrBi2(B2O5)2,mp-559364,3.6402,2.38602501,0.0,"{38: 1, 83: 2, 5: 4, 8: 10}","[5, 8, 38, 83]",54810381832,Sr1Bi2B4O10
Na2B4O11,mp-1197879,0.0,-1.39869702,0.36497825250000027,"{11: 2, 5: 4, 8: 11}","[5, 8, 11]",54811112,Na2B4O11
K2GeB4O11,mp-1201387,0.7281,-0.50520154,0.24604896132372023,"{19: 2, 32: 1, 5: 4, 8: 11}","[5, 8, 19, 32]",54811192321,K2Ge1B4O11
Sr2Sc2B4O11,mp-556123,4.3474,1.71480038,0.006372859671047948,"{38: 2, 21: 2, 5: 4, 8: 11}","[5, 8, 21, 38]",54811212382,Sr2Sc2B4O11
Pr4B4O11F2,mp-1197562,5.0600000000000005,2.69065652,0.00614346543651223,"{59: 4, 5: 4, 8: 11, 9: 2}","[5, 8, 9, 59]",5481192594,Pr4B4O11F2
Nd4B4O11F2,mp-1202742,5.1175,2.63552854,0.020745000664682323,"{60: 4, 5: 4, 8: 11, 9: 2}","[5, 8, 9, 60]",5481192604,Nd4B4O11F2
Eu4B4O11F2,mp-1199066,0.0,2.09373466,0.015571090714287195,"{63: 4, 5: 4, 8: 11, 9: 2}","[5, 8, 9, 63]",5481192634,Eu4B4O11F2
Gd4B4O11F2,mp-1203805,2.9050000000000002,2.52216848,0.032976649520501056,"{64: 4, 5: 4, 8: 11, 9: 2}","[5, 8, 9, 64]",5481192644,Gd4B4O11F2
Dy4B4O11F2,mp-1196433,5.4755,2.69850782,0.03083112857141934,"{66: 4, 5: 4, 8: 11, 9: 2}","[5, 8, 9, 66]",5481192664,Dy4B4O11F2
AlGa2Bi(BO3)4,mp-1228994,3.9445,7.31579425,0.02170457603844067,"{13: 1, 31: 2, 83: 1, 5: 4, 8: 12}","[5, 8, 13, 31, 83]",54812131312831,Al1Ga2Bi1B4O12
PrAl3(BO3)4,mp-556804,5.076200000000001,3.57728748,0.004962011269244115,"{59: 1, 13: 3, 5: 4, 8: 12}","[5, 8, 13, 59]",54812133591,Pr1Al3B4O12
NdAl3(BO3)4,mp-6535,4.873199999999999,3.44646379,0.00803556386297366,"{60: 1, 13: 3, 5: 4, 8: 12}","[5, 8, 13, 60]",54812133601,Nd1Al3B4O12
SmAl3(BO3)4,mp-1208886,5.3057,3.34428208,0.005708880644224479,"{62: 1, 13: 3, 5: 4, 8: 12}","[5, 8, 13, 62]",54812133621,Sm1Al3B4O12
EuAl3(BO3)4,mp-1019731,0.0,3.19503713,0.005616199538422961,"{63: 1, 13: 3, 5: 4, 8: 12}","[5, 8, 13, 63]",54812133631,Eu1Al3B4O12
GdAl3(BO3)4,mp-15359,2.8774,3.40644438,0.003965231175529382,"{64: 1, 13: 3, 5: 4, 8: 12}","[5, 8, 13, 64]",54812133641,Gd1Al3B4O12
TbAl3(BO3)4,mp-1208321,5.5144,3.38323391,0.004095639144257035,"{65: 1, 13: 3, 5: 4, 8: 12}","[5, 8, 13, 65]",54812133651,Tb1Al3B4O12
DyAl3(BO3)4,mp-1212827,5.543100000000001,3.37661859,0.0040464348942350625,"{66: 1, 13: 3, 5: 4, 8: 12}","[5, 8, 13, 66]",54812133661,Dy1Al3B4O12
HoAl3(BO3)4,mp-1212105,5.5914,3.35746265,0.0037308069567565383,"{67: 1, 13: 3, 5: 4, 8: 12}","[5, 8, 13, 67]",54812133671,Ho1Al3B4O12
ErAl3(BO3)4,mp-1106277,5.616599999999999,3.5508544,0.0039156121442225356,"{68: 1, 13: 3, 5: 4, 8: 12}","[5, 8, 13, 68]",54812133681,Er1Al3B4O12
TmAl3(BO3)4,mp-13516,5.6716,3.53789397,0.004284325425500057,"{69: 1, 13: 3, 5: 4, 8: 12}","[5, 8, 13, 69]",54812133691,Tm1Al3B4O12
Al3Bi(BO3)4,mp-1214839,4.162300000000001,4.30761485,0.013364509519282919,"{13: 3, 83: 1, 5: 4, 8: 12}","[5, 8, 13, 83]",54812133831,Al3Bi1B4O12
LaSc3(BO3)4,mp-6217,4.2334,2.70776222,0.0,"{57: 1, 21: 3, 5: 4, 8: 12}","[5, 8, 21, 57]",54812213571,La1Sc3B4O12
CeSc3(BO3)4,mp-16097,0.2621000000000002,5.51685817,0.0,"{58: 1, 21: 3, 5: 4, 8: 12}","[5, 8, 21, 58]",54812213581,Ce1Sc3B4O12
PrSc3(BO3)4,mp-18677,4.1066,1.93578874,0.0,"{59: 1, 21: 3, 5: 4, 8: 12}","[5, 8, 21, 59]",54812213591,Pr1Sc3B4O12
TbSc3(BO3)4,mp-1217508,4.0709,1.98117491,0.00019450081249239304,"{65: 1, 21: 3, 5: 4, 8: 12}","[5, 8, 21, 65]",54812213651,Tb1Sc3B4O12
GdCr3(BO3)4,mp-1105604,0.5184000000000002,2.64768657,0.0040652318333318505,"{64: 1, 24: 3, 5: 4, 8: 12}","[5, 8, 24, 64]",54812243641,Gd1Cr3B4O12
Zn3Cd3(BO3)4,mp-1215644,2.2477,0.68606353,0.019196503068178217,"{30: 3, 48: 3, 5: 4, 8: 12}","[5, 8, 30, 48]",54812303483,Zn3Cd3B4O12
NdGa3(BO3)4,mp-561187,4.3389999999999995,2.23576176,0.014284961135416552,"{60: 1, 31: 3, 5: 4, 8: 12}","[5, 8, 31, 60]",54812313601,Nd1Ga3B4O12
SmGa3(BO3)4,mp-1208640,4.6969,2.11863601,0.013011921166668827,"{62: 1, 31: 3, 5: 4, 8: 12}","[5, 8, 31, 62]",54812313621,Sm1Ga3B4O12
EuGa3(BO3)4,mp-1212739,0.0,2.01026923,0.004790611291666913,"{63: 1, 31: 3, 5: 4, 8: 12}","[5, 8, 31, 63]",54812313631,Eu1Ga3B4O12
GdGa3(BO3)4,mp-1212375,2.6825,2.0610337,0.012493486697920275,"{64: 1, 31: 3, 5: 4, 8: 12}","[5, 8, 31, 64]",54812313641,Gd1Ga3B4O12
TbGa3(BO3)4,mp-1208326,4.7172,2.11814013,0.014086737666667126,"{65: 1, 31: 3, 5: 4, 8: 12}","[5, 8, 31, 65]",54812313651,Tb1Ga3B4O12
DyGa3(BO3)4,mp-1212835,4.4185,2.11459506,0.014840634416666276,"{66: 1, 31: 3, 5: 4, 8: 12}","[5, 8, 31, 66]",54812313661,Dy1Ga3B4O12
Rb3La3(BO3)4,mp-1209773,3.8383000000000003,2.09647724,0.0,"{37: 3, 57: 3, 5: 4, 8: 12}","[5, 8, 37, 57]",54812373573,Rb3La3B4O12
Sr3La2(BO3)4,mp-12295,4.1562,2.82368843,0.0033127453571459853,"{38: 3, 57: 2, 5: 4, 8: 12}","[5, 8, 38, 57]",54812383572,Sr3La2B4O12
Sr3Pr2(BO3)4,mp-6803,4.5407,1.88697021,0.0008192816666667824,"{38: 3, 59: 2, 5: 4, 8: 12}","[5, 8, 38, 59]",54812383592,Sr3Pr2B4O12
Sr3Nd2(BO3)4,mp-6249,4.569699999999999,1.83086611,0.0032457074999996394,"{38: 3, 60: 2, 5: 4, 8: 12}","[5, 8, 38, 60]",54812383602,Sr3Nd2B4O12
Sr3Sm2(BO3)4,mp-1209534,4.5184999999999995,6.28358897,0.006314099999993772,"{38: 3, 62: 2, 5: 4, 8: 12}","[5, 8, 38, 62]",54812383622,Sr3Sm2B4O12
Sr3Gd2(BO3)4,mp-1211958,2.5819,4.32348214,0.016784608968253067,"{38: 3, 64: 2, 5: 4, 8: 12}","[5, 8, 38, 64]",54812383642,Sr3Gd2B4O12
Sr3Tb2(BO3)4,mp-1209532,4.525600000000001,6.36832144,0.0,"{38: 3, 65: 2, 5: 4, 8: 12}","[5, 8, 38, 65]",54812383652,Sr3Tb2B4O12
Sr3Dy2(BO3)4,mp-1209630,4.5247,6.37533561,0.010409767916664592,"{38: 3, 66: 2, 5: 4, 8: 12}","[5, 8, 38, 66]",54812383662,Sr3Dy2B4O12
Sr3Ho2(BO3)4,mp-1209645,4.5049,6.34546958,0.027927584404761063,"{38: 3, 67: 2, 5: 4, 8: 12}","[5, 8, 38, 67]",54812383672,Sr3Ho2B4O12
Sr3Er2(BO3)4,mp-13960,4.476699999999999,1.93782754,0.026494432738090268,"{38: 3, 68: 2, 5: 4, 8: 12}","[5, 8, 38, 68]",54812383682,Sr3Er2B4O12
Cd3B4(PbO4)3,mp-1196945,2.6739999999999995,2.01346044,0.0,"{48: 3, 5: 4, 82: 3, 8: 12}","[5, 8, 48, 82]",54812483823,Cd3B4Pb3O12
Nd5(BO3)4,mp-1211058,0.0,6.35366783,0.1674672123129266,"{60: 5, 5: 4, 8: 12}","[5, 8, 60]",54812605,Nd5B4O12
Ca2Mg2B4O13,mp-1214382,0.0,0.59239817,0.2574565053571476,"{20: 2, 12: 2, 5: 4, 8: 13}","[5, 8, 12, 20]",54813122202,Ca2Mg2B4O13
Ca2Mn2B4O13,mp-1201306,0.0,1.77832087,0.27853118750000405,"{20: 2, 25: 2, 5: 4, 8: 13}","[5, 8, 20, 25]",54813202252,Ca2Mn2B4O13
B4Pb6O13,mp-1201222,0.0054000000000002935,3.43391786,0.09352456813663146,"{5: 4, 82: 6, 8: 13}","[5, 8, 82]",54813826,B4Pb6O13
Na2SrAl4(B2O7)2,mp-1221313,2.4779,4.11309063,0.02410350180000087,"{11: 2, 38: 1, 13: 4, 5: 4, 8: 14}","[5, 8, 11, 13, 38]",54814112134381,Na2Sr1Al4B4O14
Ca2Ga2Bi(B2O7)2,mp-695449,1.6425999999999998,3.05135732,0.5530432812500274,"{20: 2, 31: 2, 83: 1, 5: 4, 8: 14}","[5, 8, 20, 31, 83]",54814202312831,Ca2Ga2Bi1B4O14
Na4B4Sb2SO16,mp-769713,1.8820000000000001,1.56023891,0.05415617092592662,"{11: 4, 5: 4, 51: 2, 16: 1, 8: 16}","[5, 8, 11, 16, 51]",54816114161512,Na4B4Sb2S1O16
Na4Bi2B4SO16,mp-779161,0.07789999999999997,0.98437931,0.06874508384259759,"{11: 4, 83: 2, 5: 4, 16: 1, 8: 16}","[5, 8, 11, 16, 83]",54816114161832,Na4Bi2B4S1O16
Na6V2B4PO16,mp-780410,0.0,1.15351109,0.07204705172417114,"{11: 6, 23: 2, 5: 4, 15: 1, 8: 16}","[5, 8, 11, 15, 23]",54816116151232,Na6V2B4P1O16
Na6Cr2B4PO16,mp-780628,0.0,0.7572841,0.10237354787562403,"{11: 6, 24: 2, 5: 4, 15: 1, 8: 16}","[5, 8, 11, 15, 24]",54816116151242,Na6Cr2B4P1O16
Na6Mn2B4PO16,mp-780414,0.0,0.66556765,0.04942811225779664,"{11: 6, 25: 2, 5: 4, 15: 1, 8: 16}","[5, 8, 11, 15, 25]",54816116151252,Na6Mn2B4P1O16
Na6B4Sb2PO16,mp-780399,0.0,3.5644045,0.08115137247690374,"{11: 6, 5: 4, 51: 2, 15: 1, 8: 16}","[5, 8, 11, 15, 51]",54816116151512,Na6B4Sb2P1O16
Na6Bi2B4PO16,mp-780229,0.0,1.5527579,0.0461632785860564,"{11: 6, 83: 2, 5: 4, 15: 1, 8: 16}","[5, 8, 11, 15, 83]",54816116151832,Na6Bi2B4P1O16
Na6V2B4SO16,mp-781738,0.0,2.06779066,0.015104564330854053,"{11: 6, 23: 2, 5: 4, 16: 1, 8: 16}","[5, 8, 11, 16, 23]",54816116161232,Na6V2B4S1O16
Na6Cr2B4SO16,mp-850803,0.0,1.16161342,0.04964315747126147,"{11: 6, 24: 2, 5: 4, 16: 1, 8: 16}","[5, 8, 11, 16, 24]",54816116161242,Na6Cr2B4S1O16
Na6Mn2B4SO16,mp-770500,1.2253999999999998,1.07691868,0.022798910689669327,"{11: 6, 25: 2, 5: 4, 16: 1, 8: 16}","[5, 8, 11, 16, 25]",54816116161252,Na6Mn2B4S1O16
Na6Co2B4SO16,mp-780413,0.14069999999999983,1.40388436,0.0680509356034511,"{11: 6, 27: 2, 5: 4, 16: 1, 8: 16}","[5, 8, 11, 16, 27]",54816116161272,Na6Co2B4S1O16
Na6Sn2B4SO16,mp-780239,3.4322999999999997,1.42683764,0.0,"{11: 6, 50: 2, 5: 4, 16: 1, 8: 16}","[5, 8, 11, 16, 50]",54816116161502,Na6Sn2B4S1O16
Na6B4Sb2SO16,mp-780353,0.0,3.72354871,0.07268987012932016,"{11: 6, 5: 4, 51: 2, 16: 1, 8: 16}","[5, 8, 11, 16, 51]",54816116161512,Na6B4Sb2S1O16
Na6Bi2B4SO16,mp-779289,0.18359999999999999,1.74989118,0.01783637965517748,"{11: 6, 83: 2, 5: 4, 16: 1, 8: 16}","[5, 8, 11, 16, 83]",54816116161832,Na6Bi2B4S1O16
Na6V2B4AsO16,mp-850371,0.0,1.05533057,0.11046725310345717,"{11: 6, 23: 2, 5: 4, 33: 1, 8: 16}","[5, 8, 11, 23, 33]",54816116232331,Na6V2B4As1O16
Na6Mn2B4AsO16,mp-770785,0.0,0.5100599,0.06967308395525507,"{11: 6, 25: 2, 5: 4, 33: 1, 8: 16}","[5, 8, 11, 25, 33]",54816116252331,Na6Mn2B4As1O16
Na6Bi2B4AsO16,mp-780412,0.0,1.44356607,0.06102983373680093,"{11: 6, 83: 2, 5: 4, 33: 1, 8: 16}","[5, 8, 11, 33, 83]",54816116331832,Na6Bi2B4As1O16
Mg(BO4)4,mp-1181233,0.0464,-1.39915515,0.6145071761904743,"{12: 1, 5: 4, 8: 16}","[5, 8, 12]",54816121,Mg1B4O16
Mg3Mn5(BO4)4,mp-770722,0.5023,3.28900413,0.0,"{12: 3, 25: 5, 5: 4, 8: 16}","[5, 8, 12, 25]",54816123255,Mg3Mn5B4O16
Mn(BO4)4,mp-1202491,0.058000000000000274,-2.19368377,0.5705951608333315,"{25: 1, 5: 4, 8: 16}","[5, 8, 25]",54816251,Mn1B4O16
Na2B4O17,mp-1180429,0.14650000000000007,-1.59439883,0.3624039089130431,"{11: 2, 5: 4, 8: 17}","[5, 8, 11]",54817112,Na2B4O17
Ho9B4O19,mp-757752,0.2656999999999998,5.5920866,0.054626699372398946,"{67: 9, 5: 4, 8: 19}","[5, 8, 67]",54819679,Ho9B4O19
Mg10TiSn(BO5)4,mp-1222637,3.2487,2.98721951,0.0,"{12: 10, 22: 1, 50: 1, 5: 4, 8: 20}","[5, 8, 12, 22, 50]",548201210221501,Mg10Ti1Sn1B4O20
MgV12(BO5)4,mp-1233229,0.0694000000000008,5.572527,0.13985976692005408,"{12: 1, 23: 12, 5: 4, 8: 20}","[5, 8, 12, 23]",548201212312,Mg1V12B4O20
MgCo12(BO5)4,mp-1234270,0.0,3.50322001,0.2961460542483101,"{12: 1, 27: 12, 5: 4, 8: 20}","[5, 8, 12, 27]",548201212712,Mg1Co12B4O20
Co11B4SbO20,mp-1226643,0.0,3.66950471,0.17851156249999978,"{27: 11, 5: 4, 51: 1, 8: 20}","[5, 8, 27, 51]",548202711511,Co11B4Sb1O20
Ca4Ce2TiSi4(BO6)4,mp-728512,3.9650000000000003,0.41100739,0.028375832884666607,"{20: 4, 58: 2, 22: 1, 14: 4, 5: 4, 8: 24}","[5, 8, 14, 20, 22, 58]",54824144204221582,Ca4Ce2Ti1Si4B4O24
La13(B2O13)2,mp-1196229,0.0,4.70649049,0.0,"{57: 13, 5: 4, 8: 26}","[5, 8, 57]",548265713,La13B4O26
Nd13(B2O13)2,mp-1203797,0.0,1.7537466,0.0020745589534794107,"{60: 13, 5: 4, 8: 26}","[5, 8, 60]",548266013,Nd13B4O26
Na2B4O7,mp-17941,4.618,0.1179451,0.0,"{11: 2, 5: 4, 8: 7}","[5, 8, 11]",5487112,Na2B4O7
MgB4O7,mp-14234,5.7433000000000005,0.60928972,0.0,"{12: 1, 5: 4, 8: 7}","[5, 8, 12]",5487121,Mg1B4O7
K2B4O7,mp-17166,4.821,0.12766551,0.0,"{19: 2, 5: 4, 8: 7}","[5, 8, 19]",5487192,K2B4O7
CaB4O7,mp-556214,6.1768,1.29259323,0.0,"{20: 1, 5: 4, 8: 7}","[5, 8, 20]",5487201,Ca1B4O7
MnB4O7,mp-12209,4.7101999999999995,0.70805301,0.0,"{25: 1, 5: 4, 8: 7}","[5, 8, 25]",5487251,Mn1B4O7
CoB4O7,mp-22829,3.2709,0.47738497,0.03317740144676051,"{27: 1, 5: 4, 8: 7}","[5, 8, 27]",5487271,Co1B4O7
ZnB4O7,mp-12233,4.6601,0.04501334,0.0,"{30: 1, 5: 4, 8: 7}","[5, 8, 30]",5487301,Zn1B4O7
Rb2B4O7,mp-16980,4.594,0.26199016,0.0,"{37: 2, 5: 4, 8: 7}","[5, 8, 37]",5487372,Rb2B4O7
SrB4O7,mp-5540,7.1190999999999995,3.13841072,0.006822391793981808,"{38: 1, 5: 4, 8: 7}","[5, 8, 38]",5487381,Sr1B4O7
CdB4O7,mp-13603,3.9877000000000002,0.00712637,0.0,"{48: 1, 5: 4, 8: 7}","[5, 8, 48]",5487481,Cd1B4O7
SnB4O7,mp-13252,3.571999999999999,5.1445037,0.0,"{50: 1, 5: 4, 8: 7}","[5, 8, 50]",5487501,Sn1B4O7
EuB4O7,mp-8109,1.912399999999999,7.42890695,0.0,"{63: 1, 5: 4, 8: 7}","[5, 8, 63]",5487631,Eu1B4O7
HgB4O7,mp-16585,2.5834,0.06105233,0.0,"{80: 1, 5: 4, 8: 7}","[5, 8, 80]",5487801,Hg1B4O7
Tl2B4O7,mp-16457,3.3162000000000003,1.65228436,0.0,"{81: 2, 5: 4, 8: 7}","[5, 8, 81]",5487812,Tl2B4O7
B4PbO7,mp-9747,4.208499999999999,4.54912917,0.0,"{5: 4, 82: 1, 8: 7}","[5, 8, 82]",5487821,B4Pb1O7
LaB4ClO8,mp-1194424,0.0,1.44524354,0.12558115926588442,"{57: 1, 5: 4, 17: 1, 8: 8}","[5, 8, 17, 57]",5488171571,La1B4Cl1O8
CeB4ClO8,mp-1193133,0.0,1.31831097,0.10985091744791298,"{58: 1, 5: 4, 17: 1, 8: 8}","[5, 8, 17, 58]",5488171581,Ce1B4Cl1O8
PrB4ClO8,mp-1193360,0.0,0.8174858,0.10766384333333434,"{59: 1, 5: 4, 17: 1, 8: 8}","[5, 8, 17, 59]",5488171591,Pr1B4Cl1O8
NdB4ClO8,mp-1194357,0.0,0.81137521,0.11441767273809234,"{60: 1, 5: 4, 17: 1, 8: 8}","[5, 8, 17, 60]",5488171601,Nd1B4Cl1O8
PuB4ClO8,mp-1192622,0.0,2.68509453,0.04096450916666683,"{94: 1, 5: 4, 17: 1, 8: 8}","[5, 8, 17, 94]",5488171941,Pu1B4Cl1O8
Th(BO2)4,mp-1194365,4.4289,4.229028,0.0,"{90: 1, 5: 4, 8: 8}","[5, 8, 90]",5488901,Th1B4O8
U(BO2)4,mp-1194254,0.0,7.07969332,0.036986485256406354,"{92: 1, 5: 4, 8: 8}","[5, 8, 92]",5488921,U1B4O8
Na3GaB4O9,mp-766463,4.3701,0.75205273,0.0,"{11: 3, 31: 1, 5: 4, 8: 9}","[5, 8, 11, 31]",5489113311,Na3Ga1B4O9
Cs2SiB4O9,mp-1226151,4.8121,0.75660169,0.0,"{55: 2, 14: 1, 5: 4, 8: 9}","[5, 8, 14, 55]",5489141552,Cs2Si1B4O9
Rb2GeB4O9,mp-1020707,3.8449,0.00921541,0.0,"{37: 2, 32: 1, 5: 4, 8: 9}","[5, 8, 32, 37]",5489321372,Rb2Ge1B4O9
Cs2GeB4O9,mp-1226455,4.274900000000001,4.7353922,0.0,"{55: 2, 32: 1, 5: 4, 8: 9}","[5, 8, 32, 55]",5489321552,Cs2Ge1B4O9
La2B4O9,mp-752449,4.491899999999999,4.48223821,0.008158094066667232,"{57: 2, 5: 4, 8: 9}","[5, 8, 57]",5489572,La2B4O9
Sm2B4O9,mp-768280,5.126399999999999,2.70012698,0.010028034666648367,"{62: 2, 5: 4, 8: 9}","[5, 8, 62]",5489622,Sm2B4O9
Eu2B4O9,mp-1213631,0.0,2.83581557,0.018881749222224187,"{63: 2, 5: 4, 8: 9}","[5, 8, 63]",5489632,Eu2B4O9
Gd2B4O9,mp-31369,2.8237,2.65502784,0.02121804331942556,"{64: 2, 5: 4, 8: 9}","[5, 8, 64]",5489642,Gd2B4O9
Tb2B4O9,mp-1208709,5.514400000000001,2.92121416,0.010921250033332441,"{65: 2, 5: 4, 8: 9}","[5, 8, 65]",5489652,Tb2B4O9
Dy2B4O9,mp-16600,5.6245,2.96433081,0.01847847499998423,"{66: 2, 5: 4, 8: 9}","[5, 8, 66]",5489662,Dy2B4O9
Ho2B4O9,mp-768301,5.659700000000001,2.85244328,0.03068925958331903,"{67: 2, 5: 4, 8: 9}","[5, 8, 67]",5489672,Ho2B4O9
Er2B4O9,mp-756914,5.6886,2.83859785,0.03405312616666478,"{68: 2, 5: 4, 8: 9}","[5, 8, 68]",5489682,Er2B4O9
Lu2B4O9,mp-772781,5.469799999999999,2.94989759,0.04047869591666853,"{71: 2, 5: 4, 8: 9}","[5, 8, 71]",5489712,Lu2B4O9
ThB4,mp-542573,0.0,8.63595444,0.0,"{90: 1, 5: 4}","[5, 90]",54901,Th1B4
UB4,mp-619,0.0,10.40772114,0.0,"{92: 1, 5: 4}","[5, 92]",54921,U1B4
NpB4,mp-1188425,0.0,10.43633868,0.0,"{93: 1, 5: 4}","[5, 93]",54931,Np1B4
PuNpB4,mp-1219654,0.0,12.44415821,0.017354744791667542,"{94: 1, 93: 1, 5: 4}","[5, 93, 94]",54931941,Pu1Np1B4
PuB4,mp-20467,0.0,9.96884724,0.0,"{94: 1, 5: 4}","[5, 94]",54941,Pu1B4
B4PF9,mp-27426,5.712,-2.83477602,0.2263979008035708,"{5: 4, 15: 1, 9: 9}","[5, 9, 15]",5499151,B4P1F9