formula,material_id,band_gap,efermi,energy_above_hull,comp_atoms,sorted_keys_comp_atoms,comp_number,new_formula
Cr5B3,mp-15617,0.0,7.83437859,0.0419593625000001,"{24: 5, 5: 3}","[5, 24]",53245,Cr5B3
Co(BMo)3,mp-1104546,0.0,8.85369442,0.0,"{27: 1, 5: 3, 42: 3}","[5, 27, 42]",53271423,Co1B3Mo3
Co(BRh2)3,mp-1226641,0.0,6.90926389,0.016992745499997852,"{27: 1, 5: 3, 45: 6}","[5, 27, 45]",53271456,Co1B3Rh6
Gd2CoB3,mp-1224781,0.0,4.78741773,0.13349496116666515,"{64: 2, 27: 1, 5: 3}","[5, 27, 64]",53271642,Gd2Co1B3
Co(BW)3,mp-27768,0.0,8.3250791,0.0,"{27: 1, 5: 3, 74: 3}","[5, 27, 74]",53271743,Co1B3W3
Nd2Co23B3,mp-1210590,0.0,5.38520543,0.01994881309254204,"{60: 2, 27: 23, 5: 3}","[5, 27, 60]",532723602,Nd2Co23B3
Ce2Co7B3,mp-504616,0.0,7.36030303,0.01970690697916755,"{58: 2, 27: 7, 5: 3}","[5, 27, 58]",53277582,Ce2Co7B3
Pr2Co7B3,mp-3867,0.0,5.48858878,0.03245456052755369,"{59: 2, 27: 7, 5: 3}","[5, 27, 59]",53277592,Pr2Co7B3
Nd2Co7B3,mp-582394,0.0,5.43555639,0.02259377619670211,"{60: 2, 27: 7, 5: 3}","[5, 27, 60]",53277602,Nd2Co7B3
Sm2Co7B3,mp-505207,0.0,5.44215602,0.016320948737757135,"{62: 2, 27: 7, 5: 3}","[5, 27, 62]",53277622,Sm2Co7B3
Tb2Co7B3,mp-1191177,0.0,5.46957537,0.0010380782031207403,"{65: 2, 27: 7, 5: 3}","[5, 27, 65]",53277652,Tb2Co7B3
Dy2Co7B3,mp-569158,0.0,5.30997019,0.0020435510984793126,"{66: 2, 27: 7, 5: 3}","[5, 27, 66]",53277662,Dy2Co7B3
Ho2Co7B3,mp-976597,0.0,5.24938393,0.0037221251893875262,"{67: 2, 27: 7, 5: 3}","[5, 27, 67]",53277672,Ho2Co7B3
Er2Co7B3,mp-1190704,0.0,5.23445379,0.00521501816918768,"{68: 2, 27: 7, 5: 3}","[5, 27, 68]",53277682,Er2Co7B3
Tm2Co7B3,mp-1190854,0.0,5.11291326,0.006540279775641977,"{69: 2, 27: 7, 5: 3}","[5, 27, 69]",53277692,Tm2Co7B3
ZnB3Ir4,mp-579677,0.0,8.41223744,0.0,"{30: 1, 5: 3, 77: 4}","[5, 30, 77]",53301774,Zn1B3Ir4
Zn5B3Rh7,mp-510697,0.0,5.54898814,0.0,"{30: 5, 5: 3, 45: 7}","[5, 30, 45]",53305457,Zn5B3Rh7
Zn5B3Ir7,mp-1238725,0.0,6.8485605,0.0,"{30: 5, 5: 3, 77: 7}","[5, 30, 77]",53305777,Zn5B3Ir7
Cs3B3Se10,mp-1196535,1.7936,1.37869628,0.0,"{55: 3, 5: 3, 34: 10}","[5, 34, 55]",533410553,Cs3B3Se10
Tl3B3Se10,mp-542058,1.3101000000000003,2.46153021,0.002668514777774078,"{81: 3, 5: 3, 34: 10}","[5, 34, 81]",533410813,Tl3B3Se10
La2B3Br,mp-568985,0.0,8.03887832,0.0,"{57: 2, 5: 3, 35: 1}","[5, 35, 57]",53351572,La2B3Br1
Nb2B3,mp-1080021,0.0,7.80005746,0.0,"{41: 2, 5: 3}","[5, 41]",53412,Nb2B3
B3Mo,mp-1080111,0.0,7.45676016,0.002544879374999809,"{5: 3, 42: 1}","[5, 42]",53421,B3Mo1
DyB3Mo,mp-1206856,0.0,6.91739954,0.0,"{66: 1, 5: 3, 42: 1}","[5, 42, 66]",53421661,Dy1B3Mo1
HoB3Mo,mp-1205558,0.0,6.85476731,0.0,"{67: 1, 5: 3, 42: 1}","[5, 42, 67]",53421671,Ho1B3Mo1
ErB3Mo,mp-5426,0.0,6.90713288,0.0,"{68: 1, 5: 3, 42: 1}","[5, 42, 68]",53421681,Er1B3Mo1
Tc7B3,mp-978989,0.0,8.74787478,0.0,"{43: 7, 5: 3}","[5, 43]",53437,Tc7B3
U4(BRu4)3,mp-1216857,0.0,9.60860663,0.005815977894734203,"{92: 4, 5: 3, 44: 12}","[5, 44, 92]",534412924,U4B3Ru12
B3Ru2,mp-13854,0.0,8.43365585,0.0,"{5: 3, 44: 2}","[5, 44]",53442,B3Ru2
B3Ru7,mp-17535,0.0,8.40883721,0.03460237399999855,"{5: 3, 44: 7}","[5, 44]",53447,B3Ru7
Pr4(BRh4)3,mp-1219901,0.0,5.50694969,0.04057491078947084,"{59: 4, 5: 3, 45: 12}","[5, 45, 59]",534512594,Pr4B3Rh12
B3Rh7,mp-1106065,0.0,6.93587886,0.012482750499998474,"{5: 3, 45: 7}","[5, 45]",53457,B3Rh7
B3Pd16,mp-1196893,0.0,4.47780626,0.0,"{5: 3, 46: 16}","[5, 46]",534616,B3Pd16
Sn4B3Ir7,mp-28999,0.0,9.43660567,0.0,"{50: 4, 5: 3, 77: 7}","[5, 50, 77]",53504777,Sn4B3Ir7
PrB3,mp-16762,0.0,5.49553993,0.4788088281249987,"{59: 1, 5: 3}","[5, 59]",53591,Pr1B3
PmB3,mp-862984,0.0,5.40482175,0.0,"{61: 1, 5: 3}","[5, 61]",53611,Pm1B3
B36O5,mp-32715,2.3416000000000006,5.14984137,0.01648529121951281,"{5: 36, 8: 5}","[5, 8]",53685,B36O5
B3Pb3NO10,mp-1200969,3.0129,5.13730163,0.0,"{5: 3, 82: 3, 7: 1, 8: 10}","[5, 7, 8, 82]",5371810823,B3Pb3N1O10
Sr7SiB3NO13,mp-1256705,0.6242000000000001,3.23918273,0.15142381262499072,"{38: 7, 14: 1, 5: 3, 7: 1, 8: 13}","[5, 7, 8, 14, 38]",5371813141387,Sr7Si1B3N1O13
AlB3N4,mp-1019379,3.5993000000000004,7.30784222,0.3607763212499986,"{13: 1, 5: 3, 7: 4}","[5, 7, 13]",5374131,Al1B3N4
GaB3N4,mp-1019740,3.7109000000000005,6.50225485,0.39972472500000045,"{31: 1, 5: 3, 7: 4}","[5, 7, 31]",5374311,Ga1B3N4
ReB3,mp-7839,0.0,9.54851755,1.1507634181250026,"{75: 1, 5: 3}","[5, 75]",53751,Re1B3
UReB3,mp-28607,0.0,9.76326062,0.0,"{92: 1, 75: 1, 5: 3}","[5, 75, 92]",53751921,U1Re1B3
Ca3B3N5,mp-1245874,2.6709000000000005,4.46653828,0.2411546109090903,"{20: 3, 5: 3, 7: 5}","[5, 7, 20]",5375203,Ca3B3N5
Sr3B3N5,mp-1029490,2.2454,4.97370486,0.1065925892424211,"{38: 3, 5: 3, 7: 5}","[5, 7, 38]",5375383,Sr3B3N5
Re7B3,mp-1106180,0.0,8.21885379,0.008654345300001864,"{75: 7, 5: 3}","[5, 75]",53757,Re7B3
NaSr4(BN2)3,mp-10811,1.9666000000000001,2.35374992,0.0,"{11: 1, 38: 4, 5: 3, 7: 6}","[5, 7, 11, 38]",5376111384,Na1Sr4B3N6
B3Os2,mp-1079348,0.0,8.9755723,0.0,"{5: 3, 76: 2}","[5, 76]",53762,B3Os2
Ca5(BN2)3,mp-1213996,0.0,5.76071359,0.03394373696428765,"{20: 5, 5: 3, 7: 6}","[5, 7, 20]",5376205,Ca5B3N6
B3Ir2,mp-1228647,0.0,9.13854441,0.06085322616666744,"{5: 3, 77: 2}","[5, 77]",53772,B3Ir2
B3Pb6ClO10,mp-560833,2.816,2.80219373,0.0,"{5: 3, 82: 6, 17: 1, 8: 10}","[5, 8, 17, 82]",53810171826,B3Pb6Cl1O10
K3B3O10,mp-1181183,0.6386999999999999,-1.37751782,0.31691068906249953,"{19: 3, 5: 3, 8: 10}","[5, 8, 19]",53810193,K3B3O10
CaB3O10,mp-1182657,0.40290000000000026,-1.74507399,0.46754912334817256,"{20: 1, 5: 3, 8: 10}","[5, 8, 20]",53810201,Ca1B3O10
Ca4LaB3O10,mp-6076,4.3032,2.35756203,0.0,"{20: 4, 57: 1, 5: 3, 8: 10}","[5, 8, 20, 57]",53810204571,Ca4La1B3O10
Ca4NdB3O10,mp-1214008,4.3686,1.6222759,0.0,"{20: 4, 60: 1, 5: 3, 8: 10}","[5, 8, 20, 60]",53810204601,Ca4Nd1B3O10
Ca4SmB3O10,mp-6388,4.3982,1.68406214,0.0,"{20: 4, 62: 1, 5: 3, 8: 10}","[5, 8, 20, 62]",53810204621,Ca4Sm1B3O10
Ca4GdB3O10,mp-6943,3.0999,1.60973135,0.0,"{20: 4, 64: 1, 5: 3, 8: 10}","[5, 8, 20, 64]",53810204641,Ca4Gd1B3O10
Ca4ErB3O10,mp-1214050,4.4289,1.61382044,0.0,"{20: 4, 68: 1, 5: 3, 8: 10}","[5, 8, 20, 68]",53810204681,Ca4Er1B3O10
B3Pb6BrO10,mp-1195239,2.8245000000000005,2.77803096,0.0,"{5: 3, 82: 6, 35: 1, 8: 10}","[5, 8, 35, 82]",53810351826,B3Pb6Br1O10
Rb3B3O10,mp-1202870,0.01880000000000015,-1.51649812,0.3519477574999996,"{37: 3, 5: 3, 8: 10}","[5, 8, 37]",53810373,Rb3B3O10
Cd4BiB3O10,mp-1189868,2.2263,1.90626369,0.003154455520823163,"{48: 4, 83: 1, 5: 3, 8: 10}","[5, 8, 48, 83]",53810484831,Cd4Bi1B3O10
Pr4B3O10F,mp-1219930,4.5125,2.55385495,0.016615448194446714,"{59: 4, 5: 3, 8: 10, 9: 1}","[5, 8, 9, 59]",5381091594,Pr4B3O10F1
B3Pb6O10F,mp-1195003,2.7687999999999997,2.9553295,0.001726543666666025,"{5: 3, 82: 6, 8: 10, 9: 1}","[5, 8, 9, 82]",5381091826,B3Pb6O10F1
Mg5Nb(BO4)3,mp-1196847,3.0181999999999998,2.68701085,0.0,"{12: 5, 41: 1, 5: 3, 8: 12}","[5, 8, 12, 41]",53812125411,Mg5Nb1B3O12
Mg5Ta(BO4)3,mp-1196921,3.8219000000000003,2.77406648,0.0,"{12: 5, 73: 1, 5: 3, 8: 12}","[5, 8, 12, 73]",53812125731,Mg5Ta1B3O12
Ca(BO4)3,mp-1204932,0.14490000000000003,-1.54401494,0.4823769002734375,"{20: 1, 5: 3, 8: 12}","[5, 8, 20]",53812201,Ca1B3O12
Bi4(BO4)3,mp-769052,0.0,3.82447152,0.08691971131578846,"{83: 4, 5: 3, 8: 12}","[5, 8, 83]",53812834,Bi4B3O12
MgB3O13,mp-1181156,0.0,-1.21106545,0.5324099957598012,"{12: 1, 5: 3, 8: 13}","[5, 8, 12]",53813121,Mg1B3O13
B3Pb10Br3O13,mp-1229254,2.4353999999999996,5.07891672,0.0,"{5: 3, 82: 10, 35: 3, 8: 13}","[5, 8, 35, 82]",538133538210,B3Pb10Br3O13
La5B3O13,mp-1211502,0.0,4.91837374,0.04499037976190223,"{57: 5, 5: 3, 8: 13}","[5, 8, 57]",53813575,La5B3O13
Gd5B3O13,mp-1212669,0.0,2.14089172,0.03692401083333152,"{64: 5, 5: 3, 8: 13}","[5, 8, 64]",53813645,Gd5B3O13
Dy5B3O13,mp-1212938,0.0,2.25965197,0.03069775785714235,"{66: 5, 5: 3, 8: 13}","[5, 8, 66]",53813665,Dy5B3O13
UAl4B3O14,mp-1202393,0.3679999999999999,1.68928889,0.06942431901510737,"{92: 1, 13: 4, 5: 3, 8: 14}","[5, 8, 13, 92]",53814134921,U1Al4B3O14
NaMg6Al3Si6(BO10)3,mp-1221241,0.0,0.21123119,0.18888091588588285,"{11: 1, 12: 6, 13: 3, 14: 6, 5: 3, 8: 30}","[5, 8, 11, 12, 13, 14]",53830111126133146,Na1Mg6Al3Si6B3O30
KNa2Si12(BO10)3,mp-15541,5.124700000000001,0.84233362,0.0007423054340360835,"{19: 1, 11: 2, 14: 12, 5: 3, 8: 30}","[5, 8, 11, 14, 19]",538301121412191,K1Na2Si12B3O30
NaMg3Al6Si6B3O31,mp-728227,0.0,2.5355272,0.08721232994544348,"{11: 1, 12: 3, 13: 6, 14: 6, 5: 3, 8: 31}","[5, 8, 11, 12, 13, 14]",53831111123136146,Na1Mg3Al6Si6B3O31
NaB3O5,mp-557406,5.0502,-0.26884298,0.0,"{11: 1, 5: 3, 8: 5}","[5, 8, 11]",5385111,Na1B3O5
KB3O5,mp-559636,5.2382,-0.42139659,0.0008996413580382168,"{19: 1, 5: 3, 8: 5}","[5, 8, 19]",5385191,K1B3O5
RbB3O5,mp-561055,5.373,-0.60363985,0.0009588383024832225,"{37: 1, 5: 3, 8: 5}","[5, 8, 37]",5385371,Rb1B3O5
AgB3O5,mp-1194753,2.3274000000000004,2.11267989,0.018237387291664575,"{47: 1, 5: 3, 8: 5}","[5, 8, 47]",5385471,Ag1B3O5
CsB3O5,mp-3977,5.304,-0.28958879,0.0,"{55: 1, 5: 3, 8: 5}","[5, 8, 55]",5385551,Cs1B3O5
TlB3O5,mp-1194874,3.7297,2.38165227,0.0,"{81: 1, 5: 3, 8: 5}","[5, 8, 81]",5385811,Tl1B3O5
KZn(BO2)3,mp-1191459,4.4661,-0.39541962,0.0,"{19: 1, 30: 1, 5: 3, 8: 6}","[5, 8, 19, 30]",5386191301,K1Zn1B3O6
KCd(BO2)3,mp-1196758,3.7622,-0.63280447,0.0009309770622820679,"{19: 1, 48: 1, 5: 3, 8: 6}","[5, 8, 19, 48]",5386191481,K1Cd1B3O6
Ca(BO2)3,mp-729083,0.5526,0.98763858,0.07533706743752511,"{20: 1, 5: 3, 8: 6}","[5, 8, 20]",5386201,Ca1B3O6
RbCd(BO2)3,mp-1197285,3.8078000000000003,3.17386395,0.0,"{37: 1, 48: 1, 5: 3, 8: 6}","[5, 8, 37, 48]",5386371481,Rb1Cd1B3O6
La(BO2)3,mp-4658,4.543200000000001,3.29187839,0.0041628505999984355,"{57: 1, 5: 3, 8: 6}","[5, 8, 57]",5386571,La1B3O6
Ce(BO2)3,mp-558621,0.0,7.50485191,0.0,"{58: 1, 5: 3, 8: 6}","[5, 8, 58]",5386581,Ce1B3O6
Pr(BO2)3,mp-11183,5.3984,2.03723149,0.0,"{59: 1, 5: 3, 8: 6}","[5, 8, 59]",5386591,Pr1B3O6
Nd(BO2)3,mp-645340,5.042,2.64786937,0.0,"{60: 1, 5: 3, 8: 6}","[5, 8, 60]",5386601,Nd1B3O6
Sm(BO2)3,mp-645338,5.2606,2.62274622,0.0,"{62: 1, 5: 3, 8: 6}","[5, 8, 62]",5386621,Sm1B3O6
Eu(BO2)3,mp-22248,0.0,1.66644999,0.0014915960000010386,"{63: 1, 5: 3, 8: 6}","[5, 8, 63]",5386631,Eu1B3O6
Gd(BO2)3,mp-1204314,2.6929999999999996,2.36303368,0.0,"{64: 1, 5: 3, 8: 6}","[5, 8, 64]",5386641,Gd1B3O6
Tb(BO2)3,mp-683867,5.424100000000001,2.75669053,0.0,"{65: 1, 5: 3, 8: 6}","[5, 8, 65]",5386651,Tb1B3O6
Dy(BO2)3,mp-3261,5.493399999999999,2.75461139,0.0,"{66: 1, 5: 3, 8: 6}","[5, 8, 66]",5386661,Dy1B3O6
Ho(BO2)3,mp-680713,5.5044,2.69894941,0.0,"{67: 1, 5: 3, 8: 6}","[5, 8, 67]",5386671,Ho1B3O6
Er(BO2)3,mp-680718,5.550699999999999,2.7572168,0.0,"{68: 1, 5: 3, 8: 6}","[5, 8, 68]",5386681,Er1B3O6
Tm(BO2)3,mp-680717,5.6683,2.79219315,0.0,"{69: 1, 5: 3, 8: 6}","[5, 8, 69]",5386691,Tm1B3O6
Lu(BO2)3,mp-680724,5.7476,2.80284633,0.0,"{71: 1, 5: 3, 8: 6}","[5, 8, 71]",5386711,Lu1B3O6
Bi(BO2)3,mp-554718,3.858599999999999,4.55439321,0.0,"{83: 1, 5: 3, 8: 6}","[5, 8, 83]",5386831,Bi1B3O6
NaB3SeO7,mp-1202375,4.4681,-0.34833223,0.0,"{11: 1, 5: 3, 34: 1, 8: 7}","[5, 8, 11, 34]",5387111341,Na1B3Se1O7
CaAlB3O7,mp-556532,5.376600000000001,3.77080741,0.01641664241073748,"{20: 1, 13: 1, 5: 3, 8: 7}","[5, 8, 13, 20]",5387131201,Ca1Al1B3O7
KB3SeO7,mp-1201786,4.5432,3.59277816,0.0,"{19: 1, 5: 3, 34: 1, 8: 7}","[5, 8, 19, 34]",5387191341,K1B3Se1O7
CsZn2B3O7,mp-1195000,3.5131,-0.53907232,0.010651954679477882,"{55: 1, 30: 2, 5: 3, 8: 7}","[5, 8, 30, 55]",5387302551,Cs1Zn2B3O7
RbGeB3O7,mp-1199892,4.5867,4.10131514,0.004325527430518505,"{37: 1, 32: 1, 5: 3, 8: 7}","[5, 8, 32, 37]",5387321371,Rb1Ge1B3O7
CsGeB3O7,mp-558804,4.5981,-0.26852646,0.00033849312498279716,"{55: 1, 32: 1, 5: 3, 8: 7}","[5, 8, 32, 55]",5387321551,Cs1Ge1B3O7
Sm3B3O7,mp-1173570,0.8086000000000002,4.89509267,0.4092553355384645,"{62: 3, 5: 3, 8: 7}","[5, 8, 62]",5387623,Sm3B3O7
Tm3B3O7,mp-1100989,0.9318999999999997,5.31231989,0.4196403478942212,"{69: 3, 5: 3, 8: 7}","[5, 8, 69]",5387693,Tm3B3O7
Ca2B3ClO8,mp-1214203,0.09130000000000002,-0.0530469,0.3265415619642891,"{20: 2, 5: 3, 17: 1, 8: 8}","[5, 8, 17, 20]",5388171202,Ca2B3Cl1O8
CaB3O8,mp-1197422,0.0,-0.24239241,0.5215749547395632,"{20: 1, 5: 3, 8: 8}","[5, 8, 20]",5388201,Ca1B3O8
Ga2B3O8,mp-1195223,0.0,3.27265279,0.06110823254807762,"{31: 2, 5: 3, 8: 8}","[5, 8, 31]",5388312,Ga2B3O8
Dy2B3O8,mp-1200687,0.11709999999999976,2.71805786,0.04687032509615641,"{66: 2, 5: 3, 8: 8}","[5, 8, 66]",5388662,Dy2B3O8
Ho2B3O8,mp-1198383,0.11390000000000011,2.70964933,0.06349648139423181,"{67: 2, 5: 3, 8: 8}","[5, 8, 67]",5388672,Ho2B3O8
NpB3O8,mp-1199282,0.5495,0.55143557,0.0,"{93: 1, 5: 3, 8: 8}","[5, 8, 93]",5388931,Np1B3O8
NaCa4(BO3)3,mp-554240,4.0868,2.21804984,0.008593400294111042,"{11: 1, 20: 4, 5: 3, 8: 9}","[5, 8, 11, 20]",5389111204,Na1Ca4B3O9
NaSr4(BO3)3,mp-560768,3.9798,1.7408485,0.014512940147059616,"{11: 1, 38: 4, 5: 3, 8: 9}","[5, 8, 11, 38]",5389111384,Na1Sr4B3O9
Na3Sc2(BO3)3,mp-561018,3.4934000000000003,0.87199794,0.0,"{11: 3, 21: 2, 5: 3, 8: 9}","[5, 8, 11, 21]",5389113212,Na3Sc2B3O9
Na3La2(BO3)3,mp-560129,3.7901999999999996,2.79457394,0.0007626682353034653,"{11: 3, 57: 2, 5: 3, 8: 9}","[5, 8, 11, 57]",5389113572,Na3La2B3O9
Sr5B3ClO9,mp-555203,3.9640999999999993,1.62086183,0.0,"{38: 5, 5: 3, 17: 1, 8: 9}","[5, 8, 17, 38]",5389171385,Sr5B3Cl1O9
Eu5B3ClO9,mp-1202692,0.31950000000000056,4.83784603,0.0,"{63: 5, 5: 3, 17: 1, 8: 9}","[5, 8, 17, 63]",5389171635,Eu5B3Cl1O9
KCa4(BO3)3,mp-555023,4.5893,2.10899077,0.0,"{19: 1, 20: 4, 5: 3, 8: 9}","[5, 8, 19, 20]",5389191204,K1Ca4B3O9
KZn4(BO3)3,mp-6652,2.8200000000000003,0.05049456,0.010828188823523988,"{19: 1, 30: 4, 5: 3, 8: 9}","[5, 8, 19, 30]",5389191304,K1Zn4B3O9
KSr4(BO3)3,mp-554346,4.173,1.62337328,0.0,"{19: 1, 38: 4, 5: 3, 8: 9}","[5, 8, 19, 38]",5389191384,K1Sr4B3O9
Ca(BO3)3,mp-1193777,0.04239999999999999,-1.17067987,0.5263988038941951,"{20: 1, 5: 3, 8: 9}","[5, 8, 20]",5389201,Ca1B3O9
Sr3Sc(BO3)3,mp-17562,4.6259999999999994,1.74079342,0.0,"{38: 3, 21: 1, 5: 3, 8: 9}","[5, 8, 21, 38]",5389211383,Sr3Sc1B3O9
Zn(BO3)3,mp-1178675,0.0,-0.35301443,0.4905056094711533,"{30: 1, 5: 3, 8: 9}","[5, 8, 30]",5389301,Zn1B3O9
RbZn4(BO3)3,mp-542143,2.7811999999999997,0.21524588,0.0014655592463235223,"{37: 1, 30: 4, 5: 3, 8: 9}","[5, 8, 30, 37]",5389304371,Rb1Zn4B3O9
CsZn4(BO3)3,mp-1019723,2.8259999999999996,0.43159451,0.006494925784302552,"{55: 1, 30: 4, 5: 3, 8: 9}","[5, 8, 30, 55]",5389304551,Cs1Zn4B3O9
Sr5B3BrO9,mp-560233,3.8991,1.59927817,0.004804386347213807,"{38: 5, 5: 3, 35: 1, 8: 9}","[5, 8, 35, 38]",5389351385,Sr5B3Br1O9
RbB3Te2O9,mp-769383,3.3024999999999998,1.16990203,0.09628490948148727,"{37: 1, 5: 3, 52: 2, 8: 9}","[5, 8, 37, 52]",5389371522,Rb1B3Te2O9
Bi2(BO3)3,mp-755446,0.0,3.05809612,0.10482446767857034,"{83: 2, 5: 3, 8: 9}","[5, 8, 83]",5389832,Bi2B3O9
Mg5B3O9F,mp-560026,5.118399999999999,2.60851971,0.0,"{12: 5, 5: 3, 8: 9, 9: 1}","[5, 8, 9, 12]",538991125,Mg5B3O9F1
Ca5B3O9F,mp-6632,4.236800000000001,1.58075555,0.00472357305555704,"{20: 5, 5: 3, 8: 9, 9: 1}","[5, 8, 9, 20]",538991205,Ca5B3O9F1
Sr5B3O9F,mp-560818,4.1747,1.22886804,0.0025502062499969114,"{38: 5, 5: 3, 8: 9, 9: 1}","[5, 8, 9, 38]",538991385,Sr5B3O9F1
Eu5B3O9F,mp-1196201,0.10949999999999971,5.2086536,0.010755783888884096,"{63: 5, 5: 3, 8: 9, 9: 1}","[5, 8, 9, 63]",538991635,Eu5B3O9F1
PaB3,mp-862847,0.0,10.58401999,0.0,"{91: 1, 5: 3}","[5, 91]",53911,Pa1B3
CsB3PbF12,mp-1004528,6.2981,-3.71636361,0.0,"{55: 1, 5: 3, 82: 1, 9: 12}","[5, 9, 55, 82]",53912551821,Cs1B3Pb1F12
LaB3F12,mp-1223430,5.3268,3.05554837,0.0,"{57: 1, 5: 3, 9: 12}","[5, 9, 57]",53912571,La1B3F12
Sm11(CoB)40,mp-649331,0.0,5.94939681,0.014937358186815963,"{62: 11, 27: 40, 5: 40}","[5, 27, 62]",54027406211,Sm11Co40B40
NaB4Ir3,mp-1220841,0.0,4.56973056,0.0,"{11: 1, 5: 4, 77: 3}","[5, 11, 77]",54111773,Na1B4Ir3
MgB4,mp-365,0.36409999999999965,6.93534503,0.0,"{12: 1, 5: 4}","[5, 12]",54121,Mg1B4
MgAlB4,mp-1207086,0.0,7.97435816,0.0,"{12: 1, 13: 1, 5: 4}","[5, 12, 13]",54121131,Mg1Al1B4
MgB4Os3,mp-10503,0.0,7.7254101,0.0,"{12: 1, 5: 4, 76: 3}","[5, 12, 76]",54121763,Mg1B4Os3
Mg2B4Ru5,mp-541066,0.0,7.29526709,0.0,"{12: 2, 5: 4, 44: 5}","[5, 12, 44]",54122445,Mg2B4Ru5
AlCr3B4,mp-637575,0.0,8.8569368,0.0,"{13: 1, 24: 3, 5: 4}","[5, 13, 24]",54131243,Al1Cr3B4
HoAlB4,mp-1212096,0.0,7.49254949,0.0,"{67: 1, 13: 1, 5: 4}","[5, 13, 67]",54131671,Ho1Al1B4
ErAlB4,mp-1213107,0.0,7.54053818,0.0,"{68: 1, 13: 1, 5: 4}","[5, 13, 68]",54131681,Er1Al1B4
TmAlB4,mp-1191390,0.0,7.53882204,0.0,"{69: 1, 13: 1, 5: 4}","[5, 13, 69]",54131691,Tm1Al1B4
LuAlB4,mp-8631,0.0,7.37793258,0.0,"{71: 1, 13: 1, 5: 4}","[5, 13, 71]",54131711,Lu1Al1B4
SiB4,mp-978496,0.0,7.89515832,0.2816218045000003,"{14: 1, 5: 4}","[5, 14]",54141,Si1B4
Co19(Si2B)4,mp-1226660,0.0,7.97621267,0.024367714032257126,"{27: 19, 14: 8, 5: 4}","[5, 14, 27]",541482719,Co19Si8B4
La4B4Cl5,mp-569894,0.0,6.82631495,0.0,"{57: 4, 5: 4, 17: 5}","[5, 17, 57]",54175574,La4B4Cl5
CaB4,mp-1213975,0.0,5.05290504,0.0,"{20: 1, 5: 4}","[5, 20]",54201,Ca1B4
Ca(B2Pt3)2,mp-1227448,0.0,5.06202412,0.0,"{20: 1, 5: 4, 78: 6}","[5, 20, 78]",54201786,Ca1B4Pt6
Ca2B4Rh5,mp-8895,0.0,5.69555978,0.0014867174999642074,"{20: 2, 5: 4, 45: 5}","[5, 20, 45]",54202455,Ca2B4Rh5
ScCoB4,mp-1191630,0.0,7.18675871,0.0,"{21: 1, 27: 1, 5: 4}","[5, 21, 27]",54211271,Sc1Co1B4
ZrScB4,mp-1215212,0.0,6.5357353,0.9661065116666663,"{40: 1, 21: 1, 5: 4}","[5, 21, 40]",54211401,Zr1Sc1B4
Sc(BRu)4,mp-1200617,0.0,7.16608678,0.03763151148148758,"{21: 1, 5: 4, 44: 4}","[5, 21, 44]",54211444,Sc1B4Ru4
ScB4Os3,mp-10504,0.0,8.14903382,0.007941861875000455,"{21: 1, 5: 4, 76: 3}","[5, 21, 76]",54211763,Sc1B4Os3
ScB4Ir3,mp-10114,0.0,8.76634086,0.0,"{21: 1, 5: 4, 77: 3}","[5, 21, 77]",54211773,Sc1B4Ir3
Sc2B4Ru5,mp-1209048,0.0,7.87081517,0.0,"{21: 2, 5: 4, 44: 5}","[5, 21, 44]",54212445,Sc2B4Ru5
Sc2B4Os5,mp-1192274,0.0,8.0948376,0.028918483181815446,"{21: 2, 5: 4, 76: 5}","[5, 21, 76]",54212765,Sc2B4Os5
Sc3Nb3(B2Ru5)2,mp-1219392,0.0,6.65733567,0.0025227289999989466,"{21: 3, 41: 3, 5: 4, 44: 10}","[5, 21, 41, 44]",542134134410,Sc3Nb3B4Ru10
TiVB4,mp-1216667,0.0,8.6139644,0.009228583333333873,"{22: 1, 23: 1, 5: 4}","[5, 22, 23]",54221231,Ti1V1B4
TiCrB4,mp-1216966,0.0,8.8242422,0.04688318416666526,"{22: 1, 24: 1, 5: 4}","[5, 22, 24]",54221241,Ti1Cr1B4
ZrTiB4,mp-1215178,0.0,7.74654337,0.01950715333333264,"{40: 1, 22: 1, 5: 4}","[5, 22, 40]",54221401,Zr1Ti1B4
TiNbB4,mp-1216692,0.0,8.33243187,0.0,"{22: 1, 41: 1, 5: 4}","[5, 22, 41]",54221411,Ti1Nb1B4
TiB4Mo,mp-1217026,0.0,9.43938636,0.06008259083333378,"{22: 1, 5: 4, 42: 1}","[5, 22, 42]",54221421,Ti1B4Mo1
HfTiB4,mp-1224263,0.0,8.10614359,0.01300654833333148,"{72: 1, 22: 1, 5: 4}","[5, 22, 72]",54221721,Hf1Ti1B4
TaTiB4,mp-1217898,0.0,8.77235258,0.0,"{73: 1, 22: 1, 5: 4}","[5, 22, 73]",54221731,Ta1Ti1B4
Ta3TiB4,mp-1217975,0.0,7.22285701,0.0,"{73: 3, 22: 1, 5: 4}","[5, 22, 73]",54221733,Ta3Ti1B4
Ti3B4,mp-1025170,0.0,7.40271569,0.0,"{22: 3, 5: 4}","[5, 22]",54223,Ti3B4
Ti3B4Mo,mp-1217095,0.0,7.41634141,0.0,"{22: 3, 5: 4, 42: 1}","[5, 22, 42]",54223421,Ti3B4Mo1
Ti3B4Mo3,mp-1217082,0.0,7.95569254,0.024923912999996745,"{22: 3, 5: 4, 42: 3}","[5, 22, 42]",54223423,Ti3B4Mo3
VCrB4,mp-1216375,0.0,8.89919697,0.035849372499997756,"{23: 1, 24: 1, 5: 4}","[5, 23, 24]",54231241,V1Cr1B4
NbVB4,mp-1220351,0.0,8.45670253,0.013200364999999437,"{41: 1, 23: 1, 5: 4}","[5, 23, 41]",54231411,Nb1V1B4
GdVB4,mp-1191160,0.0,5.40330663,0.0,"{64: 1, 23: 1, 5: 4}","[5, 23, 64]",54231641,Gd1V1B4
TbVB4,mp-867309,0.0,6.15366708,0.0,"{65: 1, 23: 1, 5: 4}","[5, 23, 65]",54231651,Tb1V1B4
DyVB4,mp-1191899,0.0,6.12699455,0.0,"{66: 1, 23: 1, 5: 4}","[5, 23, 66]",54231661,Dy1V1B4
HoVB4,mp-973524,0.0,6.10826459,0.0,"{67: 1, 23: 1, 5: 4}","[5, 23, 67]",54231671,Ho1V1B4
ErVB4,mp-10983,0.0,6.12806818,0.0,"{68: 1, 23: 1, 5: 4}","[5, 23, 68]",54231681,Er1V1B4
TaVB4,mp-1217818,0.0,8.89444968,0.000763763333331724,"{73: 1, 23: 1, 5: 4}","[5, 23, 73]",54231731,Ta1V1B4
VRe11B4,mp-1216295,0.0,7.97139229,0.013194831249997208,"{23: 1, 75: 11, 5: 4}","[5, 23, 75]",542317511,V1Re11B4
VB4Os,mp-1216395,0.0,7.5178619,0.1787305891666513,"{23: 1, 5: 4, 76: 1}","[5, 23, 76]",54231761,V1B4Os1