formula,material_id,band_gap,efermi,energy_above_hull,comp_atoms,sorted_keys_comp_atoms,comp_number,new_formula
Sr2CaCu6(BO3)6,mp-1218946,0.4482000000000004,2.82291033,0.0474758467424152,"{38: 2, 20: 1, 29: 6, 5: 6, 8: 18}","[5, 8, 20, 29, 38]",56818201296382,Sr2Ca1Cu6B6O18
Fe5(BO3)6,mp-1198168,0.0,-0.36096281,0.1303339728304591,"{26: 5, 5: 6, 8: 18}","[5, 8, 26]",56818265,Fe5B6O18
Ca3(B3O10)2,mp-1214604,0.1561999999999999,-0.39676423,0.5830633947413837,"{20: 3, 5: 6, 8: 20}","[5, 8, 20]",56820203,Ca3B6O20
B6Pb,mp-1096825,0.9206000000000004,6.19390313,0.115100015000003,"{5: 6, 82: 1}","[5, 82]",56821,B6Pb1
Ti2Cu9(B3O11)2,mp-554562,0.0508000000000001,2.5137735,0.0394342307692276,"{22: 2, 29: 9, 5: 6, 8: 22}","[5, 8, 22, 29]",56822222299,Ti2Cu9B6O22
BaY6Si3B6(O12F)2,mp-554918,5.2315000000000005,2.3060135,0.0082919398809586,"{56: 1, 39: 6, 14: 3, 5: 6, 8: 24, 9: 2}","[5, 8, 9, 14, 39, 56]",5682492143396561,Ba1Y6Si3B6O24F2
RbB6S2(Cl3O2)2,mp-1201123,1.816,-0.44377802,0.5303246550927634,"{37: 1, 5: 6, 16: 2, 17: 6, 8: 4}","[5, 8, 16, 17, 37]",5684162176371,Rb1B6S2Cl6O4
Fe(BO)6,mp-1213438,0.5643000000000002,3.55253765,0.5676401468349352,"{26: 1, 5: 6, 8: 6}","[5, 8, 26]",5686261,Fe1B6O6
NaB6S4(Br3O4)2,mp-1196084,1.7688,-0.73658198,0.6149454276361119,"{11: 1, 5: 6, 16: 4, 35: 6, 8: 8}","[5, 8, 11, 16, 35]",5688111164356,Na1B6S4Br6O8
NpB6,mp-1025156,0.0,9.40794533,0.0105477017857218,"{93: 1, 5: 6}","[5, 93]",56931,Np1B6
PuB6,mp-505534,0.0,9.14793032,0.0048747883035709,"{94: 1, 5: 6}","[5, 94]",56941,Pu1B6
KB6F6,mp-1205091,2.6471,1.97911808,0.0744231811752156,"{19: 1, 5: 6, 9: 6}","[5, 9, 19]",5696191,K1B6F6
AlB7Pd15,mp-1195438,0.0083999999999999,6.18064266,0.0786956959963767,"{13: 1, 5: 7, 46: 15}","[5, 13, 46]",571314615,Al1B7Pd15
Y3MnB7,mp-1192224,0.0,5.45708076,0.0,"{39: 3, 25: 1, 5: 7}","[5, 25, 39]",57251393,Y3Mn1B7
Gd3MnB7,mp-976437,0.0,5.19081089,0.0148230927727261,"{64: 3, 25: 1, 5: 7}","[5, 25, 64]",57251643,Gd3Mn1B7
Y3FeB7,mp-14542,0.0,5.68293011,0.0,"{39: 3, 26: 1, 5: 7}","[5, 26, 39]",57261393,Y3Fe1B7
Tb3FeB7,mp-972235,0.0,5.55836053,0.0,"{65: 3, 26: 1, 5: 7}","[5, 26, 65]",57261653,Tb3Fe1B7
Dy3FeB7,mp-1192098,0.0,5.5446743,0.0,"{66: 3, 26: 1, 5: 7}","[5, 26, 66]",57261663,Dy3Fe1B7
Ho3FeB7,mp-1192262,0.0,5.53257626,0.0,"{67: 3, 26: 1, 5: 7}","[5, 26, 67]",57261673,Ho3Fe1B7
Er3FeB7,mp-1190715,0.0,5.51983295,0.0,"{68: 3, 26: 1, 5: 7}","[5, 26, 68]",57261683,Er3Fe1B7
Fe2B7,mp-1194531,0.0,7.7424467,0.0073210441666669,"{26: 2, 5: 7}","[5, 26]",57262,Fe2B7
V2(B24C)3,mp-1217011,0.0,5.12897714,0.0233420100703405,"{23: 2, 5: 72, 6: 3}","[5, 6, 23]",57263232,V2B72C3
Gd2(FeB)7,mp-680207,0.0,5.86938581,0.0,"{64: 2, 26: 7, 5: 7}","[5, 26, 64]",57267642,Gd2Fe7B7
YB7Mo3,mp-504874,0.0,8.32015848,0.0,"{39: 1, 5: 7, 42: 3}","[5, 39, 42]",57391423,Y1B7Mo3
Y3B7W,mp-14373,0.0,5.7239621,0.0,"{39: 3, 5: 7, 74: 1}","[5, 39, 74]",57393741,Y3B7W1
Y3ReB7,mp-7625,0.0,5.63158325,0.0,"{39: 3, 75: 1, 5: 7}","[5, 39, 75]",57393751,Y3Re1B7
Ho3B7Mo,mp-1212287,0.0,5.63285365,0.0011497145454555,"{67: 3, 5: 7, 42: 1}","[5, 42, 67]",57421673,Ho3B7Mo1
TbB7Mo3,mp-1208351,0.0,8.30738212,0.000615412954545,"{65: 1, 5: 7, 42: 3}","[5, 42, 65]",57423651,Tb1B7Mo3
Y10B7C10,mp-1207937,0.0,4.50294294,0.0085087008024702,"{39: 10, 5: 7, 6: 10}","[5, 6, 39]",576103910,Y10B7C10
Tb10B7C10,mp-570655,0.0,4.38579245,0.0125863541666575,"{65: 10, 5: 7, 6: 10}","[5, 6, 65]",576106510,Tb10B7C10
Y21B7(C7I9)2,mp-680189,0.0,4.01259445,0.0,"{39: 21, 5: 7, 6: 14, 53: 18}","[5, 6, 39, 53]",5761439215318,Y21B7C14I18
Rb3B7O12,mp-30127,4.3578,4.38001571,0.0044063516919177,"{37: 3, 5: 7, 8: 12}","[5, 8, 37]",57812373,Rb3B7O12
Bi3B7O12,mp-768969,0.4014999999999995,3.8477483,0.0739997617424261,"{83: 3, 5: 7, 8: 12}","[5, 8, 83]",57812833,Bi3B7O12
Mn3B7ClO13,mp-556656,4.2083,2.69053821,0.0,"{25: 3, 5: 7, 17: 1, 8: 13}","[5, 8, 17, 25]",57813171253,Mn3B7Cl1O13
Fe3B7ClO13,mp-556300,2.8149000000000006,3.55823985,0.0,"{26: 3, 5: 7, 17: 1, 8: 13}","[5, 8, 17, 26]",57813171263,Fe3B7Cl1O13
Co3B7ClO13,mp-23578,2.2683000000000004,2.49089177,0.0688588469907411,"{27: 3, 5: 7, 17: 1, 8: 13}","[5, 8, 17, 27]",57813171273,Co3B7Cl1O13
Ni3B7ClO13,mp-556141,3.1032,3.4803055,0.0,"{28: 3, 5: 7, 17: 1, 8: 13}","[5, 8, 17, 28]",57813171283,Ni3B7Cl1O13
Cu3B7ClO13,mp-1213325,0.1323999999999996,3.26784819,0.011694846770835,"{29: 3, 5: 7, 17: 1, 8: 13}","[5, 8, 17, 29]",57813171293,Cu3B7Cl1O13
Zn3B7ClO13,mp-23609,4.4852,1.78594714,0.000932030703117,"{30: 3, 5: 7, 17: 1, 8: 13}","[5, 8, 17, 30]",57813171303,Zn3B7Cl1O13
KCuB7O13,mp-1199109,0.0511999999999999,1.33124428,0.2917359786268889,"{19: 1, 29: 1, 5: 7, 8: 13}","[5, 8, 19, 29]",57813191291,K1Cu1B7O13
Fe3B7BrO13,mp-1181439,3.6768,2.0351188,0.0,"{26: 3, 5: 7, 35: 1, 8: 13}","[5, 8, 26, 35]",57813263351,Fe3B7Br1O13
Fe3B7IO13,mp-1194881,3.0026,2.77106425,0.0,"{26: 3, 5: 7, 53: 1, 8: 13}","[5, 8, 26, 53]",57813263531,Fe3B7I1O13
Co3B7BrO13,mp-562349,2.146,3.46820269,0.0768898779282425,"{27: 3, 5: 7, 35: 1, 8: 13}","[5, 8, 27, 35]",57813273351,Co3B7Br1O13
Co3B7IO13,mp-23628,2.2509,3.18665278,0.0589773459490743,"{27: 3, 5: 7, 53: 1, 8: 13}","[5, 8, 27, 53]",57813273531,Co3B7I1O13
Ni3B7BrO13,mp-554323,3.1528,5.73451078,0.0,"{28: 3, 5: 7, 35: 1, 8: 13}","[5, 8, 28, 35]",57813283351,Ni3B7Br1O13
Ni3B7IO13,mp-504714,2.370000000000001,3.59314004,0.0,"{28: 3, 5: 7, 53: 1, 8: 13}","[5, 8, 28, 53]",57813283531,Ni3B7I1O13
Cu3B7BrO13,mp-554590,0.0,3.43115042,0.0198163097916657,"{29: 3, 5: 7, 35: 1, 8: 13}","[5, 8, 29, 35]",57813293351,Cu3B7Br1O13
Cu3B7IO13,mp-651682,0.0,4.13434936,0.020559678365382,"{29: 3, 5: 7, 53: 1, 8: 13}","[5, 8, 29, 53]",57813293531,Cu3B7I1O13
Zn3B7BrO13,mp-1179542,4.4924,6.2002468,0.0059078026432235,"{30: 3, 5: 7, 35: 1, 8: 13}","[5, 8, 30, 35]",57813303351,Zn3B7Br1O13
Zn3B7IO13,mp-1207531,4.292999999999999,6.73730846,0.0201856532422013,"{30: 3, 5: 7, 53: 1, 8: 13}","[5, 8, 30, 53]",57813303531,Zn3B7I1O13
Co3B7O13F,mp-1197938,2.2897000000000003,4.25677408,0.1030207620717593,"{27: 3, 5: 7, 8: 13, 9: 1}","[5, 8, 9, 27]",5781391273,Co3B7O13F1
Cd3(BO2)7,mp-1198909,0.0445999999999999,1.0490961,0.0247818477343759,"{48: 3, 5: 7, 8: 14}","[5, 8, 48]",57814483,Cd3B7O14
SmB7IO15,mp-1203095,0.5477000000000001,0.02156465,0.2795257828992996,"{62: 1, 5: 7, 53: 1, 8: 15}","[5, 8, 53, 62]",57815531621,Sm1B7I1O15
NdB7ClO18,mp-1202140,0.0999999999999999,-0.63840475,0.1463876217901152,"{60: 1, 5: 7, 17: 1, 8: 18}","[5, 8, 17, 60]",57818171601,Nd1B7Cl1O18
SmB7ClO18,mp-1203811,0.0807999999999999,-0.70474118,0.1480782263734417,"{62: 1, 5: 7, 17: 1, 8: 18}","[5, 8, 17, 62]",57818171621,Sm1B7Cl1O18
Ba3NaSi2B7O20,mp-1205119,0.4129,1.7658892,0.11600081045456,"{56: 3, 11: 1, 14: 2, 5: 7, 8: 20}","[5, 8, 11, 14, 56]",57820111142563,Ba3Na1Si2B7O20
AlNi9B8,mp-1194505,0.0,9.05640105,0.0129364735606056,"{13: 1, 28: 9, 5: 8}","[5, 13, 28]",58131289,Al1Ni9B8
AlZn10(B4Rh9)2,mp-1214951,0.0,5.90822192,0.0050873411261411,"{13: 1, 30: 10, 5: 8, 45: 18}","[5, 13, 30, 45]",5813130104518,Al1Zn10B8Rh18
Ta3AlB8,mp-1217997,0.0,9.112044,0.0057861593666643,"{73: 3, 13: 1, 5: 8}","[5, 13, 73]",58131733,Ta3Al1B8
Y5(SiB4)2,mp-1207750,0.0,5.5172863,0.0,"{39: 5, 14: 2, 5: 8}","[5, 14, 39]",58142395,Y5Si2B8
Sm5(SiB4)2,mp-1208836,0.0,5.17924129,0.0157321071666611,"{62: 5, 14: 2, 5: 8}","[5, 14, 62]",58142625,Sm5Si2B8
B8P,mp-1228676,0.1845999999999996,5.48078979,0.1506276453703705,"{5: 8, 15: 1}","[5, 15]",58151,B8P1
HoSc(BRh)8,mp-1223895,0.0,6.85799357,0.0372698818888856,"{67: 1, 21: 1, 5: 8, 45: 8}","[5, 21, 45, 67]",58211458671,Ho1Sc1B8Rh8
ThSc(BRh)8,mp-1217330,0.0,7.41356461,0.0551931905277749,"{90: 1, 21: 1, 5: 8, 45: 8}","[5, 21, 45, 90]",58211458901,Th1Sc1B8Rh8
TiZn10(B4Rh9)2,mp-1208284,0.0,5.86057618,0.0251339432365682,"{22: 1, 30: 10, 5: 8, 45: 18}","[5, 22, 30, 45]",5822130104518,Ti1Zn10B8Rh18
Ti7B8(IrRh2)2,mp-1217063,0.0,7.89428028,0.0622819829176055,"{22: 7, 5: 8, 77: 2, 45: 4}","[5, 22, 45, 77]",58227454772,Ti7B8Ir2Rh4
Ti8Cr3(B4Ru9)2,mp-1217552,0.0,7.57539997,0.0014082129054067,"{22: 8, 24: 3, 5: 8, 44: 18}","[5, 22, 24, 44]",582282434418,Ti8Cr3B8Ru18
Ti8Mn3(B4Ru9)2,mp-1217647,0.0,7.55478816,0.0003925843120367,"{22: 8, 25: 3, 5: 8, 44: 18}","[5, 22, 25, 44]",582282534418,Ti8Mn3B8Ru18
Ti8Ni3(B4Ru9)2,mp-1217553,0.0,7.6790076,0.0448507919054055,"{22: 8, 28: 3, 5: 8, 44: 18}","[5, 22, 28, 44]",582282834418,Ti8Ni3B8Ru18
Ti9Fe2(B4Ru9)2,mp-684003,0.0,7.44857278,0.0050083317567555,"{22: 9, 26: 2, 5: 8, 44: 18}","[5, 22, 26, 44]",582292624418,Ti9Fe2B8Ru18
Ti9Co2(B4Ru9)2,mp-1200174,0.0,7.51164229,0.0212272236036046,"{22: 9, 27: 2, 5: 8, 44: 18}","[5, 22, 27, 44]",582292724418,Ti9Co2B8Ru18
Ti9Ni2(B4Ru9)2,mp-1199093,0.0,7.57848192,0.029562943702702,"{22: 9, 28: 2, 5: 8, 44: 18}","[5, 22, 28, 44]",582292824418,Ti9Ni2B8Ru18
Ti9Cu2(B4Ru9)2,mp-1201135,0.0,7.46887479,0.0293706236486457,"{22: 9, 29: 2, 5: 8, 44: 18}","[5, 22, 29, 44]",582292924418,Ti9Cu2B8Ru18
V11FeB8,mp-1216907,0.0,6.99660735,0.0125942225000006,"{23: 11, 26: 1, 5: 8}","[5, 23, 26]",582311261,V11Fe1B8
V11ReB8,mp-1216792,0.0,7.18218593,0.0093933750000001,"{23: 11, 75: 1, 5: 8}","[5, 23, 75]",582311751,V11Re1B8
VZn10(B4Rh9)2,mp-1207904,0.0,5.81291168,0.0260799407318348,"{23: 1, 30: 10, 5: 8, 45: 18}","[5, 23, 30, 45]",5823130104518,V1Zn10B8Rh18
V3Cr3B8,mp-1216493,0.0,8.40189103,0.0060599846428548,"{23: 3, 24: 3, 5: 8}","[5, 23, 24]",58233243,V3Cr3B8
Nb3V5(B2Ir)4,mp-1220611,0.0,7.9383973,0.0730363881111166,"{41: 3, 23: 5, 5: 8, 77: 4}","[5, 23, 41, 77]",58235413774,Nb3V5B8Ir4
V9Cr3B8,mp-1216445,0.0,7.25365362,0.0178142205000071,"{23: 9, 24: 3, 5: 8}","[5, 23, 24]",58239243,V9Cr3B8
Zn10Cr(B4Rh9)2,mp-1207569,0.0,5.70798608,0.025561786087584,"{30: 10, 24: 1, 5: 8, 45: 18}","[5, 24, 30, 45]",5824130104518,Zn10Cr1B8Rh18
Mn3Cr3B8,mp-1221771,0.0,8.27979715,0.0602225460714294,"{25: 3, 24: 3, 5: 8}","[5, 24, 25]",58243253,Mn3Cr3B8
MnZn10(B4Rh9)2,mp-1211205,0.0,5.69179126,0.0076233324856662,"{25: 1, 30: 10, 5: 8, 45: 18}","[5, 25, 30, 45]",5825130104518,Mn1Zn10B8Rh18
Mn3B8Mo3,mp-1221919,0.0,8.88689249,0.0279575108928575,"{25: 3, 5: 8, 42: 3}","[5, 25, 42]",58253423,Mn3B8Mo3
Zn10Fe(B4Rh9)2,mp-652101,0.0,5.7751582,0.0104179077431627,"{30: 10, 26: 1, 5: 8, 45: 18}","[5, 26, 30, 45]",5826130104518,Zn10Fe1B8Rh18
Zn10Co(B4Rh9)2,mp-1207661,0.0,5.71082758,0.017190576056512,"{30: 10, 27: 1, 5: 8, 45: 18}","[5, 27, 30, 45]",5827130104518,Zn10Co1B8Rh18
Ga(Ni3B2)4,mp-1213377,0.0,8.54865862,0.0051471551712589,"{31: 1, 28: 12, 5: 8}","[5, 28, 31]",582812311,Ga1Ni12B8
Zn10Ni(B4Rh9)2,mp-1203945,0.0,5.74091266,0.0154454945024546,"{30: 10, 28: 1, 5: 8, 45: 18}","[5, 28, 30, 45]",5828130104518,Zn10Ni1B8Rh18
GaNi9B8,mp-1194536,0.0,8.61819936,0.0114869978819447,"{31: 1, 28: 9, 5: 8}","[5, 28, 31]",58289311,Ga1Ni9B8
Zn10Cu(B4Rh9)2,mp-1207585,0.0,5.72731956,0.0024408420024579,"{30: 10, 29: 1, 5: 8, 45: 18}","[5, 29, 30, 45]",5829130104518,Zn10Cu1B8Rh18
Zn10Sn(B4Rh9)2,mp-1207643,0.0,6.04446564,0.0133865590540569,"{30: 10, 50: 1, 5: 8, 45: 18}","[5, 30, 45, 50]",5830104518501,Zn10Sn1B8Rh18
YLu(BRh)8,mp-1215994,0.0,6.80688522,0.0196990377222245,"{39: 1, 71: 1, 5: 8, 45: 8}","[5, 39, 45, 71]",58391458711,Y1Lu1B8Rh8
YTh(BRh)8,mp-1216004,0.0,7.4023421,0.0243071149228377,"{39: 1, 90: 1, 5: 8, 45: 8}","[5, 39, 45, 90]",58391458901,Y1Th1B8Rh8
YLu(BIr)8,mp-1215947,0.0,8.34884714,0.0267232327777815,"{39: 1, 71: 1, 5: 8, 77: 8}","[5, 39, 71, 77]",58391711778,Y1Lu1B8Ir8
YUB8,mp-1215753,0.0,8.26744703,0.0217279442500171,"{39: 1, 92: 1, 5: 8}","[5, 39, 92]",58391921,Y1U1B8
B8Ru11,mp-505535,0.0,8.86890146,0.0915809954385977,"{5: 8, 44: 11}","[5, 44]",584411,B8Ru11
LuTh(BRh)8,mp-1222318,0.0,7.39350143,0.0334915792222183,"{71: 1, 90: 1, 5: 8, 45: 8}","[5, 45, 71, 90]",58458711901,Lu1Th1B8Rh8
B84O11,mp-758800,2.5780000000000003,4.8982451,0.0196611005263163,"{5: 84, 8: 11}","[5, 8]",584811,B84O11
CeUB8,mp-1226540,0.0,9.29135194,0.0106376462500143,"{58: 1, 92: 1, 5: 8}","[5, 58, 92]",58581921,Ce1U1B8
TbY3Ni8(B2C)4,mp-1217451,0.0,6.82404745,0.0051132725,"{65: 1, 39: 3, 28: 8, 5: 8, 6: 4}","[5, 6, 28, 39, 65]",5864288393651,Tb1Y3Ni8B8C4
B8O,mp-1228685,2.2645,5.07141953,0.0201742790740739,"{5: 8, 8: 1}","[5, 8]",5881,B8O1
BaB8O13,mp-27794,5.5451,0.11387725,0.0,"{56: 1, 5: 8, 8: 13}","[5, 8, 56]",58813561,Ba1B8O13
MgMn2(B4O7)2,mp-1234300,0.407,5.51266975,0.2435650079119042,"{12: 1, 25: 2, 5: 8, 8: 14}","[5, 8, 12, 25]",58814121252,Mg1Mn2B8O14
CaB8O15,mp-1200314,0.0,-0.87965819,0.1664186321528031,"{20: 1, 5: 8, 8: 15}","[5, 8, 20]",58815201,Ca1B8O15
Ca2B8O15,mp-1214238,0.1922999999999999,0.54727609,0.0652479213500072,"{20: 2, 5: 8, 8: 15}","[5, 8, 20]",58815202,Ca2B8O15
SrB8O15,mp-1196359,0.0,-1.06276145,0.1621414886978982,"{38: 1, 5: 8, 8: 15}","[5, 8, 38]",58815381,Sr1B8O15
La2B8O15,mp-1019892,4.385699999999999,4.77092092,0.0229397119999941,"{57: 2, 5: 8, 8: 15}","[5, 8, 57]",58815572,La2B8O15
Ce2B8O15,mp-1019592,0.1048,7.62254609,0.0268124446666657,"{58: 2, 5: 8, 8: 15}","[5, 8, 58]",58815582,Ce2B8O15
Nd2B8O15,mp-1194942,5.2515,3.445829,0.0256494638166664,"{60: 2, 5: 8, 8: 15}","[5, 8, 60]",58815602,Nd2B8O15
B8PbO15,mp-1201012,0.0,-0.11523549,0.1539384965277781,"{5: 8, 82: 1, 8: 15}","[5, 8, 82]",58815821,B8Pb1O15
Bi2B8O15,mp-542931,4.347700000000001,0.83223215,0.0026988406666692,"{83: 2, 5: 8, 8: 15}","[5, 8, 83]",58815832,Bi2B8O15
Tb2Cu(BO2)8,mp-559927,1.0489000000000002,2.572998,0.018028212530865,"{65: 2, 29: 1, 5: 8, 8: 16}","[5, 8, 29, 65]",58816291652,Tb2Cu1B8O16
Dy2Cu(BO2)8,mp-557935,0.8659000000000003,2.76452901,0.0176873430864219,"{66: 2, 29: 1, 5: 8, 8: 16}","[5, 8, 29, 66]",58816291662,Dy2Cu1B8O16
Ho2Cu(BO2)8,mp-554184,0.8664999999999998,2.65663733,0.016916169845679,"{67: 2, 29: 1, 5: 8, 8: 16}","[5, 8, 29, 67]",58816291672,Ho2Cu1B8O16
Tl4B8O17,mp-1179277,0.4670999999999999,0.89569746,0.0875876453017348,"{81: 4, 5: 8, 8: 17}","[5, 8, 81]",58817814,Tl4B8O17
NpB8O17,mp-1197731,0.1041,-0.12922949,0.117662729439111,"{93: 1, 5: 8, 8: 17}","[5, 8, 93]",58817931,Np1B8O17
Ba4NaAl2B8(ClO6)3,mp-1204585,4.7156,1.31914869,0.0,"{56: 4, 11: 1, 13: 2, 5: 8, 17: 3, 8: 18}","[5, 8, 11, 13, 17, 56]",58818111132173564,Ba4Na1Al2B8Cl3O18
Ba4NaAl2B8(BrO6)3,mp-1197875,3.9083,1.95243876,0.0,"{56: 4, 11: 1, 13: 2, 5: 8, 35: 3, 8: 18}","[5, 8, 11, 13, 35, 56]",58818111132353564,Ba4Na1Al2B8Br3O18
Ba4NaGa2B8(ClO6)3,mp-1195176,4.4547,1.05801913,0.0,"{56: 4, 11: 1, 31: 2, 5: 8, 17: 3, 8: 18}","[5, 8, 11, 17, 31, 56]",58818111173312564,Ba4Na1Ga2B8Cl3O18
Ba4NaGa2B8(BrO6)3,mp-1195423,3.4734,1.7601824,0.0,"{56: 4, 11: 1, 31: 2, 5: 8, 35: 3, 8: 18}","[5, 8, 11, 31, 35, 56]",58818111312353564,Ba4Na1Ga2B8Br3O18
Th4Mg(B2O5)4,mp-1233955,1.2617000000000005,5.36011303,0.1522087153882569,"{90: 4, 12: 1, 5: 8, 8: 20}","[5, 8, 12, 90]",58820121904,Th4Mg1B8O20
Y2Al3Ga3(BO3)8,mp-1216259,5.0993,2.80962477,0.005108335729167,"{39: 2, 13: 3, 31: 3, 5: 8, 8: 24}","[5, 8, 13, 31, 39]",58824133313392,Y2Al3Ga3B8O24
EuYAl6(BO3)8,mp-1225326,0.0,3.52528244,0.00329342276925,"{63: 1, 39: 1, 13: 6, 5: 8, 8: 24}","[5, 8, 13, 39, 63]",58824136391631,Eu1Y1Al6B8O24
YErAl6(BO3)8,mp-1216022,5.398100000000001,3.42963138,0.0020854903221181,"{39: 1, 68: 1, 13: 6, 5: 8, 8: 24}","[5, 8, 13, 39, 68]",58824136391681,Y1Er1Al6B8O24
YFe6Bi(BO3)8,mp-1216150,2.2470000000000003,2.56819877,0.0121421447083349,"{39: 1, 26: 6, 83: 1, 5: 8, 8: 24}","[5, 8, 26, 39, 83]",58824266391831,Y1Fe6Bi1B8O24
NdFe6Bi(BO3)8,mp-1220241,2.3360000000000003,5.14575126,0.0240960980468756,"{60: 1, 26: 6, 83: 1, 5: 8, 8: 24}","[5, 8, 26, 60, 83]",58824266601831,Nd1Fe6Bi1B8O24
BaSr3Cu8(BO3)8,mp-1228284,0.0,2.26995347,0.0440786624431721,"{56: 1, 38: 3, 29: 8, 5: 8, 8: 24}","[5, 8, 29, 38, 56]",58824298383561,Ba1Sr3Cu8B8O24
Na3Sm9B8O27,mp-1210282,4.048399999999999,2.26806002,0.0031373752260588,"{11: 3, 62: 9, 5: 8, 8: 27}","[5, 8, 11, 62]",58827113629,Na3Sm9B8O27
Na3Eu9B8O27,mp-1210643,0.0,1.92455134,0.1085677518883478,"{11: 3, 63: 9, 5: 8, 8: 27}","[5, 8, 11, 63]",58827113639,Na3Eu9B8O27
Nd13Mg2Si4B8O43,mp-1196647,0.0,2.16490578,0.1251420014999933,"{60: 13, 12: 2, 14: 4, 5: 8, 8: 43}","[5, 8, 12, 14, 60]",588431221446013,Nd13Mg2Si4B8O43
Cd12Ge17(B4O29)2,mp-1204954,0.0001000000000002,3.60354385,0.0007592856052642,"{48: 12, 32: 17, 5: 8, 8: 58}","[5, 8, 32, 48]",5885832174812,Cd12Ge17B8O58
ThUB8,mp-1217340,0.0,9.34852549,0.0146816772500102,"{90: 1, 92: 1, 5: 8}","[5, 90, 92]",58901921,Th1U1B8
NaB9Se8,mp-640950,1.9422,1.2482763,0.0,"{11: 1, 5: 9, 34: 8}","[5, 11, 34]",59111348,Na1B9Se8
Rb4(BS)9,mp-31060,3.1228,0.89747148,0.0,"{37: 4, 5: 9, 16: 9}","[5, 16, 37]",59169374,Rb4B9S9
Y2(Ni5B3)3,mp-1204725,0.0,7.89931758,0.016858252204142,"{39: 2, 28: 15, 5: 9}","[5, 28, 39]",592815392,Y2Ni15B9
Tb2(Ni5B3)3,mp-1199398,0.0,7.91024769,0.0170338406878682,"{65: 2, 28: 15, 5: 9}","[5, 28, 65]",592815652,Tb2Ni15B9
Dy2(Ni5B3)3,mp-1198877,0.0,7.86175312,0.0116571919848924,"{66: 2, 28: 15, 5: 9}","[5, 28, 66]",592815662,Dy2Ni15B9
Ho2(Ni5B3)3,mp-5571,0.0,7.81927601,0.1136027922355706,"{67: 2, 28: 15, 5: 9}","[5, 28, 67]",592815672,Ho2Ni15B9
Rb2Hg(BSe)9,mp-541819,1.8297,0.64787354,0.0,"{37: 2, 80: 1, 5: 9, 34: 9}","[5, 34, 37, 80]",59349372801,Rb2Hg1B9Se9
B9C,mp-633538,0.0,5.65186708,0.3686381892083332,"{5: 9, 6: 1}","[5, 6]",5961,B9C1
La10(B3C4)3,mp-570357,0.0,8.34487525,0.0208456471290254,"{57: 10, 5: 9, 6: 12}","[5, 6, 57]",596125710,La10B9C12
Ce10(B3C4)3,mp-569274,0.0,8.02927831,0.0290561376612892,"{58: 10, 5: 9, 6: 12}","[5, 6, 58]",596125810,Ce10B9C12
Pr10(B3C4)3,mp-567719,0.0,5.2259319,0.0349721933602138,"{59: 10, 5: 9, 6: 12}","[5, 6, 59]",596125910,Pr10B9C12
Nd10(B3C4)3,mp-571244,0.0,5.15902192,0.0368676593225725,"{60: 10, 5: 9, 6: 12}","[5, 6, 60]",596126010,Nd10B9C12
B9N,mp-1079812,0.0,-3.95212226,2.526834684166668,"{5: 9, 7: 1}","[5, 7]",5971,B9N1
CsB9O13,mp-531006,3.1242,0.79251877,0.1014365061617237,"{55: 1, 5: 9, 8: 13}","[5, 8, 55]",59813551,Cs1B9O13
CsB9O14,mp-680683,5.4514,-0.93998189,0.0062481263368034,"{55: 1, 5: 9, 8: 14}","[5, 8, 55]",59814551,Cs1B9O14
BaNa(B3O5)3,mp-17864,5.501,-0.57260115,0.0,"{56: 1, 11: 1, 5: 9, 8: 15}","[5, 8, 11, 56]",59815111561,Ba1Na1B9O15
Ba3Sc(BO2)9,mp-557994,5.2789,0.75645211,0.0065128730241976,"{56: 3, 21: 1, 5: 9, 8: 18}","[5, 8, 21, 56]",59818211563,Ba3Sc1B9O18
Ba3Y(BO2)9,mp-559066,5.1877,0.57522941,0.0078351536962451,"{56: 3, 39: 1, 5: 9, 8: 18}","[5, 8, 39, 56]",59818391563,Ba3Y1B9O18
Ba3In(BO2)9,mp-556038,4.7243,0.98244937,0.0083249005241849,"{56: 3, 49: 1, 5: 9, 8: 18}","[5, 8, 49, 56]",59818491563,Ba3In1B9O18
Ba3Pr(BO2)9,mp-1214611,5.0748,5.39911607,0.0114933223790405,"{56: 3, 59: 1, 5: 9, 8: 18}","[5, 8, 56, 59]",59818563591,Ba3Pr1B9O18
Ba3Nd(BO2)9,mp-1214606,5.1019000000000005,5.43188638,0.0111352297177482,"{56: 3, 60: 1, 5: 9, 8: 18}","[5, 8, 56, 60]",59818563601,Ba3Nd1B9O18
Ba3Sm(BO2)9,mp-1214584,5.0836,5.42683789,0.0090974017338787,"{56: 3, 62: 1, 5: 9, 8: 18}","[5, 8, 56, 62]",59818563621,Ba3Sm1B9O18
Ba3Eu(BO2)9,mp-1214649,0.0,0.95876801,0.029114988528228,"{56: 3, 63: 1, 5: 9, 8: 18}","[5, 8, 56, 63]",59818563631,Ba3Eu1B9O18
Ba3Gd(BO2)9,mp-1214653,3.6864,4.12124569,0.0098111497715116,"{56: 3, 64: 1, 5: 9, 8: 18}","[5, 8, 56, 64]",59818563641,Ba3Gd1B9O18
Ba3Tb(BO2)9,mp-1214548,5.1618,5.5947389,0.0,"{56: 3, 65: 1, 5: 9, 8: 18}","[5, 8, 56, 65]",59818563651,Ba3Tb1B9O18
Ba3Dy(BO2)9,mp-1214634,5.1786,5.62241238,0.0044396622177487,"{56: 3, 66: 1, 5: 9, 8: 18}","[5, 8, 56, 66]",59818563661,Ba3Dy1B9O18
Ba3Ho(BO2)9,mp-1214639,5.1913,5.62528034,0.0082919011693629,"{56: 3, 67: 1, 5: 9, 8: 18}","[5, 8, 56, 67]",59818563671,Ba3Ho1B9O18
Ba3Er(BO2)9,mp-1214718,5.217700000000001,5.6540962,0.0078501140725872,"{56: 3, 68: 1, 5: 9, 8: 18}","[5, 8, 56, 68]",59818563681,Ba3Er1B9O18
Ba3Tm(BO2)9,mp-1214609,5.2609,5.73228974,0.0,"{56: 3, 69: 1, 5: 9, 8: 18}","[5, 8, 56, 69]",59818563691,Ba3Tm1B9O18
Ba3Lu(BO2)9,mp-561253,5.247299999999999,0.54816874,0.0036953421370942,"{56: 3, 71: 1, 5: 9, 8: 18}","[5, 8, 56, 71]",59818563711,Ba3Lu1B9O18
Ba3Bi(BO2)9,mp-1200141,4.286300000000001,5.62697115,0.0099921371773987,"{56: 3, 83: 1, 5: 9, 8: 18}","[5, 8, 56, 83]",59818563831,Ba3Bi1B9O18