formula,material_id,band_gap,efermi,energy_above_hull,comp_atoms,sorted_keys_comp_atoms,comp_number,new_formula
Hf2(Co7B2)3,mp-1194066,0.0,5.90779699,0.005909421551725913,"{72: 2, 27: 21, 5: 6}","[5, 27, 72]",562721722,Hf2Co21B6
Ta2(Co7B2)3,mp-1193985,0.0,6.10580364,0.0,"{73: 2, 27: 21, 5: 6}","[5, 27, 73]",562721732,Ta2Co21B6
Co21(B3W)2,mp-672221,0.0,6.22923433,0.02268070758620766,"{27: 21, 5: 6, 74: 2}","[5, 27, 74]",562721742,Co21B6W2
Co21(ReB3)2,mp-541852,0.0,6.27362658,0.02931419396551682,"{27: 21, 75: 2, 5: 6}","[5, 27, 75]",562721752,Co21Re2B6
U2(Co7B2)3,mp-541853,0.0,7.27318108,0.0,"{92: 2, 27: 21, 5: 6}","[5, 27, 92]",562721922,U2Co21B6
In(Co11B3)2,mp-1194097,0.0,6.32926621,0.06144986591954016,"{49: 1, 27: 22, 5: 6}","[5, 27, 49]",562722491,In1Co22B6
Co22B6Sb,mp-1194407,0.0,6.43827245,0.08142823362068974,"{27: 22, 5: 6, 51: 1}","[5, 27, 51]",562722511,Co22B6Sb1
Co23B6,mp-639154,0.0,5.86345795,0.03366596258620724,"{27: 23, 5: 6}","[5, 27]",562723,Co23B6
Pr5(CoB3)2,mp-7735,0.0,4.931632,0.003232367538461567,"{59: 5, 27: 2, 5: 6}","[5, 27, 59]",56272595,Pr5Co2B6
Dy5(CoB3)2,mp-1105042,0.0,4.66036464,0.0,"{66: 5, 27: 2, 5: 6}","[5, 27, 66]",56272665,Dy5Co2B6
La4(CoB2)3,mp-1104122,0.0,8.60534653,0.1521638876923106,"{57: 4, 27: 3, 5: 6}","[5, 27, 57]",56273574,La4Co3B6
Ce4(CoB2)3,mp-1103972,0.0,8.39209152,0.08159897942307737,"{58: 4, 27: 3, 5: 6}","[5, 27, 58]",56273584,Ce4Co3B6
Pr4(CoB2)3,mp-1105066,0.0,5.18321292,0.19545120552564121,"{59: 4, 27: 3, 5: 6}","[5, 27, 59]",56273594,Pr4Co3B6
Sm4(CoB2)3,mp-1103681,0.0,4.99132986,0.17834353080769194,"{62: 4, 27: 3, 5: 6}","[5, 27, 62]",56273624,Sm4Co3B6
Dy4(CoB2)3,mp-1104444,0.0,4.82640789,0.1947137184615384,"{66: 4, 27: 3, 5: 6}","[5, 27, 66]",56273664,Dy4Co3B6
Ho4(CoB2)3,mp-1103959,0.0,4.79331688,0.17845426955128207,"{67: 4, 27: 3, 5: 6}","[5, 27, 67]",56273674,Ho4Co3B6
Er4(CoB2)3,mp-1105098,0.0,4.73712654,0.19043922750000242,"{68: 4, 27: 3, 5: 6}","[5, 27, 68]",56273684,Er4Co3B6
Zn15B6Rh17,mp-1215838,0.0,5.29307043,0.0,"{30: 15, 5: 6, 45: 17}","[5, 30, 45]",5630154517,Zn15B6Rh17
Zn6B6Ir11,mp-1178665,0.0,7.42773929,0.010263535667714763,"{30: 6, 5: 6, 77: 11}","[5, 30, 77]",563067711,Zn6B6Ir11
B6As,mp-624,2.6454000000000004,4.53115495,0.0,"{5: 6, 33: 1}","[5, 33]",56331,B6As1
Cs(BBr)6,mp-569897,2.5949,-0.59579597,0.0,"{55: 1, 5: 6, 35: 6}","[5, 35, 55]",56356551,Cs1B6Br6
SrB6,mp-242,0.0,4.4717256,0.0,"{38: 1, 5: 6}","[5, 38]",56381,Sr1B6
Sr3(B3Rh4)2,mp-568771,0.0,5.74146794,0.0,"{38: 3, 5: 6, 45: 8}","[5, 38, 45]",56383458,Sr3B6Rh8
ZrB6,mp-1001788,0.0,6.82332535,0.4022764204761913,"{40: 1, 5: 6}","[5, 40]",56401,Zr1B6
Nb5B6,mp-1102394,0.0,7.21024751,0.0,"{41: 5, 5: 6}","[5, 41]",56415,Nb5B6
U2B6Mo,mp-1195876,0.0,10.5739271,0.0,"{92: 2, 5: 6, 42: 1}","[5, 42, 92]",56421922,U2B6Mo1
Pu2TcB6,mp-1197233,0.0,11.02720128,0.0,"{94: 2, 43: 1, 5: 6}","[5, 43, 94]",56431942,Pu2Tc1B6
Tb2B6Ru,mp-1200192,0.0,6.45160358,0.0,"{65: 2, 5: 6, 44: 1}","[5, 44, 65]",56441652,Tb2B6Ru1
Dy2B6Ru,mp-1198707,0.0,6.4284545,0.0,"{66: 2, 5: 6, 44: 1}","[5, 44, 66]",56441662,Dy2B6Ru1
Ho2B6Ru,mp-1198017,0.0,6.39511589,0.0,"{67: 2, 5: 6, 44: 1}","[5, 44, 67]",56441672,Ho2B6Ru1
Er2B6Ru,mp-1198465,0.0,6.47843779,0.0,"{68: 2, 5: 6, 44: 1}","[5, 44, 68]",56441682,Er2B6Ru1
Tm2B6Ru,mp-1196973,0.0,6.49329289,0.0,"{69: 2, 5: 6, 44: 1}","[5, 44, 69]",56441692,Tm2B6Ru1
Lu2B6Ru,mp-1201540,0.0,6.50879989,0.0,"{71: 2, 5: 6, 44: 1}","[5, 44, 71]",56441712,Lu2B6Ru1
Pu2B6Ru,mp-1201055,0.0,10.84574487,0.002965440486109472,"{94: 2, 5: 6, 44: 1}","[5, 44, 94]",56441942,Pu2B6Ru1
La3(B3Ru4)2,mp-4676,0.0,8.17566789,0.0,"{57: 3, 5: 6, 44: 8}","[5, 44, 57]",56448573,La3B6Ru8
Ho2B6Rh,mp-1212391,0.0,6.33198347,0.0,"{67: 2, 5: 6, 45: 1}","[5, 45, 67]",56451672,Ho2B6Rh1
Er2B6Rh,mp-1212905,0.0,6.3893536,0.0,"{68: 2, 5: 6, 45: 1}","[5, 45, 68]",56451682,Er2B6Rh1
Tm2B6Rh,mp-1208020,0.0,6.38502204,0.0,"{69: 2, 5: 6, 45: 1}","[5, 45, 69]",56451692,Tm2B6Rh1
Lu2B6Rh,mp-1211036,0.0,6.43098689,0.0,"{71: 2, 5: 6, 45: 1}","[5, 45, 71]",56451712,Lu2B6Rh1
Eu3(B3Rh4)2,mp-672322,0.0,5.97516798,0.0,"{63: 3, 5: 6, 45: 8}","[5, 45, 63]",56458633,Eu3B6Rh8
La2(B2Rh3)3,mp-1223329,0.0,7.36502868,0.0,"{57: 2, 5: 6, 45: 9}","[5, 45, 57]",56459572,La2B6Rh9
Ce2(B2Rh3)3,mp-1227070,0.0,7.04113176,0.0,"{58: 2, 5: 6, 45: 9}","[5, 45, 58]",56459582,Ce2B6Rh9
Tb2(B2Rh3)3,mp-1217714,0.0,5.89871088,0.0,"{65: 2, 5: 6, 45: 9}","[5, 45, 65]",56459652,Tb2B6Rh9
Dy2(B2Rh3)3,mp-1225361,0.0,5.85912131,0.0,"{66: 2, 5: 6, 45: 9}","[5, 45, 66]",56459662,Dy2B6Rh9
Ho2(B2Rh3)3,mp-1224217,0.0,5.90500431,0.0,"{67: 2, 5: 6, 45: 9}","[5, 45, 67]",56459672,Ho2B6Rh9
Er2(B2Rh3)3,mp-1225103,0.0,5.85455421,0.0,"{68: 2, 5: 6, 45: 9}","[5, 45, 68]",56459682,Er2B6Rh9
Tm2(B2Rh3)3,mp-1216756,0.0,5.82527487,0.0014317379117647633,"{69: 2, 5: 6, 45: 9}","[5, 45, 69]",56459692,Tm2B6Rh9
Lu2(B2Rh3)3,mp-1222515,0.0,5.74785712,0.01255737494117426,"{71: 2, 5: 6, 45: 9}","[5, 45, 71]",56459712,Lu2B6Rh9
SnB6,mp-1094049,0.7525000000000004,6.27917655,0.17392729857142974,"{50: 1, 5: 6}","[5, 50]",56501,Sn1B6
Cs(BI)6,mp-640353,1.6875999999999998,1.14412692,0.0,"{55: 1, 5: 6, 53: 6}","[5, 53, 55]",56536551,Cs1B6I6
LaB6,mp-2680,0.0,8.81891007,0.0,"{57: 1, 5: 6}","[5, 57]",56571,La1B6
CeB6,mp-21343,0.0,8.16098084,0.0,"{58: 1, 5: 6}","[5, 58]",56581,Ce1B6
Ce2(ReB2)3,mp-1190580,0.0,8.37779556,0.0,"{58: 2, 75: 3, 5: 6}","[5, 58, 75]",56582753,Ce2Re3B6
PrB6,mp-12762,0.0,7.04511457,0.0,"{59: 1, 5: 6}","[5, 59]",56591,Pr1B6
Pr2(ReB2)3,mp-2933,0.0,6.40394538,0.0,"{59: 2, 75: 3, 5: 6}","[5, 59, 75]",56592753,Pr2Re3B6
NdB6,mp-1929,0.0,6.98005805,0.0,"{60: 1, 5: 6}","[5, 60]",56601,Nd1B6
Nd2(ReB2)3,mp-1190986,0.0,6.38490953,0.0,"{60: 2, 75: 3, 5: 6}","[5, 60, 75]",56602753,Nd2Re3B6
SmB6,mp-6996,0.0,6.83202031,0.0,"{62: 1, 5: 6}","[5, 62]",56621,Sm1B6
Sm2(ReB2)3,mp-979418,0.0,6.21296578,0.0,"{62: 2, 75: 3, 5: 6}","[5, 62, 75]",56622753,Sm2Re3B6
EuB6,mp-20874,0.0,5.71145427,0.0,"{63: 1, 5: 6}","[5, 63]",56631,Eu1B6
GdB6,mp-22266,0.0,6.35612841,0.0,"{64: 1, 5: 6}","[5, 64]",56641,Gd1B6
Gd2B6Os,mp-1202304,0.0,5.24224493,0.0,"{64: 2, 5: 6, 76: 1}","[5, 64, 76]",56642761,Gd2B6Os1
TbB6,mp-12763,0.0,6.98565124,0.008686888839287477,"{65: 1, 5: 6}","[5, 65]",56651,Tb1B6
Tb2ReB6,mp-1198929,0.0,5.87927185,0.0,"{65: 2, 75: 1, 5: 6}","[5, 65, 75]",56652751,Tb2Re1B6
Tb2B6Os,mp-1200538,0.0,6.54287987,0.0,"{65: 2, 5: 6, 76: 1}","[5, 65, 76]",56652761,Tb2B6Os1
DyB6,mp-568319,0.0,6.95660541,0.020764303839285958,"{66: 1, 5: 6}","[5, 66]",56661,Dy1B6
Dy2ReB6,mp-1204645,0.0,5.87703918,0.0,"{66: 2, 75: 1, 5: 6}","[5, 66, 75]",56662751,Dy2Re1B6
Dy2B6Os,mp-1198294,0.0,6.54798169,0.0,"{66: 2, 5: 6, 76: 1}","[5, 66, 76]",56662761,Dy2B6Os1
HoB6,mp-571491,0.0,6.90347834,0.037382768571429636,"{67: 1, 5: 6}","[5, 67]",56671,Ho1B6
Ho2ReB6,mp-1204735,0.0,5.82984179,0.0,"{67: 2, 75: 1, 5: 6}","[5, 67, 75]",56672751,Ho2Re1B6
Ho2B6Os,mp-1200778,0.0,6.5297809,0.0,"{67: 2, 5: 6, 76: 1}","[5, 67, 76]",56672761,Ho2B6Os1
ErB6,mp-1296,0.0,6.90686539,0.053575387500002236,"{68: 1, 5: 6}","[5, 68]",56681,Er1B6
Er2ReB6,mp-1201657,0.0,5.87798954,0.0,"{68: 2, 75: 1, 5: 6}","[5, 68, 75]",56682751,Er2Re1B6
Er2B6Os,mp-1198965,0.0,6.61781275,0.0,"{68: 2, 5: 6, 76: 1}","[5, 68, 76]",56682761,Er2B6Os1
TmB6,mp-571352,0.0,6.87839166,0.07931735776785587,"{69: 1, 5: 6}","[5, 69]",56691,Tm1B6
Tm2ReB6,mp-1195760,0.0,5.84645402,0.0,"{69: 2, 75: 1, 5: 6}","[5, 69, 75]",56692751,Tm2Re1B6
Tm2B6Os,mp-1203429,0.0,6.60976347,0.0,"{69: 2, 5: 6, 76: 1}","[5, 69, 76]",56692761,Tm2B6Os1
LuB6,mp-12660,0.0,6.85195841,0.10300262901785473,"{71: 1, 5: 6}","[5, 71]",56711,Lu1B6
Lu2ReB6,mp-1201869,0.0,5.81971871,0.0,"{71: 2, 75: 1, 5: 6}","[5, 71, 75]",56712751,Lu2Re1B6
Lu2B6Os,mp-1199915,0.0,6.68366794,0.0,"{71: 2, 5: 6, 76: 1}","[5, 71, 76]",56712761,Lu2B6Os1
NaB6NO10,mp-1201362,0.0,-1.79089487,0.3515226353009364,"{11: 1, 5: 6, 7: 1, 8: 10}","[5, 7, 8, 11]",5671810111,Na1B6N1O10
Na3B6NO13,mp-558548,3.2938,0.4537687,0.0,"{11: 3, 5: 6, 7: 1, 8: 13}","[5, 7, 8, 11]",5671813113,Na3B6N1O13
Cs2B6NO2,mp-1196353,0.5024,0.94436008,1.4474724742576237,"{55: 2, 5: 6, 7: 1, 8: 2}","[5, 7, 8, 55]",567182552,Cs2B6N1O2
HfB6,mp-1004377,0.0,7.26637459,0.5356748404761902,"{72: 1, 5: 6}","[5, 72]",56721,Hf1B6
Ta5B6,mp-28629,0.0,8.06647133,0.0,"{73: 5, 5: 6}","[5, 73]",56735,Ta5B6
U2B6W,mp-1203029,0.0,10.4147553,0.0,"{92: 2, 5: 6, 74: 1}","[5, 74, 92]",56741922,U2B6W1
U2ReB6,mp-1202234,0.0,10.7220846,0.0,"{92: 2, 75: 1, 5: 6}","[5, 75, 92]",56751922,U2Re1B6
Pu2ReB6,mp-1201365,0.0,10.71663566,0.2008772734722193,"{94: 2, 75: 1, 5: 6}","[5, 75, 94]",56751942,Pu2Re1B6
U2B6Os,mp-1202841,0.0,10.9732107,0.0014794705555534193,"{92: 2, 5: 6, 76: 1}","[5, 76, 92]",56761922,U2B6Os1
Pu2B6Os,mp-1205010,0.0,11.05789741,0.008731994652778852,"{94: 2, 5: 6, 76: 1}","[5, 76, 94]",56761942,Pu2B6Os1
HgB6,mp-1096797,0.0,3.66363246,0.4055880399999996,"{80: 1, 5: 6}","[5, 80]",56801,Hg1B6
B6O,mp-1346,1.8563999999999998,5.28513093,0.0,"{5: 6, 8: 1}","[5, 8]",5681,B6O1
RbNa2B6ClO10,mp-1194580,5.1287,4.8675445,0.002547858681806403,"{37: 1, 11: 2, 5: 6, 17: 1, 8: 10}","[5, 8, 11, 17, 37]",56810112171371,Rb1Na2B6Cl1O10
RbNa2B6BrO10,mp-1195617,5.010599999999999,-0.15642096,0.0021374034583230284,"{37: 1, 11: 2, 5: 6, 35: 1, 8: 10}","[5, 8, 11, 35, 37]",56810112351371,Rb1Na2B6Br1O10
Na3B6ClO10,mp-1195615,5.1851,5.18072371,0.004370080458321546,"{11: 3, 5: 6, 17: 1, 8: 10}","[5, 8, 11, 17]",56810113171,Na3B6Cl1O10
Na3B6BrO10,mp-1197987,4.726299999999999,5.1228966,0.0007070717083230704,"{11: 3, 5: 6, 35: 1, 8: 10}","[5, 8, 11, 35]",56810113351,Na3B6Br1O10
K3B6ClO10,mp-1189091,5.3729,-0.17296158,0.0,"{19: 3, 5: 6, 17: 1, 8: 10}","[5, 8, 17, 19]",56810171193,K3B6Cl1O10
K3B6BrO10,mp-23612,5.212000000000001,-0.08136988,0.0,"{19: 3, 5: 6, 35: 1, 8: 10}","[5, 8, 19, 35]",56810193351,K3B6Br1O10
Ca(B3O5)2,mp-558358,5.8213,0.37977667,0.0,"{20: 1, 5: 6, 8: 10}","[5, 8, 20]",56810201,Ca1B6O10
Na2ZnB6O11,mp-1020181,4.7511,0.15868722,0.0028759504722222218,"{11: 2, 30: 1, 5: 6, 8: 11}","[5, 8, 11, 30]",56811112301,Na2Zn1B6O11
Ca2B6O11,mp-27657,5.639,1.82040674,0.0,"{20: 2, 5: 6, 8: 11}","[5, 8, 20]",56811202,Ca2B6O11
Sr3B6O11F2,mp-1202821,5.4177,1.23721881,0.0,"{38: 3, 5: 6, 8: 11, 9: 2}","[5, 8, 9, 38]",5681192383,Sr3B6O11F2
B6Pb3O11F2,mp-1197284,3.0253999999999994,6.09613838,0.06035308042212062,"{5: 6, 82: 3, 8: 11, 9: 2}","[5, 8, 9, 82]",5681192823,B6Pb3O11F2
Zn3GaB6PO12,mp-39215,4.0713,2.42636108,0.0,"{30: 3, 31: 1, 5: 6, 15: 1, 8: 12}","[5, 8, 15, 30, 31]",56812151303311,Zn3Ga1B6P1O12
Zn4B6SeO12,mp-14921,1.8571,2.52449699,0.0,"{30: 4, 5: 6, 34: 1, 8: 12}","[5, 8, 30, 34]",56812304341,Zn4B6Se1O12
Cd2B6PbO12,mp-1194787,3.5842,5.49188032,0.003335398620268215,"{48: 2, 5: 6, 82: 1, 8: 12}","[5, 8, 48, 82]",56812482821,Cd2B6Pb1O12
Gd(BO2)6,mp-1202527,0.128,-0.68526359,0.13513817036183973,"{64: 1, 5: 6, 8: 12}","[5, 8, 64]",56812641,Gd1B6O12
Ho(BO2)6,mp-1203590,0.12919999999999998,-0.44291389,0.1367959917105246,"{67: 1, 5: 6, 8: 12}","[5, 8, 67]",56812671,Ho1B6O12
NaNdB6O13,mp-1198569,0.0,-0.41594584,0.18039682774803278,"{11: 1, 60: 1, 5: 6, 8: 13}","[5, 8, 11, 60]",56813111601,Na1Nd1B6O13
Na3B6PO13,mp-556801,4.7576,0.58575766,0.0,"{11: 3, 5: 6, 15: 1, 8: 13}","[5, 8, 11, 15]",56813113151,Na3B6P1O13
Na3VB6O13,mp-557235,2.9370000000000003,0.37591512,0.002842647355085326,"{11: 3, 23: 1, 5: 6, 8: 13}","[5, 8, 11, 23]",56813113231,Na3V1B6O13
Co4B6O13,mp-19343,3.0013,2.48375592,0.12115721743961316,"{27: 4, 5: 6, 8: 13}","[5, 8, 27]",56813274,Co4B6O13
Zn4B6O13,mp-4812,3.4134,1.66805371,0.0,"{30: 4, 5: 6, 8: 13}","[5, 8, 30]",56813304,Zn4B6O13
Cd4B6O13,mp-755260,2.4314,1.33330088,0.026677115434786458,"{48: 4, 5: 6, 8: 13}","[5, 8, 48]",56813484,Cd4B6O13
Sr(B3O7)2,mp-1179473,0.0,-0.20864603,0.48957151917328545,"{38: 1, 5: 6, 8: 14}","[5, 8, 38]",56814381,Sr1B6O14
Bi3(B3O7)2,mp-1191820,0.018299999999999983,3.17026103,0.0694473569565206,"{83: 3, 5: 6, 8: 14}","[5, 8, 83]",56814833,Bi3B6O14
NaU(B2O5)3,mp-1201797,0.2873,0.0009575,0.22974766827898652,"{11: 1, 92: 1, 5: 6, 8: 15}","[5, 8, 11, 92]",56815111921,Na1U1B6O15
Mg(B2O5)3,mp-868019,0.3073,-0.85649268,0.7002235793371252,"{12: 1, 5: 6, 8: 15}","[5, 8, 12]",56815121,Mg1B6O15
Al4(B2O5)3,mp-31408,5.8172999999999995,1.77267999,0.0,"{13: 4, 5: 6, 8: 15}","[5, 8, 13]",56815134,Al4B6O15
Ca(B2O5)3,mp-1204348,0.03609999999999991,-0.78435157,0.5909351473295485,"{20: 1, 5: 6, 8: 15}","[5, 8, 20]",56815201,Ca1B6O15
La4(B2O5)3,mp-772771,4.555999999999999,4.95929543,0.023072433839992357,"{57: 4, 5: 6, 8: 15}","[5, 8, 57]",56815574,La4B6O15
Dy4(B2O5)3,mp-18108,5.3260999999999985,2.82190633,0.02023741360000031,"{66: 4, 5: 6, 8: 15}","[5, 8, 66]",56815664,Dy4B6O15
Ho4(B2O5)3,mp-17714,5.5299,2.81612664,0.038471363949998505,"{67: 4, 5: 6, 8: 15}","[5, 8, 67]",56815674,Ho4B6O15
Er4(B2O5)3,mp-772497,5.656499999999999,2.81178911,0.04140922929999924,"{68: 4, 5: 6, 8: 15}","[5, 8, 68]",56815684,Er4B6O15
Tm4(B2O5)3,mp-772919,5.492000000000001,2.72861821,0.020551646020001257,"{69: 4, 5: 6, 8: 15}","[5, 8, 69]",56815694,Tm4B6O15
Lu4(B2O5)3,mp-771772,5.5478000000000005,2.72213328,0.0392940713500014,"{71: 4, 5: 6, 8: 15}","[5, 8, 71]",56815714,Lu4B6O15
Bi4(B2O5)3,mp-768923,3.2042,4.53087349,0.007641579200001303,"{83: 4, 5: 6, 8: 15}","[5, 8, 83]",56815834,Bi4B6O15
Mg(B3O8)2,mp-1181440,0.009399999999999853,-1.9200765,0.681782354583337,"{12: 1, 5: 6, 8: 16}","[5, 8, 12]",56816121,Mg1B6O16
Sr3Ge2(B3O8)2,mp-1020650,4.4323999999999995,1.96453542,0.0023315776851893233,"{38: 3, 32: 2, 5: 6, 8: 16}","[5, 8, 32, 38]",56816322383,Sr3Ge2B6O16
CaMgB6O17,mp-1204390,0.0,0.21995464,0.46369905326667826,"{20: 1, 12: 1, 5: 6, 8: 17}","[5, 8, 12, 20]",56817121201,Ca1Mg1B6O17
Rb4Ge3B6O17,mp-1020896,4.401199999999999,0.2551054,0.0,"{37: 4, 32: 3, 5: 6, 8: 17}","[5, 8, 32, 37]",56817323374,Rb4Ge3B6O17
KNaSr8(BO3)6,mp-1223494,3.7852,5.29456769,0.009124780147063305,"{19: 1, 11: 1, 38: 8, 5: 6, 8: 18}","[5, 8, 11, 19, 38]",56818111191388,K1Na1Sr8B6O18
Ca3(B3O10)2,mp-1214604,0.15619999999999995,-0.39676423,0.5830633947413837,"{20: 3, 5: 6, 8: 20}","[5, 8, 20]",56820203,Ca3B6O20
B6Pb,mp-1096825,0.9206000000000003,6.19390313,0.115100015000003,"{5: 6, 82: 1}","[5, 82]",56821,B6Pb1
CaMg(B3O11)2,mp-1214468,0.0,-1.20718605,0.8147342733055583,"{20: 1, 12: 1, 5: 6, 8: 22}","[5, 8, 12, 20]",56822121201,Ca1Mg1B6O22
BiB6,mp-1096844,0.0,6.98952482,0.3322086335714296,"{83: 1, 5: 6}","[5, 83]",56831,Bi1B6
RbB6S2(Cl3O2)2,mp-1201123,1.8159999999999998,-0.44377802,0.5303246550927634,"{37: 1, 5: 6, 16: 2, 17: 6, 8: 4}","[5, 8, 16, 17, 37]",5684162176371,Rb1B6S2Cl6O4
Ca10Ge16(B2O17)3,mp-1019569,2.7264,1.96985695,0.0,"{20: 10, 32: 16, 5: 6, 8: 51}","[5, 8, 20, 32]",5685120103216,Ca10Ge16B6O51
Ti(BO)6,mp-1208717,0.0,2.02187602,0.7524988464102567,"{22: 1, 5: 6, 8: 6}","[5, 8, 22]",5686221,Ti1B6O6
V(BO)6,mp-1208078,0.0,-3.01396115,1.6122793071794908,"{23: 1, 5: 6, 8: 6}","[5, 8, 23]",5686231,V1B6O6
Ga(BO)6,mp-1212929,0.0,-4.23015195,1.7995835216826928,"{31: 1, 5: 6, 8: 6}","[5, 8, 31]",5686311,Ga1B6O6
B6RhO6,mp-1214985,0.0,-3.21538713,1.3344575201041682,"{5: 6, 45: 1, 8: 6}","[5, 8, 45]",5686451,B6Rh1O6
NaB6S4(Br3O4)2,mp-1196084,1.7688000000000001,-0.73658198,0.6149454276361119,"{11: 1, 5: 6, 16: 4, 35: 6, 8: 8}","[5, 8, 11, 16, 35]",5688111164356,Na1B6S4Br6O8
NaB6S4(I3O4)2,mp-1205269,1.1801,0.87753387,0.6246949243444435,"{11: 1, 5: 6, 16: 4, 53: 6, 8: 8}","[5, 8, 11, 16, 53]",5688111164536,Na1B6S4I6O8
KB6S4(Cl3O4)2,mp-1200783,1.7539000000000002,-0.65058857,0.5650621837986112,"{19: 1, 5: 6, 16: 4, 17: 6, 8: 8}","[5, 8, 16, 17, 19]",5688164176191,K1B6S4Cl6O8
ThB6,mp-1756,0.0,8.56450316,0.0,"{90: 1, 5: 6}","[5, 90]",56901,Th1B6
NpB6,mp-1025156,0.0,9.40794533,0.010547701785721841,"{93: 1, 5: 6}","[5, 93]",56931,Np1B6
PuB6,mp-505534,0.0,9.14793032,0.004874788303570909,"{94: 1, 5: 6}","[5, 94]",56941,Pu1B6
KB6F6,mp-1205091,2.6471,1.97911808,0.07442318117521562,"{19: 1, 5: 6, 9: 6}","[5, 9, 19]",5696191,K1B6F6
MgB7,mp-978275,1.4592,6.08491377,0.0,"{12: 1, 5: 7}","[5, 12]",57121,Mg1B7
AlB7Pd15,mp-1195438,0.008399999999999963,6.18064266,0.07869569599637671,"{13: 1, 5: 7, 46: 15}","[5, 13, 46]",571314615,Al1B7Pd15
Pr8(BCl)7,mp-568295,0.0,4.96746268,0.0,"{59: 8, 5: 7, 17: 7}","[5, 17, 59]",57177598,Pr8B7Cl7
Ho3CrB7,mp-31046,0.0,5.2693142,0.0,"{67: 3, 24: 1, 5: 7}","[5, 24, 67]",57241673,Ho3Cr1B7
Er3CrB7,mp-14503,0.0,5.32699014,0.0,"{68: 3, 24: 1, 5: 7}","[5, 24, 68]",57241683,Er3Cr1B7
Gd3MnB7,mp-976437,0.0,5.19081089,0.014823092772726199,"{64: 3, 25: 1, 5: 7}","[5, 25, 64]",57251643,Gd3Mn1B7
Tb3MnB7,mp-1190660,0.0,5.35026613,0.0,"{65: 3, 25: 1, 5: 7}","[5, 25, 65]",57251653,Tb3Mn1B7
Dy3MnB7,mp-14356,0.0,5.33416461,0.0,"{66: 3, 25: 1, 5: 7}","[5, 25, 66]",57251663,Dy3Mn1B7
Ho3MnB7,mp-1191455,0.0,5.28427873,0.0,"{67: 3, 25: 1, 5: 7}","[5, 25, 67]",57251673,Ho3Mn1B7
Er3MnB7,mp-1191003,0.0,5.26696287,0.0,"{68: 3, 25: 1, 5: 7}","[5, 25, 68]",57251683,Er3Mn1B7
Nb3Co4B7,mp-4212,0.0,7.10167693,0.0,"{41: 3, 27: 4, 5: 7}","[5, 27, 41]",57274413,Nb3Co4B7
Tb3B7Mo,mp-1208474,0.0,5.65317936,0.0,"{65: 3, 5: 7, 42: 1}","[5, 42, 65]",57421653,Tb3B7Mo1
Dy3B7Mo,mp-1213062,0.0,5.68897117,0.0,"{66: 3, 5: 7, 42: 1}","[5, 42, 66]",57421663,Dy3B7Mo1
Ho3B7Mo,mp-1212287,0.0,5.63285365,0.001149714545455538,"{67: 3, 5: 7, 42: 1}","[5, 42, 67]",57421673,Ho3B7Mo1
TbB7Mo3,mp-1208351,0.0,8.30738212,0.000615412954545036,"{65: 1, 5: 7, 42: 3}","[5, 42, 65]",57423651,Tb1B7Mo3
DyB7Mo3,mp-1212893,0.0,8.3034585,0.0,"{66: 1, 5: 7, 42: 3}","[5, 42, 66]",57423661,Dy1B7Mo3
HoB7Mo3,mp-504877,0.0,8.24176384,0.0,"{67: 1, 5: 7, 42: 3}","[5, 42, 67]",57423671,Ho1B7Mo3
ErB7Mo3,mp-1213140,0.0,8.28908171,0.0,"{68: 1, 5: 7, 42: 3}","[5, 42, 68]",57423681,Er1B7Mo3
TmB7Mo3,mp-1208003,0.0,8.23669444,0.0,"{69: 1, 5: 7, 42: 3}","[5, 42, 69]",57423691,Tm1B7Mo3
La2Re3B7,mp-27894,0.0,8.22829955,0.0,"{57: 2, 75: 3, 5: 7}","[5, 57, 75]",57572753,La2Re3B7
Gd3B7W,mp-1190670,0.0,5.45168203,0.0,"{64: 3, 5: 7, 74: 1}","[5, 64, 74]",57643741,Gd3B7W1
Gd3ReB7,mp-1190894,0.0,4.95230807,1.4171434591363656,"{64: 3, 75: 1, 5: 7}","[5, 64, 75]",57643751,Gd3Re1B7
Tb3B7W,mp-1191743,0.0,5.60445507,0.0,"{65: 3, 5: 7, 74: 1}","[5, 65, 74]",57653741,Tb3B7W1
Tb3ReB7,mp-972380,0.0,5.56999659,0.0,"{65: 3, 75: 1, 5: 7}","[5, 65, 75]",57653751,Tb3Re1B7
Dy3B7W,mp-1191614,0.0,5.57393917,0.0,"{66: 3, 5: 7, 74: 1}","[5, 66, 74]",57663741,Dy3B7W1
Dy3ReB7,mp-1190970,0.0,5.53912967,0.0,"{66: 3, 75: 1, 5: 7}","[5, 66, 75]",57663751,Dy3Re1B7
Ho3B7W,mp-1191254,0.0,5.52029882,0.0,"{67: 3, 5: 7, 74: 1}","[5, 67, 74]",57673741,Ho3B7W1
Ho3ReB7,mp-973395,0.0,5.49166414,0.0,"{67: 3, 75: 1, 5: 7}","[5, 67, 75]",57673751,Ho3Re1B7
Er3B7W,mp-1191731,0.0,5.55753192,0.0,"{68: 3, 5: 7, 74: 1}","[5, 68, 74]",57683741,Er3B7W1
Er3ReB7,mp-1191966,0.0,5.51375317,0.0,"{68: 3, 75: 1, 5: 7}","[5, 68, 75]",57683751,Er3Re1B7
Tm3B7W,mp-1191016,0.0,5.53537921,0.0,"{69: 3, 5: 7, 74: 1}","[5, 69, 74]",57693741,Tm3B7W1
Tm3ReB7,mp-865404,0.0,5.47849142,0.0,"{69: 3, 75: 1, 5: 7}","[5, 69, 75]",57693751,Tm3Re1B7
Na3B7O12,mp-31073,4.9219,0.47113017,0.0,"{11: 3, 5: 7, 8: 12}","[5, 8, 11]",57812113,Na3B7O12
Rb3B7O12,mp-30127,4.3578,4.38001571,0.00440635169191772,"{37: 3, 5: 7, 8: 12}","[5, 8, 37]",57812373,Rb3B7O12
SrAgB7O12,mp-554259,3.0005999999999995,1.77791326,0.0,"{38: 1, 47: 1, 5: 7, 8: 12}","[5, 8, 38, 47]",57812381471,Sr1Ag1B7O12
Bi3B7O12,mp-768969,0.4014999999999995,3.8477483,0.07399976174242617,"{83: 3, 5: 7, 8: 12}","[5, 8, 83]",57812833,Bi3B7O12
Mg3B7ClO13,mp-23087,5.7052,2.2875263,0.0,"{12: 3, 5: 7, 17: 1, 8: 13}","[5, 8, 12, 17]",57813123171,Mg3B7Cl1O13
Mg3B7BrO13,mp-1210659,5.9459,2.23377874,0.0,"{12: 3, 5: 7, 35: 1, 8: 13}","[5, 8, 12, 35]",57813123351,Mg3B7Br1O13
Cr3B7ClO13,mp-559511,2.7626000000000004,3.84983466,0.0,"{24: 3, 5: 7, 17: 1, 8: 13}","[5, 8, 17, 24]",57813171243,Cr3B7Cl1O13
Mn3B7ClO13,mp-556656,4.2082999999999995,2.69053821,0.0,"{25: 3, 5: 7, 17: 1, 8: 13}","[5, 8, 17, 25]",57813171253,Mn3B7Cl1O13
Co3B7ClO13,mp-23578,2.2683000000000004,2.49089177,0.06885884699074118,"{27: 3, 5: 7, 17: 1, 8: 13}","[5, 8, 17, 27]",57813171273,Co3B7Cl1O13