formula,material_id,band_gap,efermi,energy_above_hull,comp_atoms,sorted_keys_comp_atoms,comp_number,new_formula
YHgB,mp-1100402,0.3563,3.77628646,0.4684993066666614,"{39: 1, 80: 1, 5: 1}","[5, 39, 80]",51391801,Y1Hg1B1
ZrB,mp-1014246,0.0,4.05376707,0.3296001425000003,"{40: 1, 5: 1}","[5, 40]",51401,Zr1B1
Zr9BMo4,mp-1192463,0.0,5.11970434,0.0374861728571396,"{40: 9, 5: 1, 42: 4}","[5, 40, 42]",51409424,Zr9B1Mo4
Zr9BW4,mp-1192767,0.0,4.75858028,0.0604935042857128,"{40: 9, 5: 1, 74: 4}","[5, 40, 74]",51409744,Zr9B1W4
Zr9Re4B,mp-1193442,0.0,5.08890941,0.0198580349714276,"{40: 9, 75: 4, 5: 1}","[5, 40, 75]",51409754,Zr9Re4B1
NbBRu,mp-1105360,0.0,7.39976628,0.0109947218686947,"{41: 1, 5: 1, 44: 1}","[5, 41, 44]",51411441,Nb1B1Ru1
NbBRh3,mp-1206988,0.0,6.76320125,0.2306206333333307,"{41: 1, 5: 1, 45: 3}","[5, 41, 45]",51411453,Nb1B1Rh3
NbBW,mp-631531,0.0,3.99925244,2.139855604999997,"{41: 1, 5: 1, 74: 1}","[5, 41, 74]",51411741,Nb1B1W1
NbBOs,mp-1195339,0.0,7.74622975,0.0009411447222191,"{41: 1, 5: 1, 76: 1}","[5, 41, 76]",51411761,Nb1B1Os1
Al(Ni10B7)2,mp-505473,0.0,8.92607076,0.0297697780000003,"{13: 1, 28: 20, 5: 14}","[5, 13, 28]",5141312820,Al1Ni20B14
TbAlB14,mp-1201619,0.0,8.61411994,0.0497525105298901,"{65: 1, 13: 1, 5: 14}","[5, 13, 65]",514131651,Tb1Al1B14
DyAlB14,mp-1201129,0.0,8.6154629,0.0509851864605952,"{66: 1, 13: 1, 5: 14}","[5, 13, 66]",514131661,Dy1Al1B14
HoAlB14,mp-569726,0.0,8.60154464,0.0515844103634499,"{67: 1, 13: 1, 5: 14}","[5, 13, 67]",514131671,Ho1Al1B14
ErAlB14,mp-1198758,0.0,8.61643455,0.0528282406997266,"{68: 1, 13: 1, 5: 14}","[5, 13, 68]",514131681,Er1Al1B14
LuAlB14,mp-1197767,0.0,8.55432526,0.0540130137366556,"{71: 1, 13: 1, 5: 14}","[5, 13, 71]",514131711,Lu1Al1B14
BMoW,mp-1228637,0.0,8.2022338,0.0410238816666677,"{5: 1, 42: 1, 74: 1}","[5, 42, 74]",51421741,B1Mo1W1
ReBMo,mp-1219525,0.0,8.69754097,0.0513554133333329,"{75: 1, 5: 1, 42: 1}","[5, 42, 75]",51421751,Re1B1Mo1
BMo2,mp-2501,0.0,8.6262136,0.0271457108333308,"{5: 1, 42: 2}","[5, 42]",51422,B1Mo2
Hf9BMo4,mp-18024,0.0,5.59088805,0.0027119303571438,"{72: 9, 5: 1, 42: 4}","[5, 42, 72]",51424729,Hf9B1Mo4
Y3(Fe31B7)2,mp-28618,0.0,5.40763627,0.2631824819462016,"{39: 3, 26: 62, 5: 14}","[5, 26, 39]",5142662393,Y3Fe62B14
TcB,mp-1002188,0.0,8.10664975,0.102731366590909,"{43: 1, 5: 1}","[5, 43]",51431,Tc1B1
BRh2,mp-21502,0.0,7.00154612,0.0744669558333335,"{5: 1, 45: 2}","[5, 45]",51452,B1Rh2
EuBRh3,mp-510377,0.0,5.2314687,0.0243434800000024,"{63: 1, 5: 1, 45: 3}","[5, 45, 63]",51453631,Eu1B1Rh3
UBRh3,mp-1069774,0.0,8.69405617,0.0552363937857123,"{92: 1, 5: 1, 45: 3}","[5, 45, 92]",51453921,U1B1Rh3
Eu4BPd12,mp-1225374,0.0,3.90101441,0.0099521155882307,"{63: 4, 5: 1, 46: 12}","[5, 46, 63]",514612634,Eu4B1Pd12
La15B14C19,mp-679949,0.0,8.23017743,0.0177954298194391,"{57: 15, 5: 14, 6: 19}","[5, 6, 57]",5146195715,La15B14C19
Pr25(B7C13)2,mp-1221234,0.0,4.40430094,0.0308527862051288,"{59: 25, 5: 14, 6: 26}","[5, 6, 59]",5146265925,Pr25B14C26
Nd25(B7C13)2,mp-1221391,0.0,4.32205124,0.0225652384923042,"{60: 25, 5: 14, 6: 26}","[5, 6, 60]",5146266025,Nd25B14C26
LaBPd3,mp-3846,0.0,6.92841046,0.1440842551999992,"{57: 1, 5: 1, 46: 3}","[5, 46, 57]",51463571,La1B1Pd3
CeBPd3,mp-19948,0.0,6.6209927,0.2078660686666644,"{58: 1, 5: 1, 46: 3}","[5, 46, 58]",51463581,Ce1B1Pd3
PrBPd3,mp-2976,0.0,5.14670399,0.1109127529333333,"{59: 1, 5: 1, 46: 3}","[5, 46, 59]",51463591,Pr1B1Pd3
SmBPd3,mp-3428,0.0,4.96328576,0.1079392568181809,"{62: 1, 5: 1, 46: 3}","[5, 46, 62]",51463621,Sm1B1Pd3
EuBPd3,mp-20040,0.0,4.68011849,0.0728089504642852,"{63: 1, 5: 1, 46: 3}","[5, 46, 63]",51463631,Eu1B1Pd3
GdBPd3,mp-20967,0.0,4.82154731,0.1207213106363624,"{64: 1, 5: 1, 46: 3}","[5, 46, 64]",51463641,Gd1B1Pd3
TbBPd3,mp-3022,0.0,5.16835018,0.112749955090905,"{65: 1, 5: 1, 46: 3}","[5, 46, 65]",51463651,Tb1B1Pd3
DyBPd3,mp-10060,0.0,5.14098084,0.1129342503636401,"{66: 1, 5: 1, 46: 3}","[5, 46, 66]",51463661,Dy1B1Pd3
HoBPd3,mp-3693,0.0,5.09577252,0.1129431820908983,"{67: 1, 5: 1, 46: 3}","[5, 46, 67]",51463671,Ho1B1Pd3
ErBPd3,mp-10061,0.0,5.1037359,0.1147622459999979,"{68: 1, 5: 1, 46: 3}","[5, 46, 68]",51463681,Er1B1Pd3
TmBPd3,mp-10134,0.0,5.07170472,0.1140353108181848,"{69: 1, 5: 1, 46: 3}","[5, 46, 69]",51463691,Tm1B1Pd3
LuBPd3,mp-3105,0.0,5.03894417,0.1149050696296285,"{71: 1, 5: 1, 46: 3}","[5, 46, 71]",51463711,Lu1B1Pd3
BaBPd4,mp-1191182,0.0,4.18298911,0.0,"{56: 1, 5: 1, 46: 4}","[5, 46, 56]",51464561,Ba1B1Pd4
Ce2BPd6,mp-1226779,0.0,6.84200522,0.1122253881481505,"{58: 2, 5: 1, 46: 6}","[5, 46, 58]",51466582,Ce2B1Pd6
Er2BPd6,mp-1225046,0.0,5.3164457,0.0123478297474797,"{68: 2, 5: 1, 46: 6}","[5, 46, 68]",51466682,Er2B1Pd6
La4B14O27,mp-645962,3.924500000000001,3.37075295,0.0,"{57: 4, 5: 14, 8: 27}","[5, 8, 57]",514827574,La4B14O27
Ce4B14O27,mp-1019597,0.1673999999999997,6.56200785,0.01845767348148,"{58: 4, 5: 14, 8: 27}","[5, 8, 58]",514827584,Ce4B14O27
Ba4Zn4B14Pb2O31,mp-1195127,3.6828,1.16875786,0.0,"{56: 4, 30: 4, 5: 14, 82: 2, 8: 31}","[5, 8, 30, 56, 82]",514831304564822,Ba4Zn4B14Pb2O31
La3InB,mp-20590,0.0,7.04290865,0.2027419140000006,"{57: 3, 49: 1, 5: 1}","[5, 49, 57]",51491573,La3In1B1
TlBTe2,mp-631520,0.0,6.18963878,1.169862165625,"{81: 1, 5: 1, 52: 2}","[5, 52, 81]",51522811,Tl1B1Te2
CsB,mp-1060982,0.0,1.05151543,2.145653511451149,"{55: 1, 5: 1}","[5, 55]",51551,Cs1B1
BaTaB,mp-631570,0.0,3.67993112,2.052572823333332,"{56: 1, 73: 1, 5: 1}","[5, 56, 73]",51561731,Ba1Ta1B1
LaBPt3,mp-1018633,0.0,7.94067383,0.1696891155000059,"{57: 1, 5: 1, 78: 3}","[5, 57, 78]",51571783,La1B1Pt3
La5BPb3,mp-1105575,0.0,7.2848976,0.1233672412499959,"{57: 5, 5: 1, 82: 3}","[5, 57, 82]",51575823,La5B1Pb3
CeBPt2,mp-10468,0.0,7.84086318,0.0155803279687489,"{58: 1, 5: 1, 78: 2}","[5, 58, 78]",51581782,Ce1B1Pt2
Th2B15,mp-1217367,0.0,6.9924511,0.0110591572058851,"{90: 2, 5: 15}","[5, 90]",515902,Th2B15
BOs3(CO)10,mp-726927,0.0929999999999999,-0.63762375,0.4483060880295078,"{5: 1, 76: 3, 6: 10, 8: 10}","[5, 6, 8, 76]",51610810763,B1Os3C10O10
BC10XeF17,mp-1215031,2.143,-1.47122735,0.3975253093534485,"{5: 1, 6: 10, 54: 1, 9: 17}","[5, 6, 9, 54]",51610917541,B1C10Xe1F17
NaBC,mp-1238775,0.8095999999999997,4.82816448,0.0377785379430086,"{11: 1, 5: 1, 6: 1}","[5, 6, 11]",5161111,Na1B1C1
La3BCCl3,mp-571135,0.0,7.75712577,0.0111427153125012,"{57: 3, 5: 1, 6: 1, 17: 3}","[5, 6, 17, 57]",5161173573,La3B1C1Cl3
ScBC,mp-1232372,0.0,9.0049571,0.0011429697222204,"{21: 1, 5: 1, 6: 1}","[5, 6, 21]",5161211,Sc1B1C1
VBC,mp-1238776,0.0,9.61063996,0.4402531374999991,"{23: 1, 5: 1, 6: 1}","[5, 6, 23]",5161231,V1B1C1
Y4Fe28BC,mp-1216422,0.0,4.8208607,0.0,"{39: 4, 26: 28, 5: 1, 6: 1}","[5, 6, 26, 39]",51612628394,Y4Fe28B1C1
Nd4Fe28BC,mp-1220656,0.0,4.76690896,0.0028235511948526,"{60: 4, 26: 28, 5: 1, 6: 1}","[5, 6, 26, 60]",51612628604,Nd4Fe28B1C1
Dy4Fe28BC,mp-1226156,0.0,4.76484226,0.0,"{66: 4, 26: 28, 5: 1, 6: 1}","[5, 6, 26, 66]",51612628664,Dy4Fe28B1C1
Fe6BC,mp-1225026,0.0,6.25839406,0.0449009053125006,"{26: 6, 5: 1, 6: 1}","[5, 6, 26]",5161266,Fe6B1C1
Fe6BMo6C,mp-1225209,0.0,7.42667875,0.0699188441071427,"{26: 6, 5: 1, 42: 6, 6: 1}","[5, 6, 26, 42]",5161266426,Fe6B1Mo6C1
YBC,mp-1232379,0.0,7.68228053,0.1762219172222199,"{39: 1, 5: 1, 6: 1}","[5, 6, 39]",5161391,Y1B1C1
BMoWC,mp-1228641,0.0,9.1791222,0.1377567625000004,"{5: 1, 42: 1, 74: 1, 6: 1}","[5, 6, 42, 74]",5161421741,B1Mo1W1C1
CeBC,mp-639306,0.0,8.00081242,0.0273739504444439,"{58: 1, 5: 1, 6: 1}","[5, 6, 58]",5161581,Ce1B1C1
PrBC,mp-570767,0.0,5.21983276,0.002341227722221,"{59: 1, 5: 1, 6: 1}","[5, 6, 59]",5161591,Pr1B1C1
GdBC,mp-1071879,0.0,3.16064042,0.4454025261111116,"{64: 1, 5: 1, 6: 1}","[5, 6, 64]",5161641,Gd1B1C1
HoBC,mp-1025084,0.0,2.99620883,0.4340074091666652,"{67: 1, 5: 1, 6: 1}","[5, 6, 67]",5161671,Ho1B1C1
LuBC,mp-1238866,0.0,7.72874283,0.1470688443333321,"{71: 1, 5: 1, 6: 1}","[5, 6, 71]",5161711,Lu1B1C1
Sr3BCNCl2,mp-616577,1.8788,2.69847449,0.0,"{38: 3, 5: 1, 6: 1, 7: 1, 17: 2}","[5, 6, 7, 17, 38]",516171172383,Sr3B1C1N1Cl2
KBCNF3,mp-1202872,6.719200000000001,-3.45289393,0.1663779404166598,"{19: 1, 5: 1, 6: 1, 7: 1, 9: 3}","[5, 6, 7, 9, 19]",51617193191,K1B1C1N1F3
BRu6(CO)17,mp-728878,0.0230999999999999,-0.10947198,0.287889768755079,"{5: 1, 44: 6, 6: 17, 8: 17}","[5, 6, 8, 44]",51617817446,B1Ru6C17O17
YBCO7,mp-726274,1.7928000000000002,-0.38067455,0.5419758450833347,"{39: 1, 5: 1, 6: 1, 8: 7}","[5, 6, 8, 39]",516187391,Y1B1C1O7
KBCF6,mp-559721,6.828900000000001,-2.44396356,0.200035446250002,"{19: 1, 5: 1, 6: 1, 9: 6}","[5, 6, 9, 19]",516196191,K1B1C1F6
Mn5Fe2BC2,mp-1196534,0.0,7.49330276,0.0708671666739135,"{25: 5, 26: 2, 5: 1, 6: 2}","[5, 6, 25, 26]",5162255262,Mn5Fe2B1C2
La3B(CBr)2,mp-569072,0.0,7.26836323,0.0041939819001939,"{57: 3, 5: 1, 6: 2, 35: 2}","[5, 6, 35, 57]",5162352573,La3B1C2Br2
BC24Br(NF2)6,mp-1215033,1.4867,0.51564679,0.2324169966725877,"{5: 1, 6: 24, 35: 1, 7: 6, 9: 12}","[5, 6, 7, 9, 35]",5162476912351,B1C24Br1N6F12
Co5B16,mp-1194572,0.0,7.51862775,0.0298165347222223,"{27: 5, 5: 16}","[5, 27]",516275,Co5B16
AgBTe4C2(O3F10)2,mp-557494,2.8863000000000003,-2.00904225,0.1609858004656876,"{47: 1, 5: 1, 52: 4, 6: 2, 8: 6, 9: 20}","[5, 6, 8, 9, 47, 52]",516286920471524,Ag1B1Te4C2O6F20
BC3,mp-1239206,0.0,7.47242418,0.2801514922395842,"{5: 1, 6: 3}","[5, 6]",5163,B1C3
Al3BC3,mp-1228599,1.8203,5.95087627,0.0,"{13: 3, 5: 1, 6: 3}","[5, 6, 13]",5163133,Al3B1C3
Cr6BC3,mp-1226023,0.0,8.00812933,0.0332097306250034,"{24: 6, 5: 1, 6: 3}","[5, 6, 24]",5163246,Cr6B1C3
CsBC3NOF9,mp-555532,4.888,-0.29046843,0.4991202826953058,"{55: 1, 5: 1, 6: 3, 7: 1, 8: 1, 9: 9}","[5, 6, 7, 8, 9, 55]",5163718199551,Cs1B1C3N1O1F9
K2B(CN)3,mp-1205404,2.4621,0.69966525,0.3222332572222139,"{19: 2, 5: 1, 6: 3, 7: 3}","[5, 6, 7, 19]",516373192,K2B1C3N3
YLuTh2(BRh)16,mp-1216246,0.0,7.4600022,0.0351678387422822,"{39: 1, 71: 1, 90: 2, 5: 16, 45: 16}","[5, 39, 45, 71, 90]",5163914516711902,Y1Lu1Th2B16Rh16
Ca5BC4Cl3,mp-1227228,0.8796999999999997,4.46961051,0.035846970461538,"{20: 5, 5: 1, 6: 4, 17: 3}","[5, 6, 17, 20]",5164173205,Ca5B1C4Cl3
Sc4BC4,mp-1219411,0.0,4.80850919,0.135848795343918,"{21: 4, 5: 1, 6: 4}","[5, 6, 21]",5164214,Sc4B1C4
KBC4NF9,mp-559648,6.8493,-3.12787125,0.4078434438671801,"{19: 1, 5: 1, 6: 4, 7: 1, 9: 9}","[5, 6, 7, 9, 19]",51647199191,K1B1C4N1F9
CuB(CN)4,mp-13589,3.2264000000000004,-0.20104109,0.3604995350000006,"{29: 1, 5: 1, 6: 4, 7: 4}","[5, 6, 7, 29]",516474291,Cu1B1C4N4
RbB(CN)4,mp-13591,6.3138000000000005,-3.99172563,0.3763617852500029,"{37: 1, 5: 1, 6: 4, 7: 4}","[5, 6, 7, 37]",516474371,Rb1B1C4N4
AgB(CN)4,mp-10413,4.2798,-2.20769146,0.4394345188333339,"{47: 1, 5: 1, 6: 4, 7: 4}","[5, 6, 7, 47]",516474471,Ag1B1C4N4
HgB(CN)4,mp-669526,3.6368,-2.24344333,0.4882310102499989,"{80: 1, 5: 1, 6: 4, 7: 4}","[5, 6, 7, 80]",516474801,Hg1B1C4N4
TlB(CN)4,mp-13592,5.2197,-2.46759966,0.3706235203749992,"{81: 1, 5: 1, 6: 4, 7: 4}","[5, 6, 7, 81]",516474811,Tl1B1C4N4
NaB(CO2)4,mp-559618,3.5338,-0.86929132,0.0701801945424094,"{11: 1, 5: 1, 6: 4, 8: 8}","[5, 6, 8, 11]",516488111,Na1B1C4O8
KB(CO2)4,mp-559030,3.2605,-1.38231299,0.0540689855263147,"{19: 1, 5: 1, 6: 4, 8: 8}","[5, 6, 8, 19]",516488191,K1B1C4O8
Al8BC5,mp-1228130,0.0,6.72896251,0.0461432041220248,"{13: 8, 5: 1, 6: 5}","[5, 6, 13]",5165138,Al8B1C5
Ca24Mg8B16C8O73,mp-1228648,0.1435000000000001,1.21493888,0.0168545919573732,"{20: 24, 12: 8, 5: 16, 6: 8, 8: 73}","[5, 6, 8, 12, 20]",516688731282024,Ca24Mg8B16C8O73
BC6XeF11,mp-1195493,1.5919,-0.36617636,0.4846447502631612,"{5: 1, 6: 6, 54: 1, 9: 11}","[5, 6, 9, 54]",5166911541,B1C6Xe1F11
BC7,mp-1078935,0.0,9.47216087,0.2153765312760409,"{5: 1, 6: 7}","[5, 6]",5167,B1C7
Sr16Cu8BC7O40,mp-686590,0.0,3.06114208,0.033363134722216,"{38: 16, 29: 8, 5: 1, 6: 7, 8: 40}","[5, 6, 8, 29, 38]",51678402983816,Sr16Cu8B1C7O40
Rb2Cd3(B4O7)4,mp-1200744,4.5081,0.09991722,0.0050104481673622,"{37: 2, 48: 3, 5: 16, 8: 28}","[5, 8, 37, 48]",516828372483,Rb2Cd3B16O28
Cs2Cd3(B4O7)4,mp-1201213,4.5525,0.33336225,0.001959123244891,"{55: 2, 48: 3, 5: 16, 8: 28}","[5, 8, 48, 55]",516828483552,Cs2Cd3B16O28
CoBC8(OF2)5,mp-562548,3.2547,-2.29519704,0.3864125452250002,"{27: 1, 5: 1, 6: 8, 8: 5, 9: 10}","[5, 6, 8, 9, 27]",516885910271,Co1B1C8O5F10
BPBr2NCl3,mp-568514,2.9078,-0.33850727,0.0574521792500037,"{5: 1, 15: 1, 35: 2, 7: 1, 17: 3}","[5, 7, 15, 17, 35]",5171151173352,B1P1Br2N1Cl3
BNCl2,mp-23045,2.8370999999999995,-0.46903595,0.2442390787499988,"{5: 1, 7: 1, 17: 2}","[5, 7, 17]",5171172,B1N1Cl2
BNCl4,mp-1247897,0.5600999999999998,-3.2919379,0.4268824830555546,"{5: 1, 7: 1, 17: 4}","[5, 7, 17]",5171174,B1N1Cl4
Zr2BN,mp-1215435,0.0,5.73380572,0.1134546087500005,"{40: 2, 5: 1, 7: 1}","[5, 7, 40]",5171402,Zr2B1N1
SrBNO,mp-554759,3.2545,2.48474972,0.0314487941666659,"{38: 1, 5: 1, 7: 1, 8: 1}","[5, 7, 8, 38]",517181381,Sr1B1N1O1
Si8BNO18,mp-728690,0.0,-1.41878959,0.2674048979613079,"{14: 8, 5: 1, 7: 1, 8: 18}","[5, 7, 8, 14]",5171818148,Si8B1N1O18
BN(OF2)2,mp-555207,3.0022,-2.93167039,0.0,"{5: 1, 7: 1, 8: 2, 9: 4}","[5, 7, 8, 9]",51718294,B1N1O2F4
VBP2NO9,mp-1207936,1.3636,-0.13240636,0.4111003473214278,"{23: 1, 5: 1, 15: 2, 7: 1, 8: 9}","[5, 7, 8, 15, 23]",517189152231,V1B1P2N1O9
FeBP2NO9,mp-1212760,0.0,-0.70878013,0.5782436467857188,"{26: 1, 5: 1, 15: 2, 7: 1, 8: 9}","[5, 7, 8, 15, 26]",517189152261,Fe1B1P2N1O9
K3B17,mp-684709,0.0,2.82417695,0.1182718158083337,"{19: 3, 5: 17}","[5, 19]",517193,K3B17
BNF4,mp-1182455,2.7231,-4.00689525,0.7460453397499966,"{5: 1, 7: 1, 9: 4}","[5, 7, 9]",517194,B1N1F4
KNa2BN2,mp-1019888,1.8181,1.39552809,0.0,"{19: 1, 11: 2, 5: 1, 7: 2}","[5, 7, 11, 19]",5172112191,K1Na2B1N2
Mg2BN2Cl,mp-581639,3.6701,1.90908453,0.0258332984375009,"{12: 2, 5: 1, 7: 2, 17: 1}","[5, 7, 12, 17]",5172122171,Mg2B1N2Cl1
Mg2BBrN2,mp-1102794,3.3419,1.62577456,0.030306329479167,"{12: 2, 5: 1, 35: 1, 7: 2}","[5, 7, 12, 35]",5172122351,Mg2B1Br1N2
BP2N2Cl7,mp-569608,2.9211,-0.35824385,0.0016078472916678,"{5: 1, 15: 2, 7: 2, 17: 7}","[5, 7, 15, 17]",5172152177,B1P2N2Cl7
Ba2BN2Cl,mp-568923,2.7508,1.69113131,0.0,"{56: 2, 5: 1, 7: 2, 17: 1}","[5, 7, 17, 56]",5172171562,Ba2B1N2Cl1
K3BN2,mp-1029756,1.5852000000000002,1.08516139,0.0359474360277776,"{19: 3, 5: 1, 7: 2}","[5, 7, 19]",5172193,K3B1N2
Ca3BI3N2,mp-1195197,3.946,1.44950382,0.0,"{20: 3, 5: 1, 53: 3, 7: 2}","[5, 7, 20, 53]",5172203533,Ca3B1I3N2
ScBN2,mp-1245522,1.873,5.00895121,0.2564796474999991,"{21: 1, 5: 1, 7: 2}","[5, 7, 21]",5172211,Sc1B1N2
CrBN2,mp-1246479,0.6791999999999998,5.22241172,0.4054275512499998,"{24: 1, 5: 1, 7: 2}","[5, 7, 24]",5172241,Cr1B1N2
Rb3BN2,mp-1247386,1.2192000000000005,2.71199652,0.1093596936111112,"{37: 3, 5: 1, 7: 2}","[5, 7, 37]",5172373,Rb3B1N2
YBN2,mp-1215903,0.0,5.1650988,1.2104261887499987,"{39: 1, 5: 1, 7: 2}","[5, 7, 39]",5172391,Y1B1N2
Eu2BIN2,mp-1192731,0.1894999999999997,4.47893743,0.0,"{63: 2, 5: 1, 53: 1, 7: 2}","[5, 7, 53, 63]",5172531632,Eu2B1I1N2
Cs3BN2,mp-1247247,0.6065999999999998,2.83017509,0.1596152788362097,"{55: 3, 5: 1, 7: 2}","[5, 7, 55]",5172553,Cs3B1N2
LaBN2,mp-29597,2.1728,6.9589824,0.0,"{57: 1, 5: 1, 7: 2}","[5, 7, 57]",5172571,La1B1N2
CeBN2,mp-29595,0.0,8.69433899,0.072586272083333,"{58: 1, 5: 1, 7: 2}","[5, 7, 58]",5172581,Ce1B1N2
NdBN2,mp-1192144,2.168,3.83755335,0.0,"{60: 1, 5: 1, 7: 2}","[5, 7, 60]",5172601,Nd1B1N2
Ba4Pr7Si12BN27,mp-695596,0.0,4.73885567,0.008368574832513,"{56: 4, 59: 7, 14: 12, 5: 1, 7: 27}","[5, 7, 14, 56, 59]",517271412564597,Ba4Pr7Si12B1N27
Ba4Nd7Si12BN27,mp-695553,0.0,4.70237529,0.0073662811682879,"{56: 4, 60: 7, 14: 12, 5: 1, 7: 27}","[5, 7, 14, 56, 60]",517271412564607,Ba4Nd7Si12B1N27
Ba4Sm7Si12BN27,mp-693655,0.0,4.67669912,0.0071716757342752,"{56: 4, 62: 7, 14: 12, 5: 1, 7: 27}","[5, 7, 14, 56, 62]",517271412564627,Ba4Sm7Si12B1N27
BS2N2OF7,mp-556762,4.9587,-2.03714304,0.2352624250961561,"{5: 1, 16: 2, 7: 2, 8: 1, 9: 7}","[5, 7, 8, 9, 16]",51728197162,B1S2N2O1F7
La3BN2O3,mp-1019895,1.2114000000000011,7.27938992,0.0345284932870413,"{57: 3, 5: 1, 7: 2, 8: 3}","[5, 7, 8, 57]",517283573,La3B1N2O3
Hf9BW4,mp-1212438,0.0,5.19599798,0.0203746342857087,"{72: 9, 5: 1, 74: 4}","[5, 72, 74]",51729744,Hf9B1W4
Hf9BOs4,mp-1193665,0.0,5.8235527,0.1037043260714369,"{72: 9, 5: 1, 76: 4}","[5, 72, 76]",51729764,Hf9B1Os4
Mg3BN3,mp-28955,1.3798,3.37584973,0.0307530598214285,"{12: 3, 5: 1, 7: 3}","[5, 7, 12]",5173123,Mg3B1N3
BN3Cl2,mp-27486,3.0347,-1.53716228,0.1758685840277767,"{5: 1, 7: 3, 17: 2}","[5, 7, 17]",5173172,B1N3Cl2
Ta2B,mp-1032,0.0,6.41356212,0.0336503471111129,"{73: 2, 5: 1}","[5, 73]",51732,Ta2B1
Sr3BN3,mp-1029665,0.4152,2.9556099,0.0874765172619049,"{38: 3, 5: 1, 7: 3}","[5, 7, 38]",5173383,Sr3B1N3
Zr4BN3,mp-1246929,0.0,6.53901389,0.0067532956249998,"{40: 4, 5: 1, 7: 3}","[5, 7, 40]",5173404,Zr4B1N3
Ba3BN3,mp-1246468,0.1975000000000002,2.32505232,0.138595041666667,"{56: 3, 5: 1, 7: 3}","[5, 7, 56]",5173563,Ba3B1N3
Ta2BN3,mp-972309,0.0,5.40890469,1.1313573713888945,"{73: 2, 5: 1, 7: 3}","[5, 7, 73]",5173732,Ta2B1N3
FeBN3O3F4,mp-631397,1.2843,-1.33940531,0.4378333569213017,"{26: 1, 5: 1, 7: 3, 8: 3, 9: 4}","[5, 7, 8, 9, 26]",51738394261,Fe1B1N3O3F4
La6B(NO2)3,mp-560824,1.0926,7.26402808,0.00452876707031,"{57: 6, 5: 1, 7: 3, 8: 6}","[5, 7, 8, 57]",517386576,La6B1N3O6
YAl2BN4,mp-1215931,0.8799999999999999,5.92483956,0.5480093431250008,"{39: 1, 13: 2, 5: 1, 7: 4}","[5, 7, 13, 39]",5174132391,Y1Al2B1N4
ReBW,mp-1219534,0.0,8.22513851,0.0346212569444404,"{75: 1, 5: 1, 74: 1}","[5, 74, 75]",51741751,Re1B1W1
BS4N4F3,mp-16813,1.8149,-0.32622795,0.1915615664583327,"{5: 1, 16: 4, 7: 4, 9: 3}","[5, 7, 9, 16]",517493164,B1S4N4F3
BS4(NF)4,mp-1201734,0.4206999999999999,0.37801718,0.1939505561538439,"{5: 1, 16: 4, 7: 4, 9: 4}","[5, 7, 9, 16]",517494164,B1S4N4F4
ReB,mp-28893,0.0,4.84720051,0.3508577327500006,"{75: 1, 5: 1}","[5, 75]",51751,Re1B1
BPt,mp-1096829,0.0,7.46293432,0.1937046077083337,"{5: 1, 78: 1}","[5, 78]",51781,B1Pt1
BPt3,mp-861943,0.0,5.87431163,0.1129917375000033,"{5: 1, 78: 3}","[5, 78]",51783,B1Pt3
B17F27,mp-30935,2.5751,-2.30382041,0.1612076901420458,"{5: 17, 9: 27}","[5, 9]",517927,B17F27
BW4N9,mp-1246918,0.9237000000000002,4.28286775,0.3074869514285687,"{5: 1, 74: 4, 7: 9}","[5, 7, 74]",5179744,B1W4N9
Mg2B(PO5)2,mp-1193704,0.0444999999999999,0.95672697,0.1688282811488184,"{12: 2, 5: 1, 15: 2, 8: 10}","[5, 8, 12, 15]",51810122152,Mg2B1P2O10
Ce3Si2BO10,mp-558019,0.0,7.28154267,0.0092120660155945,"{58: 3, 14: 2, 5: 1, 8: 10}","[5, 8, 14, 58]",51810142583,Ce3Si2B1O10
Eu3Si2BO10,mp-1196416,0.0,2.10825995,0.0734839336197943,"{63: 3, 14: 2, 5: 1, 8: 10}","[5, 8, 14, 63]",51810142633,Eu3Si2B1O10
Gd3Si2BO10,mp-1198316,2.807,2.35966489,0.0123474869010387,"{64: 3, 14: 2, 5: 1, 8: 10}","[5, 8, 14, 64]",51810142643,Gd3Si2B1O10
Mn3BPO10,mp-1197087,0.0,1.51018073,0.2785452743333207,"{25: 3, 5: 1, 15: 1, 8: 10}","[5, 8, 15, 25]",51810151253,Mn3B1P1O10
ScB(PO5)2,mp-1209202,0.2825999999999999,-0.95921164,0.3163735930952409,"{21: 1, 5: 1, 15: 2, 8: 10}","[5, 8, 15, 21]",51810152211,Sc1B1P2O10
Co2BiB(PO5)2,mp-1201553,2.0165,3.38466553,0.0612860559375034,"{27: 2, 83: 1, 5: 1, 15: 2, 8: 10}","[5, 8, 15, 27, 83]",51810152272831,Co2Bi1B1P2O10
Ni2BiB(PO5)2,mp-1196616,3.5479,3.63866021,0.0080058354166654,"{28: 2, 83: 1, 5: 1, 15: 2, 8: 10}","[5, 8, 15, 28, 83]",51810152282831,Ni2Bi1B1P2O10
Sr4Mn3BO10,mp-1208742,0.0,3.27255504,0.0065083695215717,"{38: 4, 25: 3, 5: 1, 8: 10}","[5, 8, 25, 38]",51810253384,Sr4Mn3B1O10
Bi5BO10,mp-769030,0.0189000000000003,3.42773721,0.0995412856250022,"{83: 5, 5: 1, 8: 10}","[5, 8, 83]",51810835,Bi5B1O10
NaMgBP2O11,mp-1213265,0.6935,-0.27506712,0.4697035735296468,"{11: 1, 12: 1, 5: 1, 15: 2, 8: 11}","[5, 8, 11, 12, 15]",51811111121152,Na1Mg1B1P2O11
NaFeBP2O11,mp-1211025,0.0,0.18635251,0.3545226686614686,"{11: 1, 26: 1, 5: 1, 15: 2, 8: 11}","[5, 8, 11, 15, 26]",51811111152261,Na1Fe1B1P2O11
NaNiBP2O11,mp-1211194,0.0421,0.38835872,0.3636241824340267,"{11: 1, 28: 1, 5: 1, 15: 2, 8: 11}","[5, 8, 11, 15, 28]",51811111152281,Na1Ni1B1P2O11
NaZnBP2O11,mp-1211826,0.7682,-0.3115861,0.470985560312501,"{11: 1, 30: 1, 5: 1, 15: 2, 8: 11}","[5, 8, 11, 15, 30]",51811111152301,Na1Zn1B1P2O11