formula,material_id,band_gap,efermi,energy_above_hull,comp_atoms,sorted_keys_comp_atoms,comp_number,new_formula
AlB2H18C4N,mp-1194655,5.5447,-2.95889082,0.1680063884383313,"{13: 1, 5: 2, 1: 18, 6: 4, 7: 1}","[1, 5, 6, 7, 13]",118526471131,Al1B2H18C4N1
Mg3B2P2(H9O10)2,mp-707392,5.0287,0.25508086,0.0087294036666651,"{12: 3, 5: 2, 15: 2, 1: 18, 8: 20}","[1, 5, 8, 12, 15]",11852820123152,Mg3B2P2H18O20
YB3H18C2S,mp-1196089,3.5362,1.71854663,0.1428721298196658,"{39: 1, 5: 3, 1: 18, 6: 2, 16: 1}","[1, 5, 6, 16, 39]",1185362161391,Y1B3H18C2S1
DyB3H18C2S,mp-2647168,3.717,-1.76034495,0.1146539429444448,"{66: 1, 5: 3, 1: 18, 6: 2, 16: 1}","[1, 5, 6, 16, 66]",1185362161661,Dy1B3H18C2S1
HoB3H18C2S,mp-2647158,3.7569,-1.79480418,0.1155278655666682,"{67: 1, 5: 3, 1: 18, 6: 2, 16: 1}","[1, 5, 6, 16, 67]",1185362161671,Ho1B3H18C2S1
ErB3H18C2S,mp-2647152,3.7953,-1.78282059,0.1161693902444467,"{68: 1, 5: 3, 1: 18, 6: 2, 16: 1}","[1, 5, 6, 16, 68]",1185362161681,Er1B3H18C2S1
TmB3H18C2S,mp-2646922,3.8426,-1.71888171,0.1178751067722236,"{69: 1, 5: 3, 1: 18, 6: 2, 16: 1}","[1, 5, 6, 16, 69]",1185362161691,Tm1B3H18C2S1
LuB3H18C2S,mp-2647154,3.9249,-1.70197436,0.1436260020863331,"{71: 1, 5: 3, 1: 18, 6: 2, 16: 1}","[1, 5, 6, 16, 71]",1185362161711,Lu1B3H18C2S1
YB3(H9N)2,mp-1194951,5.3108,-3.29836603,0.0570602170833334,"{39: 1, 5: 3, 1: 18, 7: 2}","[1, 5, 7, 39]",1185372391,Y1B3H18N2
MgB4(H9O8)2,mp-540731,5.2211,-1.30116401,0.0085290408974341,"{12: 1, 5: 4, 1: 18, 8: 16}","[1, 5, 8, 12]",11854816121,Mg1B4H18O16
RbB6(H9N2)2,mp-1205056,4.3124,1.98509155,0.1399539692241358,"{37: 1, 5: 6, 1: 18, 7: 4}","[1, 5, 7, 37]",1185674371,Rb1B6H18N4
NaB7(H9O10)2,mp-1199996,4.2336,-1.58345492,0.0788169967390839,"{11: 1, 5: 7, 1: 18, 8: 20}","[1, 5, 8, 11]",11857820111,Na1B7H18O20
B8P2H18IrC8Cl,mp-1198815,0.2966,0.0782847,0.468491182320343,"{5: 8, 15: 2, 1: 18, 77: 1, 6: 8, 17: 1}","[1, 5, 6, 15, 17, 77]",1185868152171771,B8P2H18Ir1C8Cl1
CoB10H19C11,mp-1195847,1.7185,1.15596333,0.1423024124390259,"{27: 1, 5: 10, 1: 19, 6: 11}","[1, 5, 6, 27]",119510611271,Co1B10H19C11
KMg2B12H19O30,mp-707457,5.3784,-0.24303334,0.0060992707538902,"{19: 1, 12: 2, 5: 12, 1: 19, 8: 30}","[1, 5, 8, 12, 19]",119512830122191,K1Mg2B12H19O30
B13H19,mp-27200,2.7669,-1.30502204,0.0266131349751423,"{5: 13, 1: 19}","[1, 5]",119513,B13H19
K2MgB12(H2O3)10,mp-541566,5.5415,-0.81646571,0.0074282076922873,"{19: 2, 12: 1, 5: 12, 1: 20, 8: 30}","[1, 5, 8, 12, 19]",120512830121192,K2Mg1B12H20O30
Rb2CoB12(H2O3)10,mp-774813,3.3287,-0.22706469,0.0217950384487082,"{37: 2, 27: 1, 5: 12, 1: 20, 8: 30}","[1, 5, 8, 27, 37]",120512830271372,Rb2Co1B12H20O30
B2H20C6N3Cl5,mp-1204652,0.4334,-1.25955246,0.2082847445138886,"{5: 2, 1: 20, 6: 6, 7: 3, 17: 5}","[1, 5, 6, 7, 17]",120526673175,B2H20C6N3Cl5
MgB3H20N3,mp-1200895,5.9079,-3.48823997,0.0399331752160474,"{12: 1, 5: 3, 1: 20, 7: 3}","[1, 5, 7, 12]",1205373121,Mg1B3H20N3
MgB4(H10N)2,mp-1199691,6.0629,-3.33094944,0.0842959076234581,"{12: 1, 5: 4, 1: 20, 7: 2}","[1, 5, 7, 12]",1205472121,Mg1B4H20N2
CaB4(H10N)2,mp-1201177,5.5566,-2.81415528,0.0766664692592611,"{20: 1, 5: 4, 1: 20, 7: 2}","[1, 5, 7, 20]",1205472201,Ca1B4H20N2
Na2B4H20O17,mp-707151,5.0996,-1.57417201,0.0183284193120023,"{11: 2, 5: 4, 1: 20, 8: 17}","[1, 5, 8, 11]",12054817112,Na2B4H20O17
NaZn2(BH4)5,mp-1201672,6.1595,-4.61311763,0.0,"{11: 1, 30: 2, 5: 5, 1: 20}","[1, 5, 11, 30]",12055111302,Na1Zn2B5H20
AlZnB5H20C5(NO2)5,mp-1195233,4.5107,-0.42425283,0.0383397264760647,"{13: 1, 30: 1, 5: 5, 1: 20, 6: 5, 7: 5, 8: 10}","[1, 5, 6, 7, 8, 13, 30]",120556575810131301,Al1Zn1B5H20C5N5O10
LiB6H21N5,mp-1200061,4.1975,-2.80834527,0.1165060658712109,"{3: 1, 5: 6, 1: 21, 7: 5}","[1, 3, 5, 7]",121315675,Li1B6H21N5
CoB10H21(C6Cl)2,mp-1196618,1.7155,0.41272489,0.1660429456763283,"{27: 1, 5: 10, 1: 21, 6: 12, 17: 2}","[1, 5, 6, 17, 27]",121510612172271,Co1B10H21C12Cl2
CoB10(H7C4)3,mp-1204917,1.7818999999999998,0.66609894,0.1321241029829547,"{27: 1, 5: 10, 1: 21, 6: 12}","[1, 5, 6, 27]",121510612271,Co1B10H21C12
B12H21C4S2I,mp-849805,4.1333,-0.56023373,0.0367821809548649,"{5: 12, 1: 21, 6: 4, 16: 2, 53: 1}","[1, 5, 6, 16, 53]",12151264162531,B12H21C4S2I1
AlZnB5H21C6(NO2)5,mp-1195904,4.6496,4.44748445,0.0407499234949009,"{13: 1, 30: 1, 5: 5, 1: 21, 6: 6, 7: 5, 8: 10}","[1, 5, 6, 7, 8, 13, 30]",121556675810131301,Al1Zn1B5H21C6N5O10
NaCaB5(H7O4)3,mp-1210880,0.733,0.84233282,0.2452515075312495,"{11: 1, 20: 1, 5: 5, 1: 21, 8: 12}","[1, 5, 8, 11, 20]",12155812111201,Na1Ca1B5H21O12
B6H21C5N2O,mp-560159,4.4939,-1.70449095,0.2221791509985138,"{5: 6, 1: 21, 6: 5, 7: 2, 8: 1}","[1, 5, 6, 7, 8]",12156657281,B6H21C5N2O1
Mg2B4H22C2S,mp-1202789,5.0333000000000006,-2.02482296,0.1434172110575273,"{12: 2, 5: 4, 1: 22, 6: 2, 16: 1}","[1, 5, 6, 12, 16]",1225462122161,Mg2B4H22C2S1
CaMgB6(HO)22,mp-720718,4.9561,-0.6567373,0.0145791218269319,"{20: 1, 12: 1, 5: 6, 1: 22, 8: 22}","[1, 5, 8, 12, 20]",12256822121201,Ca1Mg1B6H22O22
LiBH2C4O9,mp-707929,3.351,-0.94737255,0.0746393044004536,"{3: 1, 5: 1, 1: 2, 6: 4, 8: 9}","[1, 3, 5, 6, 8]",1231516489,Li1B1H2C4O9
LiCu2BP2(HO5)2,mp-1199484,0.6144000000000001,1.63776927,0.0068200687698425,"{3: 1, 29: 2, 5: 1, 15: 2, 1: 2, 8: 10}","[1, 3, 5, 8, 15, 29]",123151810152292,Li1Cu2B1P2H2O10
LiCoBP2H2O11,mp-1238728,0.0008999999999999,-0.16365319,0.4080114129166681,"{3: 1, 27: 1, 5: 1, 15: 2, 1: 2, 8: 11}","[1, 3, 5, 8, 15, 27]",123151811152271,Li1Co1B1P2H2O11
LiBH2OF4,mp-730585,7.129,-2.98505365,0.0117142686574061,"{3: 1, 5: 1, 1: 2, 8: 1, 9: 4}","[1, 3, 5, 8, 9]",1231518194,Li1B1H2O1F4
LiB(HO2)2,mp-698205,3.2461,-0.34039631,0.0070550180625019,"{3: 1, 5: 1, 1: 2, 8: 4}","[1, 3, 5, 8]",12315184,Li1B1H2O4
Sr8Li2B22H2O43,mp-1199637,4.6493,1.88615258,0.0028514296536839,"{38: 8, 3: 2, 5: 22, 1: 2, 8: 43}","[1, 3, 5, 8, 38]",1232522843388,Sr8Li2B22H2O43
Li3V2BP4H2O17,mp-1200046,0.0127999999999994,4.02276458,0.0065741235571694,"{3: 3, 23: 2, 5: 1, 15: 4, 1: 2, 8: 17}","[1, 3, 5, 8, 15, 23]",123351817154232,Li3V2B1P4H2O17
Mg2B12H24O35,mp-1201885,0.2639,-1.58261999,0.1128233027191747,"{12: 2, 5: 12, 1: 24, 8: 35}","[1, 5, 8, 12]",124512835122,Mg2B12H24O35
CuBP4H24C8(SF)4,mp-1195164,3.1191,3.20106299,0.0,"{29: 1, 5: 1, 15: 4, 1: 24, 6: 8, 16: 4, 9: 4}","[1, 5, 6, 9, 15, 16, 29]",124516894154164291,Cu1B1P4H24C8S4F4
YB3(H6N)4,mp-1195458,5.2278,2.5025105,0.036580513007812,"{39: 1, 5: 3, 1: 24, 7: 4}","[1, 5, 7, 39]",1245374391,Y1B3H24N4
K3Gd(BH4)6,mp-1194976,2.7268,-0.58312658,0.0057234566176553,"{19: 3, 64: 1, 5: 6, 1: 24}","[1, 5, 19, 64]",12456193641,K3Gd1B6H24
B8PH24RhC7,mp-1196243,1.6749999999999998,1.09072709,0.1082227214075199,"{5: 8, 15: 1, 1: 24, 45: 1, 6: 7}","[1, 5, 6, 15, 45]",1245867151451,B8P1H24Rh1C7
B8PH24PtC7,mp-1198024,1.3137,-0.28462287,0.1070815963795732,"{5: 8, 15: 1, 1: 24, 78: 1, 6: 7}","[1, 5, 6, 15, 78]",1245867151781,B8P1H24Pt1C7
Ba2Na2B10H2O19,mp-697960,4.6933,1.45880368,0.0021197219501996,"{56: 2, 11: 2, 5: 10, 1: 2, 8: 19}","[1, 5, 8, 11, 56]",12510819112562,Ba2Na2B10H2O19
B11H2CCl11,mp-1205245,3.5631,-0.79638028,0.000632736664647,"{5: 11, 1: 2, 6: 1, 17: 11}","[1, 5, 6, 17]",12511611711,B11H2C1Cl11
Cs2B12H2OF12,mp-1198494,2.7322,2.02279731,0.1673329062515991,"{55: 2, 5: 12, 1: 2, 8: 1, 9: 12}","[1, 5, 8, 9, 55]",1251281912552,Cs2B12H2O1F12
B(HC)2,mp-1214830,0.1823000000000001,-3.31247389,0.8278984959583324,"{5: 1, 1: 2, 6: 2}","[1, 5, 6]",125162,B1H2C2
BH2N,mp-29475,5.2948,-2.62264785,0.0122485683333328,"{5: 1, 1: 2, 7: 1}","[1, 5, 7]",125171,B1H2N1
BH2NCl2,mp-720847,5.8178,-0.48825376,0.006040841111111,"{5: 1, 1: 2, 7: 1, 17: 2}","[1, 5, 7, 17]",125171172,B1H2N1Cl2
BH2S3N3F4,mp-1214776,2.1892,-0.64167764,0.1246100458653831,"{5: 1, 1: 2, 16: 3, 7: 3, 9: 4}","[1, 5, 7, 9, 16]",12517394163,B1H2S3N3F4
CaFeBP2(HO5)2,mp-1199046,1.592,1.57635829,0.0008899122762358,"{20: 1, 26: 1, 5: 1, 15: 2, 1: 2, 8: 10}","[1, 5, 8, 15, 20, 26]",1251810152201261,Ca1Fe1B1P2H2O10
SrFeBP2(HO5)2,mp-1202358,2.4456,1.46274352,0.0076654161438094,"{38: 1, 26: 1, 5: 1, 15: 2, 1: 2, 8: 10}","[1, 5, 8, 15, 26, 38]",1251810152261381,Sr1Fe1B1P2H2O10
Co2BP4H2Pb4ClO18,mp-1199458,3.0187,2.92687104,0.0369818096875134,"{27: 2, 5: 1, 15: 4, 1: 2, 82: 4, 17: 1, 8: 18}","[1, 5, 8, 15, 17, 27, 82]",1251818154171272824,Co2B1P4H2Pb4Cl1O18
MnBP(HO3)2,mp-1200751,4.1606000000000005,5.79760076,0.0060472515151559,"{25: 1, 5: 1, 15: 1, 1: 2, 8: 6}","[1, 5, 8, 15, 25]",125186151251,Mn1B1P1H2O6
FeBP(HO3)2,mp-1213675,4.2042,1.82409208,0.0141743804545422,"{26: 1, 5: 1, 15: 1, 1: 2, 8: 6}","[1, 5, 8, 15, 26]",125186151261,Fe1B1P1H2O6
ZnBP(HO3)2,mp-1198157,4.7538,0.23897814,0.0037159903030277,"{30: 1, 5: 1, 15: 1, 1: 2, 8: 6}","[1, 5, 8, 15, 30]",125186151301,Zn1B1P1H2O6
NaSi2BH2O7,mp-862999,3.9917,0.64089417,0.1035101749358995,"{11: 1, 14: 2, 5: 1, 1: 2, 8: 7}","[1, 5, 8, 11, 14]",125187111142,Na1Si2B1H2O7
NaCoBP2H2O9,mp-562382,3.0603,1.42239577,0.0158174011249965,"{11: 1, 27: 1, 5: 1, 15: 2, 1: 2, 8: 9}","[1, 5, 8, 11, 15, 27]",125189111152271,Na1Co1B1P2H2O9
Ca(BH)2,mp-1078932,0.0293999999999998,3.07643902,0.2069408113333324,"{20: 1, 5: 2, 1: 2}","[1, 5, 20]",1252201,Ca1B2H2
K2AlFeB2P4(HO9)2,mp-1223878,2.8099,1.11038036,0.0058662493672843,"{19: 2, 13: 1, 26: 1, 5: 2, 15: 4, 1: 2, 8: 18}","[1, 5, 8, 13, 15, 19, 26]",1252818131154192261,K2Al1Fe1B2P4H2O18
BaB2H2O5,mp-757727,4.7844,1.80532968,0.0072280293333415,"{56: 1, 5: 2, 1: 2, 8: 5}","[1, 5, 8, 56]",125285561,Ba1B2H2O5
CaB2H2O7,mp-1214470,0.8222,0.19027787,0.0624953691666654,"{20: 1, 5: 2, 1: 2, 8: 7}","[1, 5, 8, 20]",125287201,Ca1B2H2O7
CaB2(HO4)2,mp-1214282,0.0,0.26921602,0.1790444855769237,"{20: 1, 5: 2, 1: 2, 8: 8}","[1, 5, 8, 20]",125288201,Ca1B2H2O8
NaFe9Si6B3H2O31,mp-1121875,1.4005,2.62723577,0.0085772640487675,"{11: 1, 26: 9, 14: 6, 5: 3, 1: 2, 8: 31}","[1, 5, 8, 11, 14, 26]",1253831111146269,Na1Fe9Si6B3H2O31
KB3(HO3)2,mp-605642,4.8267,-0.89121719,0.02371668705638,"{19: 1, 5: 3, 1: 2, 8: 6}","[1, 5, 8, 19]",125386191,K1B3H2O6
Rb2B10(H5N)5,mp-1197795,3.8973,-1.7583738,0.1898305601488052,"{37: 2, 5: 10, 1: 25, 7: 5}","[1, 5, 7, 37]",12551075372,Rb2B10H25N5
Na3B5(HO5)2,mp-722369,4.6581,1.05780641,0.0054786046041765,"{11: 3, 5: 5, 1: 2, 8: 10}","[1, 5, 8, 11]",1255810113,Na3B5H2O10
SrCaB5H2ClO10,mp-24705,4.9698,1.26823945,0.010287405125001,"{38: 1, 20: 1, 5: 5, 1: 2, 17: 1, 8: 10}","[1, 5, 8, 17, 20, 38]",1255810171201381,Sr1Ca1B5H2Cl1O10
Ca2B5H2ClO10,mp-24595,5.0182,1.2909527,0.0040103132499886,"{20: 2, 5: 5, 1: 2, 17: 1, 8: 10}","[1, 5, 8, 17, 20]",1255810171202,Ca2B5H2Cl1O10
Sr2B5H2O11,mp-699248,0.6891000000000002,0.62117547,0.047722331500001,"{38: 2, 5: 5, 1: 2, 8: 11}","[1, 5, 8, 38]",1255811382,Sr2B5H2O11
B5H2Pb2O11,mp-707942,0.1591000000000002,2.13786667,0.0528953636986111,"{5: 5, 1: 2, 82: 2, 8: 11}","[1, 5, 8, 82]",1255811822,B5H2Pb2O11
K3B5PH2O13,mp-1224640,0.0901,-0.47751726,0.014786480263135,"{19: 3, 5: 5, 15: 1, 1: 2, 8: 13}","[1, 5, 8, 15, 19]",1255813151193,K3B5P1H2O13
Na2Ca3B5H2S2ClO18,mp-707645,5.481,1.10791672,0.0016932169805068,"{11: 2, 20: 3, 5: 5, 1: 2, 16: 2, 17: 1, 8: 18}","[1, 5, 8, 11, 16, 17, 20]",1255818112162171203,Na2Ca3B5H2S2Cl1O18
KB5H2O9,mp-1197999,5.7167,4.45530837,0.0036026448529495,"{19: 1, 5: 5, 1: 2, 8: 9}","[1, 5, 8, 19]",125589191,K1B5H2O9
B9H25C4NCl,mp-1199287,3.6529,1.98061462,0.1736079059519228,"{5: 9, 1: 25, 6: 4, 7: 1, 17: 1}","[1, 5, 6, 7, 17]",125596471171,B9H25C4N1Cl1
K2B6H2O11,mp-558951,5.3623,-0.77450055,0.0010260814696305,"{19: 2, 5: 6, 1: 2, 8: 11}","[1, 5, 8, 19]",1256811192,K2B6H2O11
Cu3B6H2O13,mp-1203923,0.3612000000000002,3.38256642,0.0424033727314867,"{29: 3, 5: 6, 1: 2, 8: 13}","[1, 5, 8, 29]",1256813293,Cu3B6H2O13
Ba3B6H2O13,mp-1199009,5.0891,6.27078581,0.0,"{56: 3, 5: 6, 1: 2, 8: 13}","[1, 5, 8, 56]",1256813563,Ba3B6H2O13
K4Ge2B8H2O19,mp-1203238,4.1044,-0.02003536,0.0010576660599719,"{19: 4, 32: 2, 5: 8, 1: 2, 8: 19}","[1, 5, 8, 19, 32]",1258819194322,K4Ge2B8H2O19
Li2B12H26O7,mp-699473,5.2083,-2.28826116,0.1514861831826275,"{3: 2, 5: 12, 1: 26, 8: 7}","[1, 3, 5, 8]",1263251287,Li2B12H26O7
AgB10H26C6N,mp-738633,3.8864,-0.81929027,0.1435785271843421,"{47: 1, 5: 10, 1: 26, 6: 6, 7: 1}","[1, 5, 6, 7, 47]",1265106671471,Ag1B10H26C6N1
MnB10(H13O4)2,mp-1196077,4.1228,-1.40130687,0.1886471924012349,"{25: 1, 5: 10, 1: 26, 8: 8}","[1, 5, 8, 25]",12651088251,Mn1B10H26O8
FeB10(H13O4)2,mp-1203859,4.3224,-1.28685285,0.1950929528626526,"{26: 1, 5: 10, 1: 26, 8: 8}","[1, 5, 8, 26]",12651088261,Fe1B10H26O8
CoB10(H13O4)2,mp-1198299,2.7696,-1.22081012,0.209043564515432,"{27: 1, 5: 10, 1: 26, 8: 8}","[1, 5, 8, 27]",12651088271,Co1B10H26O8
B20H26O,mp-28092,1.0827,-1.20292376,0.204093668238773,"{5: 20, 1: 26, 8: 1}","[1, 5, 8]",12652081,B20H26O1
B13H27C6S3F4,mp-1201750,5.3274,2.90525271,0.0356281825069855,"{5: 13, 1: 27, 6: 6, 16: 3, 9: 4}","[1, 5, 6, 9, 16]",1275136694163,B13H27C6S3F4
KSi2BP(H3C)9,mp-1196639,2.7658,0.01868994,0.0716715717977072,"{19: 1, 14: 2, 5: 1, 15: 1, 1: 27, 6: 9}","[1, 5, 6, 14, 15, 19]",1275169142151191,K1Si2B1P1H27C9
RbSi2BP(H3C)9,mp-1205289,2.6448,0.09989702,0.0703558834309827,"{37: 1, 14: 2, 5: 1, 15: 1, 1: 27, 6: 9}","[1, 5, 6, 14, 15, 37]",1275169142151371,Rb1Si2B1P1H27C9
YB3H27N5,mp-1194737,4.8121,1.95441503,0.054231955104159,"{39: 1, 5: 3, 1: 27, 7: 5}","[1, 5, 7, 39]",1275375391,Y1B3H27N5
CoB12H28(NO15)2,mp-735475,0.6787999999999998,1.08011831,0.0286195663926971,"{27: 1, 5: 12, 1: 28, 7: 2, 8: 30}","[1, 5, 7, 8, 27]",12851272830271,Co1B12H28N2O30
Si2BPH28C9,mp-1199409,5.16,-2.94154169,0.0594326918042353,"{14: 2, 5: 1, 15: 1, 1: 28, 6: 9}","[1, 5, 6, 14, 15]",1285169142151,Si2B1P1H28C9
MgB6H28(C2O)2,mp-1200370,6.0823,-3.28324152,0.2280899525089692,"{12: 1, 5: 6, 1: 28, 6: 4, 8: 2}","[1, 5, 6, 8, 12]",128566482121,Mg1B6H28C4O2
K2SrB8(HO)28,mp-1198667,5.1198,-1.0948352,0.0162715749160469,"{19: 2, 38: 1, 5: 8, 1: 28, 8: 28}","[1, 5, 8, 19, 38]",12858828192381,K2Sr1B8H28O28
Si2BPH29C9N,mp-1197645,3.5158,-1.02043098,0.1020257043364667,"{14: 2, 5: 1, 15: 1, 1: 29, 6: 9, 7: 1}","[1, 5, 6, 7, 14, 15]",129516971142151,Si2B1P1H29C9N1
Si2BAsH29C9N,mp-1203624,3.354,-1.1387297,0.1088782997392918,"{14: 2, 5: 1, 33: 1, 1: 29, 6: 9, 7: 1}","[1, 5, 6, 7, 14, 33]",129516971142331,Si2B1As1H29C9N1
B20H30C2S,mp-1196291,2.5779,-1.62482489,0.1134825596035042,"{5: 20, 1: 30, 6: 2, 16: 1}","[1, 5, 6, 16]",13052062161,B20H30C2S1
B20H30C3N2,mp-1201695,3.0457,1.64621231,0.167565863995339,"{5: 20, 1: 30, 6: 3, 7: 2}","[1, 5, 6, 7]",1305206372,B20H30C3N2
AlB3(H5N)6,mp-1205240,5.5391,-2.65663049,0.0083737262500012,"{13: 1, 5: 3, 1: 30, 7: 6}","[1, 5, 7, 13]",1305376131,Al1B3H30N6
YB3(H5N)6,mp-1195997,4.279,-2.69765987,0.0386935400937584,"{39: 1, 5: 3, 1: 30, 7: 6}","[1, 5, 7, 39]",1305376391,Y1B3H30N6
CoB10H31C18O,mp-1204268,1.8064,-1.18881116,0.1845695783401639,"{27: 1, 5: 10, 1: 31, 6: 18, 8: 1}","[1, 5, 6, 8, 27]",13151061881271,Co1B10H31C18O1
CsNaB10H31N7,mp-1199766,2.8805,-1.66915801,0.1724128714600032,"{55: 1, 11: 1, 5: 10, 1: 31, 7: 7}","[1, 5, 7, 11, 55]",13151077111551,Cs1Na1B10H31N7
Mg4B8H31,mp-1201512,1.439,-2.47157698,0.0436236832364338,"{12: 4, 5: 8, 1: 31}","[1, 5, 12]",13158124,Mg4B8H31
FeB18H32(C4S)2,mp-758974,2.0301,0.56010097,0.1008511469473765,"{26: 1, 5: 18, 1: 32, 6: 8, 16: 2}","[1, 5, 6, 16, 26]",13251868162261,Fe1B18H32C8S2
CrB6H32(C4O)2,mp-1201768,2.7018,1.03981915,0.2486268931909041,"{24: 1, 5: 6, 1: 32, 6: 8, 8: 2}","[1, 5, 6, 8, 24]",132566882241,Cr1B6H32C8O2
Mg3CoB8P8(H8O13)4,mp-1223058,3.5011,4.03502699,0.0149475934218958,"{12: 3, 27: 1, 5: 8, 15: 8, 1: 32, 8: 52}","[1, 5, 8, 12, 15, 27]",13258852123158271,Mg3Co1B8P8H32O52
LiB2H3O5,mp-24560,4.8897,-0.85295765,0.0118562895075857,"{3: 1, 5: 2, 1: 3, 8: 5}","[1, 3, 5, 8]",13315285,Li1B2H3O5
Li(BH)3,mp-1211289,4.7883,3.9363733,0.1407134332908128,"{3: 1, 5: 3, 1: 3}","[1, 3, 5]",133153,Li1B3H3
LiB3P(HO3)3,mp-850414,5.7251,-0.90392444,0.0022070919362802,"{3: 1, 5: 3, 15: 1, 1: 3, 8: 9}","[1, 3, 5, 8, 15]",13315389151,Li1B3P1H3O9
LiCrB3(HO3)3,mp-778018,1.4087,0.22152786,0.0628331558861301,"{3: 1, 24: 1, 5: 3, 1: 3, 8: 9}","[1, 3, 5, 8, 24]",13315389241,Li1Cr1B3H3O9
LiMnB3(HO3)3,mp-778282,1.5952,-0.05589023,0.0958703803346514,"{3: 1, 25: 1, 5: 3, 1: 3, 8: 9}","[1, 3, 5, 8, 25]",13315389251,Li1Mn1B3H3O9
LiB3H3SeO9,mp-849266,0.2127,0.95199425,0.0953172368872516,"{3: 1, 5: 3, 1: 3, 34: 1, 8: 9}","[1, 3, 5, 8, 34]",13315389341,Li1B3H3Se1O9
Li2B12H33N7,mp-1204768,4.5949,-2.64932816,0.1136169443287036,"{3: 2, 5: 12, 1: 33, 7: 7}","[1, 3, 5, 7]",1333251277,Li2B12H33N7
LaB12H33Cl2O11,mp-1225247,1.1465,-0.35606223,0.2764488662970761,"{57: 1, 5: 12, 1: 33, 17: 2, 8: 11}","[1, 5, 8, 17, 57]",133512811172571,La1B12H33Cl2O11
YB3H33N7,mp-1194847,5.4364,-3.28089532,0.0056640455965988,"{39: 1, 5: 3, 1: 33, 7: 7}","[1, 5, 7, 39]",1335377391,Y1B3H33N7
LiBH34(C3N)4,mp-1195276,4.2338000000000005,-2.12853182,0.1651238393509588,"{3: 1, 5: 1, 1: 34, 6: 12, 7: 4}","[1, 3, 5, 6, 7]",134315161274,Li1B1H34C12N4
Li2MgB4(H17N3)2,mp-1199747,5.4504,-2.98597351,0.0189653773049638,"{3: 2, 12: 1, 5: 4, 1: 34, 7: 6}","[1, 3, 5, 7, 12]",134325476121,Li2Mg1B4H34N6
NaBH34(C3N)4,mp-1195859,4.1881,2.43582611,0.1564159656971195,"{11: 1, 5: 1, 1: 34, 6: 12, 7: 4}","[1, 5, 6, 7, 11]",1345161274111,Na1B1H34C12N4
CrB6P2(H17C3)2,mp-1198848,0.7523,-8.455e-05,0.1311737888265307,"{24: 1, 5: 6, 15: 2, 1: 34, 6: 6}","[1, 5, 6, 15, 24]",1345666152241,Cr1B6P2H34C6
BH3,mp-634117,5.3252,-4.29169418,0.0122232337500003,"{5: 1, 1: 3}","[1, 5]",1351,B1H3
NaB10H3Pb4O21,mp-1210485,0.0100999999999999,2.27496975,0.2664319551602734,"{11: 1, 5: 10, 1: 3, 82: 4, 8: 21}","[1, 5, 8, 11, 82]",13510821111824,Na1B10H3Pb4O21
SiBH3CNCl3,mp-1199507,4.9039,-1.56091103,0.0489213858309218,"{14: 1, 5: 1, 1: 3, 6: 1, 7: 1, 17: 3}","[1, 5, 6, 7, 14, 17]",13516171141173,Si1B1H3C1N1Cl3
BH3NF4,mp-697120,7.5583,-2.86280768,0.0485447931481495,"{5: 1, 1: 3, 7: 1, 9: 4}","[1, 5, 7, 9]",13517194,B1H3N1F4
NaAlBP2H3O10,mp-24646,5.7883,1.59693791,0.0058878767997754,"{11: 1, 13: 1, 5: 1, 15: 2, 1: 3, 8: 10}","[1, 5, 8, 11, 13, 15]",1351810111131152,Na1Al1B1P2H3O10
NaVBP2H3O10,mp-510020,2.1429,2.04252028,0.0004954466666653,"{11: 1, 23: 1, 5: 1, 15: 2, 1: 3, 8: 10}","[1, 5, 8, 11, 15, 23]",1351810111152231,Na1V1B1P2H3O10
NaFeBP2H3O10,mp-505478,2.6123,1.16859321,0.002470493333333,"{11: 1, 26: 1, 5: 1, 15: 2, 1: 3, 8: 10}","[1, 5, 8, 11, 15, 26]",1351810111152261,Na1Fe1B1P2H3O10
NaGaBP2H3O10,mp-1199672,4.9585,5.8467352,0.0043269492997684,"{11: 1, 31: 1, 5: 1, 15: 2, 1: 3, 8: 10}","[1, 5, 8, 11, 15, 31]",1351810111152311,Na1Ga1B1P2H3O10
CaNiBP2H3O10,mp-23811,4.0596,6.26149503,0.0063465427314994,"{20: 1, 28: 1, 5: 1, 15: 2, 1: 3, 8: 10}","[1, 5, 8, 15, 20, 28]",1351810152201281,Ca1Ni1B1P2H3O10
K3BP3(HO4)3,mp-1202621,4.8533,-0.33383931,0.0154783181723505,"{19: 3, 5: 1, 15: 3, 1: 3, 8: 12}","[1, 5, 8, 15, 19]",1351812153193,K3B1P3H3O12
Mg3B(HO2)3,mp-554719,3.4202000000000004,1.69467912,0.0117419205769211,"{12: 3, 5: 1, 1: 3, 8: 6}","[1, 5, 8, 12]",135186123,Mg3B1H3O6
BP4(HO2)3,mp-1200474,4.364,-0.60535557,0.2476370353690535,"{5: 1, 15: 4, 1: 3, 8: 6}","[1, 5, 8, 15]",135186154,B1P4H3O6
B2H3,mp-27876,3.074,-2.18793893,0.0345706471477269,"{5: 2, 1: 3}","[1, 5]",1352,B2H3
CaB2H3,mp-1191384,0.0,2.93769908,0.3125852961111119,"{20: 1, 5: 2, 1: 3}","[1, 5, 20]",1352201,Ca1B2H3
FeB2P2(HO4)3,mp-1202257,2.3365,0.99676273,0.0744341762500058,"{26: 1, 5: 2, 15: 2, 1: 3, 8: 12}","[1, 5, 8, 15, 26]",1352812152261,Fe1B2P2H3O12
K3CuB2P4H3O17,mp-773133,0.3045,1.14218887,0.0,"{19: 3, 29: 1, 5: 2, 15: 4, 1: 3, 8: 17}","[1, 5, 8, 15, 19, 29]",1352817154193291,K3Cu1B2P4H3O17
Ba2B2AsH3F18,mp-1198263,5.0476,1.45224726,0.0,"{56: 2, 5: 2, 33: 1, 1: 3, 9: 18}","[1, 5, 9, 33, 56]",1352918331562,Ba2B2As1H3F18
K(BH)3,mp-23950,5.0082,-1.15176661,0.0474738208571432,"{19: 1, 5: 3, 1: 3}","[1, 5, 19]",1353191,K1B3H3
Cs(BH)3,mp-23951,4.324199999999999,-0.80282733,0.0528773062192122,"{55: 1, 5: 3, 1: 3}","[1, 5, 55]",1353551,Cs1B3H3
Zn8B3H3O14,mp-555808,2.4989,-0.57679101,0.0241811990178568,"{30: 8, 5: 3, 1: 3, 8: 14}","[1, 5, 8, 30]",1353814308,Zn8B3H3O14