formula,material_id,band_gap,efermi,energy_above_hull,comp_atoms,sorted_keys_comp_atoms,comp_number,new_formula
NaB2H5O6,mp-706629,5.2761,-1.29207717,0.009658283556558622,"{11: 1, 5: 2, 1: 5, 8: 6}","[1, 5, 8, 11]",155286111,Na1B2H5O6
CsB2H5O6,mp-863006,5.0602,-0.94930926,0.0,"{55: 1, 5: 2, 1: 5, 8: 6}","[1, 5, 8, 55]",155286551,Cs1B2H5O6
B3H5,mp-569405,3.6391,-2.63229778,0.011612727504734188,"{5: 3, 1: 5}","[1, 5]",1553,B3H5
B3H5N3,mp-1214811,4.8954,1.92818024,0.01884417340909117,"{5: 3, 1: 5, 7: 3}","[1, 5, 7]",155373,B3H5N3
CaB3H5O8,mp-560899,5.5945,0.64948834,0.009811502499976754,"{20: 1, 5: 3, 1: 5, 8: 8}","[1, 5, 8, 20]",155388201,Ca1B3H5O8
B4H5,mp-27798,2.8803,-2.1005293,0.012353850434028146,"{5: 4, 1: 5}","[1, 5]",1554,B4H5
Na(BH)5,mp-776332,4.6683,-1.35213925,0.07662463721133683,"{11: 1, 5: 5, 1: 5}","[1, 5, 11]",1555111,Na1B5H5
K(BH)5,mp-24270,4.4587,-1.19671541,0.06430491077651457,"{19: 1, 5: 5, 1: 5}","[1, 5, 19]",1555191,K1B5H5
Rb(BH)5,mp-780534,4.0007,-1.27565023,0.0847378066287856,"{37: 1, 5: 5, 1: 5}","[1, 5, 37]",1555371,Rb1B5H5
LaB5H5NO14,mp-1202407,3.4857,0.72028526,0.0,"{57: 1, 5: 5, 1: 5, 7: 1, 8: 14}","[1, 5, 7, 8, 57]",155571814571,La1B5H5N1O14
Na2B5H5O11,mp-720593,4.9627,-0.35572271,0.012456987128172337,"{11: 2, 5: 5, 1: 5, 8: 11}","[1, 5, 8, 11]",1555811112,Na2B5H5O11
K2B5H5O11,mp-707775,4.8926,-0.67007852,0.015496533858707195,"{19: 2, 5: 5, 1: 5, 8: 11}","[1, 5, 8, 19]",1555811192,K2B5H5O11
Na2B5H5O12,mp-720406,0.06840000000000002,-0.77430328,0.1131960787061459,"{11: 2, 5: 5, 1: 5, 8: 12}","[1, 5, 8, 11]",1555812112,Na2B5H5O12
Ca2SiB5H5O14,mp-850516,5.409000000000001,1.13267333,0.0022094150617295583,"{20: 2, 14: 1, 5: 5, 1: 5, 8: 14}","[1, 5, 8, 14, 20]",1555814141202,Ca2Si1B5H5O14
Ca4Si3B5(HO4)5,mp-1227188,5.4639,2.20500552,0.009019450067563106,"{20: 4, 14: 3, 5: 5, 1: 5, 8: 20}","[1, 5, 8, 14, 20]",1555820143204,Ca4Si3B5H5O20
K2B6H5NO2,mp-722910,1.7669000000000001,-0.89398295,0.6188287647144088,"{19: 2, 5: 6, 1: 5, 7: 1, 8: 2}","[1, 5, 7, 8, 19]",15567182192,K2B6H5N1O2
Rb2B7H5O14,mp-1197195,5.1122,-0.96087815,0.0,"{37: 2, 5: 7, 1: 5, 8: 14}","[1, 5, 8, 37]",1557814372,Rb2B7H5O14
K2B10H6O19,mp-1205077,5.7646,4.56019988,0.0,"{19: 2, 5: 10, 1: 6, 8: 19}","[1, 5, 8, 19]",16510819192,K2B10H6O19
Rb2B10H6O19,mp-698164,5.7894000000000005,-1.09423224,0.0,"{37: 2, 5: 10, 1: 6, 8: 19}","[1, 5, 8, 37]",16510819372,Rb2B10H6O19
CdB10H6O19,mp-1195283,4.497,3.78557447,0.007232760694444451,"{48: 1, 5: 10, 1: 6, 8: 19}","[1, 5, 8, 48]",16510819481,Cd1B10H6O19
GaBH6,mp-30150,4.921,-3.59225012,0.05138807651041688,"{31: 1, 5: 1, 1: 6}","[1, 5, 31]",1651311,Ga1B1H6
BH6N,mp-1105968,6.0173000000000005,-2.26105717,0.04693410062500014,"{5: 1, 1: 6, 7: 1}","[1, 5, 7]",165171,B1H6N1
Mg2BP3(H3O7)2,mp-553891,5.2063,0.87689936,0.00257090503541324,"{12: 2, 5: 1, 15: 3, 1: 6, 8: 14}","[1, 5, 8, 12, 15]",1651814122153,Mg2B1P3H6O14
Co2BP3(H3O7)2,mp-1214582,3.0194,4.10595216,0.022742297692309954,"{27: 2, 5: 1, 15: 3, 1: 6, 8: 14}","[1, 5, 8, 15, 27]",1651814153272,Co2B1P3H6O14
MgBP(H3O4)2,mp-758868,5.3032,0.23087027,0.0005753741421559155,"{12: 1, 5: 1, 15: 1, 1: 6, 8: 8}","[1, 5, 8, 12, 15]",165188121151,Mg1B1P1H6O8
Na10B18H6O35,mp-1221784,4.6812,0.35895093,0.0,"{11: 10, 5: 18, 1: 6, 8: 35}","[1, 5, 8, 11]",165188351110,Na10B18H6O35
Mg(BH3)2,mp-1202722,5.4818,-4.32585555,0.03444788500000051,"{12: 1, 5: 2, 1: 6}","[1, 5, 12]",1652121,Mg1B2H6
Co7B24(H3O23)2,mp-1197918,2.9523,6.04326305,0.07934396083668283,"{27: 7, 5: 24, 1: 6, 8: 46}","[1, 5, 8, 27]",16524846277,Co7B24H6O46
MgB2H6O7,mp-706910,5.412599999999999,0.56934576,0.028103962500005686,"{12: 1, 5: 2, 1: 6, 8: 7}","[1, 5, 8, 12]",165287121,Mg1B2H6O7
KB3(H3O4)2,mp-707961,4.0008,-1.88754202,0.46731356472219776,"{19: 1, 5: 3, 1: 6, 8: 8}","[1, 5, 8, 19]",165388191,K1B3H6O8
B5H6Br,mp-30977,3.0316,-2.1169162,0.0,"{5: 5, 1: 6, 35: 1}","[1, 5, 35]",1655351,B5H6Br1
AgB5H6N2Cl5,mp-1194697,2.7748,-0.49374299,0.1565606780043849,"{47: 1, 5: 5, 1: 6, 7: 2, 17: 5}","[1, 5, 7, 17, 47]",165572175471,Ag1B5H6N2Cl5
Na(BH)6,mp-978278,5.6439,-1.86260873,0.0,"{11: 1, 5: 6, 1: 6}","[1, 5, 11]",1656111,Na1B6H6
K(BH)6,mp-24239,5.5283999999999995,-2.52744351,0.0,"{19: 1, 5: 6, 1: 6}","[1, 5, 19]",1656191,K1B6H6
Rb(BH)6,mp-24123,5.5367,-2.51568475,0.0,"{37: 1, 5: 6, 1: 6}","[1, 5, 37]",1656371,Rb1B6H6
Cs(BH)6,mp-24136,5.3831,-2.57009407,0.0,"{55: 1, 5: 6, 1: 6}","[1, 5, 55]",1656551,Cs1B6H6
B6H6NO6,mp-1204578,0.4051,0.53169825,0.7204869552192967,"{5: 6, 1: 6, 7: 1, 8: 6}","[1, 5, 7, 8]",16567186,B6H6N1O6
Tl(BH)6,mp-23691,4.5268999999999995,-1.30079993,0.0,"{81: 1, 5: 6, 1: 6}","[1, 5, 81]",1656811,Tl1B6H6
KB6(HO)6,mp-1237093,2.1574,3.63198299,0.2662600203352685,"{19: 1, 5: 6, 1: 6, 8: 6}","[1, 5, 8, 19]",165686191,K1B6H6O6
Na2Al17Si11B7(H3O31)2,mp-534773,4.069699999999999,4.0900915,0.020735767045349185,"{11: 2, 13: 17, 14: 11, 5: 7, 1: 6, 8: 62}","[1, 5, 8, 11, 13, 14]",165786211213171411,Na2Al17Si11B7H6O62
SmB9(HO3)6,mp-1201785,5.2966,0.37712173,0.0,"{62: 1, 5: 9, 1: 6, 8: 18}","[1, 5, 8, 62]",1659818621,Sm1B9H6O18
SrCaB11H7O22,mp-1208782,5.8782,5.81215786,0.0,"{38: 1, 20: 1, 5: 11, 1: 7, 8: 22}","[1, 5, 8, 20, 38]",17511822201381,Sr1Ca1B11H7O22
BH7N2,mp-27612,5.6370000000000005,-2.2133666,0.23509590400000402,"{5: 1, 1: 7, 7: 2}","[1, 5, 7]",175172,B1H7N2
MgB2H7,mp-1202883,3.9013999999999998,-3.62208196,0.048960955666666806,"{12: 1, 5: 2, 1: 7}","[1, 5, 12]",1752121,Mg1B2H7
AlB2P2H7O13,mp-1200535,2.5429000000000004,3.31353578,0.23003904633335281,"{13: 1, 5: 2, 15: 2, 1: 7, 8: 13}","[1, 5, 8, 13, 15]",1752813131152,Al1B2P2H7O13
B3H7N,mp-696812,1.4863,-2.52047443,0.5333215421363624,"{5: 3, 1: 7, 7: 1}","[1, 5, 7]",175371,B3H7N1
CaB3H7O9,mp-720430,5.4108,-0.48010201,0.00493095199998983,"{20: 1, 5: 3, 1: 7, 8: 9}","[1, 5, 8, 20]",175389201,Ca1B3H7O9
B5H7,mp-706630,3.3929,-2.32359062,0.0,"{5: 5, 1: 7}","[1, 5]",1755,B5H7
B5H7S,mp-1197387,2.0846,0.69986666,0.10749805486030617,"{5: 5, 1: 7, 16: 1}","[1, 5, 16]",1755161,B5H7S1
CeB5H7NO15,mp-1198651,0.2798999999999996,3.03867017,0.030907620316091844,"{58: 1, 5: 5, 1: 7, 7: 1, 8: 15}","[1, 5, 7, 8, 58]",175571815581,Ce1B5H7N1O15
Ca2B5H7O13,mp-1197116,5.7199,6.27441966,0.006571504351854607,"{20: 2, 5: 5, 1: 7, 8: 13}","[1, 5, 8, 20]",1755813202,Ca2B5H7O13
B6H7O6,mp-1197106,2.1929,3.76537392,0.24859886293859734,"{5: 6, 1: 7, 8: 6}","[1, 5, 8]",175686,B6H7O6
SmB7H7O17,mp-1219420,0.12170000000000003,-0.69398082,0.11450989538410106,"{62: 1, 5: 7, 1: 7, 8: 17}","[1, 5, 8, 62]",1757817621,Sm1B7H7O17
Be(BH4)2,mp-27344,6.190300000000001,-3.81718603,0.0,"{4: 1, 5: 2, 1: 8}","[1, 4, 5]",184152,Be1B2H8
BH8N,mp-1190290,5.6111,3.30971132,0.0745492584999985,"{5: 1, 1: 8, 7: 1}","[1, 5, 7]",185171,B1H8N1
NaB(H4N)2,mp-1201964,5.144,2.91144281,0.21352533722222056,"{11: 1, 5: 1, 1: 8, 7: 2}","[1, 5, 7, 11]",185172111,Na1B1H8N2
NaB(H4O)2,mp-23784,5.8288,-2.99405839,0.09565974406248667,"{11: 1, 5: 1, 1: 8, 8: 2}","[1, 5, 8, 11]",185182111,Na1B1H8O2
NaB(H4O3)2,mp-696849,4.4654,-1.58196448,0.3275814202083325,"{11: 1, 5: 1, 1: 8, 8: 6}","[1, 5, 8, 11]",185186111,Na1B1H8O6
NaBH8O7,mp-721727,3.8757,-0.94736938,0.00888261328431117,"{11: 1, 5: 1, 1: 8, 8: 7}","[1, 5, 8, 11]",185187111,Na1B1H8O7
KNa(BH4)2,mp-23758,6.352399999999999,-2.94979201,0.002219713749999741,"{19: 1, 11: 1, 5: 2, 1: 8}","[1, 5, 11, 19]",1852111191,K1Na1B2H8
Mg(BH4)2,mp-1200811,6.7129,-5.35533472,0.0,"{12: 1, 5: 2, 1: 8}","[1, 5, 12]",1852121,Mg1B2H8
Ca(BH4)2,mp-1190619,4.9736,-2.80545374,0.0,"{20: 1, 5: 2, 1: 8}","[1, 5, 20]",1852201,Ca1B2H8
Mn(BH4)2,mp-1204859,1.827,-0.04148603,0.010427168825755118,"{25: 1, 5: 2, 1: 8}","[1, 5, 25]",1852251,Mn1B2H8
Zn(BH4)2,mp-1191586,4.6445,-4.55835695,0.0,"{30: 1, 5: 2, 1: 8}","[1, 5, 30]",1852301,Zn1B2H8
Cd(BH4)2,mp-1190754,3.9565,0.78256034,0.0,"{48: 1, 5: 2, 1: 8}","[1, 5, 48]",1852481,Cd1B2H8
Sm(BH4)2,mp-1194497,0.0,2.74180408,0.05446563356060796,"{62: 1, 5: 2, 1: 8}","[1, 5, 62]",1852621,Sm1B2H8
Eu(BH4)2,mp-2646920,1.572,1.2615907,0.0,"{63: 1, 5: 2, 1: 8}","[1, 5, 63]",1852631,Eu1B2H8
B2H8N,mp-1197839,5.6386,2.85302436,0.08442285197727184,"{5: 2, 1: 8, 7: 1}","[1, 5, 7]",185271,B2H8N1
MgB2P2H8O13,mp-542843,5.6109,-0.0884814,0.00900497454451532,"{12: 1, 5: 2, 15: 2, 1: 8, 8: 13}","[1, 5, 8, 12, 15]",1852813121152,Mg1B2P2H8O13
CsV3B2P4(H4O11)2,mp-1200471,0.0,3.04138735,0.0,"{55: 1, 23: 3, 5: 2, 15: 4, 1: 8, 8: 22}","[1, 5, 8, 15, 23, 55]",1852822154233551,Cs1V3B2P4H8O22
CaB2(HO)8,mp-1199389,5.3334,0.25514427,0.034188771447355215,"{20: 1, 5: 2, 1: 8, 8: 8}","[1, 5, 8, 20]",185288201,Ca1B2H8O8
NaB3H8,mp-1190348,5.775,-2.53674339,0.026407222660256302,"{11: 1, 5: 3, 1: 8}","[1, 5, 11]",1853111,Na1B3H8
CsB3H8,mp-1191955,5.973,-2.88220498,0.00486637788461497,"{55: 1, 5: 3, 1: 8}","[1, 5, 55]",1853551,Cs1B3H8
Na2B4H8O11,mp-706655,4.5752,-0.62988187,0.0009501245166410044,"{11: 2, 5: 4, 1: 8, 8: 11}","[1, 5, 8, 11]",1854811112,Na2B4H8O11
K2B4H8O11,mp-721901,5.2011,-1.32333517,0.0,"{19: 2, 5: 4, 1: 8, 8: 11}","[1, 5, 8, 19]",1854811192,K2B4H8O11
B5H8,mp-29611,5.4267,-2.64730127,0.032704372639860146,"{5: 5, 1: 8}","[1, 5]",1855,B5H8
B5H8NO12,mp-721584,0.0,-2.71485668,0.28761420647436076,"{5: 5, 1: 8, 7: 1, 8: 12}","[1, 5, 7, 8]",185571812,B5H8N1O12
KB5(H2O3)4,mp-706621,5.635,-2.04999211,0.0,"{19: 1, 5: 5, 1: 8, 8: 12}","[1, 5, 8, 19]",1855812191,K1B5H8O12
RbB5(H2O3)4,mp-721194,0.0,-1.78942505,1.0389323073557701,"{37: 1, 5: 5, 1: 8, 8: 12}","[1, 5, 8, 37]",1855812371,Rb1B5H8O12
CsB5(H2O3)4,mp-23742,5.6249,-1.73911712,0.0,"{55: 1, 5: 5, 1: 8, 8: 12}","[1, 5, 8, 55]",1855812551,Cs1B5H8O12
NaB5H8O13,mp-1195228,0.5206,-2.14919711,0.10474084361112279,"{11: 1, 5: 5, 1: 8, 8: 13}","[1, 5, 8, 11]",1855813111,Na1B5H8O13
NaCaB5H8O13,mp-705528,4.884399999999999,0.13663421,0.010192071696412341,"{11: 1, 20: 1, 5: 5, 1: 8, 8: 13}","[1, 5, 8, 11, 20]",1855813111201,Na1Ca1B5H8O13
K2GaB5(H4O7)2,mp-1196254,5.0529,3.41848748,0.016137670541663596,"{19: 2, 31: 1, 5: 5, 1: 8, 8: 14}","[1, 5, 8, 19, 31]",1855814192311,K2Ga1B5H8O14
Rb2GaB5(H4O7)2,mp-1201112,5.194599999999999,3.55360629,0.00441216813333245,"{37: 2, 31: 1, 5: 5, 1: 8, 8: 14}","[1, 5, 8, 31, 37]",1855814311372,Rb2Ga1B5H8O14
CaB6(H4O7)2,mp-1198301,5.1002,-0.52329229,0.012203559458116686,"{20: 1, 5: 6, 1: 8, 8: 14}","[1, 5, 8, 20]",1856814201,Ca1B6H8O14
SrB6(H4O7)2,mp-721618,5.0645999999999995,-0.51807654,0.004097023934736654,"{38: 1, 5: 6, 1: 8, 8: 14}","[1, 5, 8, 38]",1856814381,Sr1B6H8O14
NaB6H8S3O7,mp-1203101,2.1389,-1.6335244,0.6013073129391184,"{11: 1, 5: 6, 1: 8, 16: 3, 8: 7}","[1, 5, 8, 11, 16]",185687111163,Na1B6H8S3O7
RbB6H8O7,mp-707349,2.2325,1.23656724,0.2584568535795375,"{37: 1, 5: 6, 1: 8, 8: 7}","[1, 5, 8, 37]",185687371,Rb1B6H8O7
CsB6H8O7,mp-707883,2.0082999999999998,3.53596827,0.28077801477272235,"{55: 1, 5: 6, 1: 8, 8: 7}","[1, 5, 8, 55]",185687551,Cs1B6H8O7
RbB6(HO)8,mp-1203229,1.8370000000000002,2.62603236,0.46483366809782645,"{37: 1, 5: 6, 1: 8, 8: 8}","[1, 5, 8, 37]",185688371,Rb1B6H8O8
SmB7(HO2)8,mp-1199202,5.7436,5.29819972,0.0,"{62: 1, 5: 7, 1: 8, 8: 16}","[1, 5, 8, 62]",1857816621,Sm1B7H8O16
ZnB8(H2N)4,mp-720897,0.0,-2.25144457,1.59024899595238,"{30: 1, 5: 8, 1: 8, 7: 4}","[1, 5, 7, 30]",185874301,Zn1B8H8N4
B9H8S,mp-27202,4.0429,-2.36865916,0.019398978084960383,"{5: 9, 1: 8, 16: 1}","[1, 5, 16]",1859161,B9H8S1
NaCa2B9(H2O5)4,mp-722342,5.1407,0.27958391,0.007783257249998066,"{11: 1, 20: 2, 5: 9, 1: 8, 8: 20}","[1, 5, 8, 11, 20]",1859820111202,Na1Ca2B9H8O20
RbB10H9,mp-27650,4.4008,-1.23136192,0.07990946032576396,"{37: 1, 5: 10, 1: 9}","[1, 5, 37]",19510371,Rb1B10H9
K2B10H9O,mp-705892,0.0,-1.09363199,0.43828203210278716,"{19: 2, 5: 10, 1: 9, 8: 1}","[1, 5, 8, 19]",1951081192,K2B10H9O1
Mg3B11(H3O8)3,mp-733898,3.7151000000000005,0.69726396,0.2749034796755261,"{12: 3, 5: 11, 1: 9, 8: 24}","[1, 5, 8, 12]",19511824123,Mg3B11H9O24
BP(H3N)3,mp-1203334,4.9115,-1.6983882,0.0829247465476195,"{5: 1, 15: 1, 1: 9, 7: 3}","[1, 5, 7, 15]",195173151,B1P1H9N3
Mg3B2H9SO13F,mp-1181947,4.2701,4.07373416,0.09007900313218631,"{12: 3, 5: 2, 1: 9, 16: 1, 8: 13, 9: 1}","[1, 5, 8, 9, 12, 16]",195281391123161,Mg3B2H9S1O13F1
B5H9,mp-1338697,5.964700000000001,-3.44933921,0.01923477892045522,"{5: 5, 1: 9}","[1, 5]",1955,B5H9
B5H9N,mp-27893,3.7741,-0.15593281,0.06442807013333418,"{5: 5, 1: 9, 7: 1}","[1, 5, 7]",195571,B5H9N1
MgBeB,mp-1221963,0.0,3.5035872,0.487961900833334,"{12: 1, 4: 1, 5: 1}","[4, 5, 12]",4151121,Mg1Be1B1
BeAlB,mp-4262,0.0,7.38446061,0.0,"{4: 1, 13: 1, 5: 1}","[4, 5, 13]",4151131,Be1Al1B1
TiBeB,mp-1217018,0.0,5.59676446,0.0845739635185252,"{22: 1, 4: 1, 5: 1}","[4, 5, 22]",4151221,Ti1Be1B1
BeCo2B,mp-1096558,0.24880000000000013,-3.47918274,3.03847169875,"{4: 1, 27: 2, 5: 1}","[4, 5, 27]",4151272,Be1Co2B1
BeGeB,mp-631541,0.0,6.94465202,0.7640787847916668,"{4: 1, 32: 1, 5: 1}","[4, 5, 32]",4151321,Be1Ge1B1
ZrBeB,mp-1215258,0.0,4.81785215,0.007066213333334126,"{40: 1, 4: 1, 5: 1}","[4, 5, 40]",4151401,Zr1Be1B1
TaBeB,mp-1217960,0.0,6.6076901,0.0,"{73: 1, 4: 1, 5: 1}","[4, 5, 73]",4151731,Ta1Be1B1
BeReB,mp-631537,0.0,4.77616749,1.2495247475000006,"{4: 1, 75: 1, 5: 1}","[4, 5, 75]",4151751,Be1Re1B1
BeBIr2,mp-1095722,0.0,-4.21099786,3.2145271466666667,"{4: 1, 5: 1, 77: 2}","[4, 5, 77]",4151772,Be1B1Ir2
BeBPt2,mp-1096043,0.07289999999999974,-4.68786826,2.1804926495208337,"{4: 1, 5: 1, 78: 2}","[4, 5, 78]",4151782,Be1B1Pt2
BeBO3,mp-1183422,0.0,5.77430245,1.6400017199166665,"{4: 1, 5: 1, 8: 3}","[4, 5, 8]",415183,Be1B1O3
BeAlBO3F2,mp-1247751,5.5792,-8.77860563,0.1862850393124953,"{4: 1, 13: 1, 5: 1, 8: 3, 9: 2}","[4, 5, 8, 9, 13]",41518392131,Be1Al1B1O3F2
BeB2,mp-1009823,0.0,6.7721012,0.127193730069445,"{4: 1, 5: 2}","[4, 5]",4152,Be1B2
Mg2BeB2Ir5,mp-1105674,0.0,7.68906819,0.0,"{12: 2, 4: 1, 5: 2, 77: 5}","[4, 5, 12, 77]",4152122775,Mg2Be1B2Ir5
Sc2BeB2Ir5,mp-1208984,0.0,8.04843862,0.0,"{21: 2, 4: 1, 5: 2, 77: 5}","[4, 5, 21, 77]",4152212775,Sc2Be1B2Ir5
Na2BeB2O5,mp-16737,4.8657,0.3180331,0.0,"{11: 2, 4: 1, 5: 2, 8: 5}","[4, 5, 8, 11]",415285112,Na2Be1B2O5
CaBeB2O5,mp-554315,5.822699999999999,2.09997398,0.004287166944422438,"{20: 1, 4: 1, 5: 2, 8: 5}","[4, 5, 8, 20]",415285201,Ca1Be1B2O5
SrBeB2O5,mp-1020654,5.3673,1.83052516,0.0,"{38: 1, 4: 1, 5: 2, 8: 5}","[4, 5, 8, 38]",415285381,Sr1Be1B2O5
NaBe(BO2)3,mp-1020624,4.931,-0.45166291,0.001195700530375099,"{11: 1, 4: 1, 5: 3, 8: 6}","[4, 5, 8, 11]",415386111,Na1Be1B3O6
Be(BO2)4,mp-727023,0.0,-0.93451972,0.14234446833333614,"{4: 1, 5: 4, 8: 8}","[4, 5, 8]",415488,Be1B4O8
Sr3BeB6O13,mp-1020637,4.7944,1.65213127,0.0,"{38: 3, 4: 1, 5: 6, 8: 13}","[4, 5, 8, 38]",4156813383,Sr3Be1B6O13
Be2B,mp-1432,0.0,4.79997553,0.054649395972222514,"{4: 2, 5: 1}","[4, 5]",4251,Be2B1
MgBe2B,mp-631564,0.0,5.75036988,0.7392046218749999,"{12: 1, 4: 2, 5: 1}","[4, 5, 12]",4251121,Mg1Be2B1
Be2BO3F,mp-554023,6.462899999999999,-0.8618101,0.0,"{4: 2, 5: 1, 8: 3, 9: 1}","[4, 5, 8, 9]",42518391,Be2B1O3F1
NaBe2BO3F2,mp-556865,6.0856,-1.12661343,0.005552273055560164,"{11: 1, 4: 2, 5: 1, 8: 3, 9: 2}","[4, 5, 8, 9, 11]",42518392111,Na1Be2B1O3F2
KBe2BO3F2,mp-6870,6.0524000000000004,-1.45261855,0.0,"{19: 1, 4: 2, 5: 1, 8: 3, 9: 2}","[4, 5, 8, 9, 19]",42518392191,K1Be2B1O3F2
RbBe2BO3F2,mp-7323,6.0052,-1.36922469,0.0,"{37: 1, 4: 2, 5: 1, 8: 3, 9: 2}","[4, 5, 8, 9, 37]",42518392371,Rb1Be2B1O3F2
CsBe2BO3F2,mp-553342,5.8834,-0.71730473,0.0,"{55: 1, 4: 2, 5: 1, 8: 3, 9: 2}","[4, 5, 8, 9, 55]",42518392551,Cs1Be2B1O3F2
Be2BO4,mp-736232,0.1268,0.29736294,0.08268211154762017,"{4: 2, 5: 1, 8: 4}","[4, 5, 8]",425184,Be2B1O4
Be2BO5,mp-1079124,0.0,-0.43328575,0.32236409338541616,"{4: 2, 5: 1, 8: 5}","[4, 5, 8]",425185,Be2B1O5
SrBe2(BO3)2,mp-558981,5.3547,1.19219894,0.007696537272724235,"{38: 1, 4: 2, 5: 2, 8: 6}","[4, 5, 8, 38]",425286381,Sr1Be2B2O6
NaCaBe2B2O6F,mp-1193627,5.0458,1.07035461,0.0036189919230809053,"{11: 1, 20: 1, 4: 2, 5: 2, 8: 6, 9: 1}","[4, 5, 8, 9, 11, 20]",42528691111201,Na1Ca1Be2B2O6F1
Sr2Be2B2O7,mp-556498,4.0798000000000005,1.65990551,0.005458277115380383,"{38: 2, 4: 2, 5: 2, 8: 7}","[4, 5, 8, 38]",425287382,Sr2Be2B2O7
KBe2B3O7,mp-1193116,5.5029,-0.09944659,0.0007822135042587774,"{19: 1, 4: 2, 5: 3, 8: 7}","[4, 5, 8, 19]",425387191,K1Be2B3O7
RbBe2B3O7,mp-1020621,4.5047,-0.09262999,0.014265438835433741,"{37: 1, 4: 2, 5: 3, 8: 7}","[4, 5, 8, 37]",425387371,Rb1Be2B3O7
GdBe2B5O11,mp-1195691,0.31020000000000003,1.30534746,0.0,"{64: 1, 4: 2, 5: 5, 8: 11}","[4, 5, 8, 64]",4255811641,Gd1Be2B5O11
Be3B3P6N3O25,mp-1214690,0.020100000000000007,-0.60663135,0.5613399951562466,"{4: 3, 5: 3, 15: 6, 7: 3, 8: 25}","[4, 5, 7, 8, 15]",435373825156,Be3B3P6N3O25
Na3Be3B3P6O25,mp-1211231,1.0103,0.75977776,0.07749354837500011,"{11: 3, 4: 3, 5: 3, 15: 6, 8: 25}","[4, 5, 8, 11, 15]",4353825113156,Na3Be3B3P6O25
K3Be3B3P6O25,mp-1212145,0.0020000000000000018,0.65535561,0.04804266031249593,"{19: 3, 4: 3, 5: 3, 15: 6, 8: 25}","[4, 5, 8, 15, 19]",4353825156193,K3Be3B3P6O25
NaSr3Be3B3O9F4,mp-1192032,4.7554,1.08836928,0.03749146184783303,"{11: 1, 38: 3, 4: 3, 5: 3, 8: 9, 9: 4}","[4, 5, 8, 9, 11, 38]",43538994111383,Na1Sr3Be3B3O9F4
Be4B,mp-27757,0.0,5.44176915,0.0,"{4: 4, 5: 1}","[4, 5]",4451,Be4B1
Be4B25,mp-1227634,0.0,6.84281784,0.21331309017241296,"{4: 4, 5: 25}","[4, 5]",44525,Be4B25
RbBe4(BO3)3,mp-556393,5.1736,0.2634471,0.0,"{37: 1, 4: 4, 5: 3, 8: 9}","[4, 5, 8, 37]",445389371,Rb1Be4B3O9
CsBe4(BO3)3,mp-1019718,4.9398,0.6731749,0.0,"{55: 1, 4: 4, 5: 3, 8: 9}","[4, 5, 8, 55]",445389551,Cs1Be4B3O9
Na2Be4B4O11,mp-1020144,4.983300000000001,0.80965338,0.0017968795238214597,"{11: 2, 4: 4, 5: 4, 8: 11}","[4, 5, 8, 11]",4454811112,Na2Be4B4O11
U4Be51B,mp-1216800,0.0,5.66565038,0.0,"{92: 4, 4: 51, 5: 1}","[4, 5, 92]",45151924,U4Be51B1
CsNa2Be6(BO3)5,mp-866613,4.5093,0.56914838,0.0005435531034470031,"{55: 1, 11: 2, 4: 6, 5: 5, 8: 15}","[4, 5, 8, 11, 55]",4655815112551,Cs1Na2Be6B5O15
B,mp-160,1.4333999999999998,6.15041714,0.0,{5: 1},[5],51,B1
V3B100,mp-1216517,0.0,4.76856141,0.03279329386731522,"{23: 3, 5: 100}","[5, 23]",5100233,V3B100
Mg4AlB10,mp-1222150,0.0,6.86156305,0.0,"{12: 4, 13: 1, 5: 10}","[5, 12, 13]",510124131,Mg4Al1B10
La3Co29(Si2B5)2,mp-6084,0.0,7.33257936,0.0,"{57: 3, 27: 29, 14: 4, 5: 10}","[5, 14, 27, 57]",5101442729573,La3Co29Si4B10
Ce3Co29(Si2B5)2,mp-16083,0.0,7.22589716,0.0,"{58: 3, 27: 29, 14: 4, 5: 10}","[5, 14, 27, 58]",5101442729583,Ce3Co29Si4B10
Nd3Co29(Si2B5)2,mp-16085,0.0,6.37710155,0.0,"{60: 3, 27: 29, 14: 4, 5: 10}","[5, 14, 27, 60]",5101442729603,Nd3Co29Si4B10
Gd3Co29(Si2B5)2,mp-680293,0.0,6.29867489,0.0,"{64: 3, 27: 29, 14: 4, 5: 10}","[5, 14, 27, 64]",5101442729643,Gd3Co29Si4B10
Dy3Co29(Si2B5)2,mp-758934,0.0,6.33423658,0.0,"{66: 3, 27: 29, 14: 4, 5: 10}","[5, 14, 27, 66]",5101442729663,Dy3Co29Si4B10
Er3Co29(Si2B5)2,mp-21951,0.0,6.33665119,0.0,"{68: 3, 27: 29, 14: 4, 5: 10}","[5, 14, 27, 68]",5101442729683,Er3Co29Si4B10
Th2CoB10,mp-22548,0.0,8.32055126,0.0,"{90: 2, 27: 1, 5: 10}","[5, 27, 90]",510271902,Th2Co1B10
Sr5(B5Rh7)2,mp-28706,0.0,3.87782115,0.0,"{38: 5, 5: 10, 45: 14}","[5, 38, 45]",5103854514,Sr5B10Rh14
Cs2Na2B10O17,mp-559557,4.7124999999999995,0.39384728,0.0,"{55: 2, 11: 2, 5: 10, 8: 17}","[5, 8, 11, 55]",510817112552,Cs2Na2B10O17
Na2Tl2B10O17,mp-554657,4.1036,0.58967095,0.0,"{11: 2, 81: 2, 5: 10, 8: 17}","[5, 8, 11, 81]",510817112812,Na2Tl2B10O17
Cs2K2B10O17,mp-1200330,4.6216,0.05848816,0.0,"{55: 2, 19: 2, 5: 10, 8: 17}","[5, 8, 19, 55]",510817192552,Cs2K2B10O17
NaB10Pb4Cl2O19,mp-1221108,1.2992,3.88427482,0.06007736163194277,"{11: 1, 5: 10, 82: 4, 17: 2, 8: 19}","[5, 8, 11, 17, 82]",510819111172824,Na1B10Pb4Cl2O19
B10Pb4Cl2O19,mp-1195990,0.4469000000000001,2.00885268,0.054551373439153394,"{5: 10, 82: 4, 17: 2, 8: 19}","[5, 8, 17, 82]",510819172824,B10Pb4Cl2O19
CaLa2B10O19,mp-560622,4.3132,2.31328617,0.0,"{20: 1, 57: 2, 5: 10, 8: 19}","[5, 8, 20, 57]",510819201572,Ca1La2B10O19
B10Pb3O20,mp-1182647,0.2968000000000002,2.23859132,0.0448827645454557,"{5: 10, 82: 3, 8: 20}","[5, 8, 82]",510820823,B10Pb3O20
La4B10O21,mp-1019894,4.139400000000001,4.64196452,0.012671912942856522,"{57: 4, 5: 10, 8: 21}","[5, 8, 57]",510821574,La4B10O21