formula,material_id,band_gap,efermi,energy_above_hull,comp_atoms,sorted_keys_comp_atoms,comp_number,new_formula
Zn3B7ClO13,mp-23609,4.4852,1.78594714,0.0009320307031170927,"{30: 3, 5: 7, 17: 1, 8: 13}","[5, 8, 17, 30]",57813171303,Zn3B7Cl1O13
Cr3B7BrO13,mp-23581,2.4249,4.12942541,0.0,"{24: 3, 5: 7, 35: 1, 8: 13}","[5, 8, 24, 35]",57813243351,Cr3B7Br1O13
Cr3B7IO13,mp-558442,1.7271999999999998,4.99436916,0.0,"{24: 3, 5: 7, 53: 1, 8: 13}","[5, 8, 24, 53]",57813243531,Cr3B7I1O13
Mn3B7BrO13,mp-560911,4.1137,2.77957769,0.0,"{25: 3, 5: 7, 35: 1, 8: 13}","[5, 8, 25, 35]",57813253351,Mn3B7Br1O13
Mn3B7IO13,mp-23566,3.8123,3.23770873,0.0,"{25: 3, 5: 7, 53: 1, 8: 13}","[5, 8, 25, 53]",57813253531,Mn3B7I1O13
Co3B7BrO13,mp-562349,2.146,3.46820269,0.07688987792824253,"{27: 3, 5: 7, 35: 1, 8: 13}","[5, 8, 27, 35]",57813273351,Co3B7Br1O13
Co3B7IO13,mp-23628,2.2508999999999997,3.18665278,0.058977345949074333,"{27: 3, 5: 7, 53: 1, 8: 13}","[5, 8, 27, 53]",57813273531,Co3B7I1O13
Zn3B7BrO13,mp-1179542,4.4924,6.2002468,0.0059078026432235475,"{30: 3, 5: 7, 35: 1, 8: 13}","[5, 8, 30, 35]",57813303351,Zn3B7Br1O13
Zn3B7IO13,mp-1207531,4.292999999999999,6.73730846,0.02018565324220134,"{30: 3, 5: 7, 53: 1, 8: 13}","[5, 8, 30, 53]",57813303531,Zn3B7I1O13
Cr3B7O13F,mp-1213769,3.1891000000000003,2.98524537,0.0,"{24: 3, 5: 7, 8: 13, 9: 1}","[5, 8, 9, 24]",5781391243,Cr3B7O13F1
Co3B7O13F,mp-1197938,2.2897000000000003,4.25677408,0.10302076207175936,"{27: 3, 5: 7, 8: 13, 9: 1}","[5, 8, 9, 27]",5781391273,Co3B7O13F1
Cd3(BO2)7,mp-1198909,0.04459999999999997,1.0490961,0.024781847734375972,"{48: 3, 5: 7, 8: 14}","[5, 8, 48]",57814483,Cd3B7O14
PuB7IO14,mp-1196747,0.0,-0.23750968,0.1569123317210135,"{94: 1, 5: 7, 53: 1, 8: 14}","[5, 8, 53, 94]",57814531941,Pu1B7I1O14
LaB7IO15,mp-1205243,0.3751,0.03772509,0.566180140873854,"{57: 1, 5: 7, 53: 1, 8: 15}","[5, 8, 53, 57]",57815531571,La1B7I1O15
CeB7IO15,mp-1200378,0.2577,-0.36142535,0.2689994616493063,"{58: 1, 5: 7, 53: 1, 8: 15}","[5, 8, 53, 58]",57815531581,Ce1B7I1O15
PrB7IO15,mp-1204720,0.0,-0.20140988,0.5722351960590215,"{59: 1, 5: 7, 53: 1, 8: 15}","[5, 8, 53, 59]",57815531591,Pr1B7I1O15
NdB7IO15,mp-1199548,0.0,-0.05928708,0.5620433377430674,"{60: 1, 5: 7, 53: 1, 8: 15}","[5, 8, 53, 60]",57815531601,Nd1B7I1O15
SmB7IO15,mp-1203095,0.5477000000000001,0.02156465,0.27952578289929964,"{62: 1, 5: 7, 53: 1, 8: 15}","[5, 8, 53, 62]",57815531621,Sm1B7I1O15
NdB7ClO18,mp-1202140,0.09999999999999998,-0.63840475,0.14638762179011522,"{60: 1, 5: 7, 17: 1, 8: 18}","[5, 8, 17, 60]",57818171601,Nd1B7Cl1O18
SmB7ClO18,mp-1203811,0.08079999999999998,-0.70474118,0.1480782263734417,"{62: 1, 5: 7, 17: 1, 8: 18}","[5, 8, 17, 62]",57818171621,Sm1B7Cl1O18
K3B7PtO20,mp-1181745,0.0,-1.1670559,0.5469763799372735,"{19: 3, 5: 7, 78: 1, 8: 20}","[5, 8, 19, 78]",57820193781,K3B7Pt1O20
AlZn10(B4Rh9)2,mp-1214951,0.0,5.90822192,0.005087341126141176,"{13: 1, 30: 10, 5: 8, 45: 18}","[5, 13, 30, 45]",5813130104518,Al1Zn10B8Rh18
Ta3AlB8,mp-1217997,0.0,9.112044,0.0057861593666643785,"{73: 3, 13: 1, 5: 8}","[5, 13, 73]",58131733,Ta3Al1B8
Zn10Si(B4Rh9)2,mp-1207540,0.0,6.05764735,7.505957208220337e-05,"{30: 10, 14: 1, 5: 8, 45: 18}","[5, 14, 30, 45]",5814130104518,Zn10Si1B8Rh18
Sm5(SiB4)2,mp-1208836,0.0,5.17924129,0.01573210716666118,"{62: 5, 14: 2, 5: 8}","[5, 14, 62]",58142625,Sm5Si2B8
Tb5(SiB4)2,mp-1208405,0.0,5.41067905,0.0,"{65: 5, 14: 2, 5: 8}","[5, 14, 65]",58142655,Tb5Si2B8
Dy5(SiB4)2,mp-1212823,0.0,5.40296458,0.0,"{66: 5, 14: 2, 5: 8}","[5, 14, 66]",58142665,Dy5Si2B8
Ho5(SiB4)2,mp-1212227,0.0,5.35319377,0.0,"{67: 5, 14: 2, 5: 8}","[5, 14, 67]",58142675,Ho5Si2B8
B8P,mp-1228676,0.18459999999999965,5.48078979,0.15062764537037054,"{5: 8, 15: 1}","[5, 15]",58151,B8P1
ScZn10(B4Rh9)2,mp-1209559,0.0,5.71373226,0.0363188051468466,"{21: 1, 30: 10, 5: 8, 45: 18}","[5, 21, 30, 45]",5821130104518,Sc1Zn10B8Rh18
HoSc(BRh)8,mp-1223895,0.0,6.85799357,0.03726988188888569,"{67: 1, 21: 1, 5: 8, 45: 8}","[5, 21, 45, 67]",58211458671,Ho1Sc1B8Rh8
ThSc(BRh)8,mp-1217330,0.0,7.41356461,0.05519319052777494,"{90: 1, 21: 1, 5: 8, 45: 8}","[5, 21, 45, 90]",58211458901,Th1Sc1B8Rh8
Sc8B8As3Rh20,mp-1219413,0.0,6.88811667,0.0,"{21: 8, 5: 8, 33: 3, 45: 20}","[5, 21, 33, 45]",582183334520,Sc8B8As3Rh20
TiZn10(B4Rh9)2,mp-1208284,0.0,5.86057618,0.025133943236568257,"{22: 1, 30: 10, 5: 8, 45: 18}","[5, 22, 30, 45]",5822130104518,Ti1Zn10B8Rh18
Ti7B8(IrRh2)2,mp-1217063,0.0,7.89428028,0.06228198291760556,"{22: 7, 5: 8, 77: 2, 45: 4}","[5, 22, 45, 77]",58227454772,Ti7B8Ir2Rh4
Ti8Cr3(B4Ru9)2,mp-1217552,0.0,7.57539997,0.0014082129054067138,"{22: 8, 24: 3, 5: 8, 44: 18}","[5, 22, 24, 44]",582282434418,Ti8Cr3B8Ru18
Ti8Mn3(B4Ru9)2,mp-1217647,0.0,7.55478816,0.0003925843120367034,"{22: 8, 25: 3, 5: 8, 44: 18}","[5, 22, 25, 44]",582282534418,Ti8Mn3B8Ru18
Ti9Mn2(B4Ru9)2,mp-1197511,0.0,7.56727181,0.0,"{22: 9, 25: 2, 5: 8, 44: 18}","[5, 22, 25, 44]",582292524418,Ti9Mn2B8Ru18
Ti9Co2(B4Ru9)2,mp-1200174,0.0,7.51164229,0.021227223603604628,"{22: 9, 27: 2, 5: 8, 44: 18}","[5, 22, 27, 44]",582292724418,Ti9Co2B8Ru18
V11ReB8,mp-1216792,0.0,7.18218593,0.009393375000000148,"{23: 11, 75: 1, 5: 8}","[5, 23, 75]",582311751,V11Re1B8
VZn10(B4Rh9)2,mp-1207904,0.0,5.81291168,0.02607994073183484,"{23: 1, 30: 10, 5: 8, 45: 18}","[5, 23, 30, 45]",5823130104518,V1Zn10B8Rh18
V3Cr3B8,mp-1216493,0.0,8.40189103,0.006059984642854843,"{23: 3, 24: 3, 5: 8}","[5, 23, 24]",58233243,V3Cr3B8
Nb3V5(B2Ir)4,mp-1220611,0.0,7.9383973,0.07303638811111668,"{41: 3, 23: 5, 5: 8, 77: 4}","[5, 23, 41, 77]",58235413774,Nb3V5B8Ir4
V9Cr3B8,mp-1216445,0.0,7.25365362,0.01781422050000714,"{23: 9, 24: 3, 5: 8}","[5, 23, 24]",58239243,V9Cr3B8
Zn10Cr(B4Rh9)2,mp-1207569,0.0,5.70798608,0.025561786087584082,"{30: 10, 24: 1, 5: 8, 45: 18}","[5, 24, 30, 45]",5824130104518,Zn10Cr1B8Rh18
Mn3Cr3B8,mp-1221771,0.0,8.27979715,0.060222546071429406,"{25: 3, 24: 3, 5: 8}","[5, 24, 25]",58243253,Mn3Cr3B8
MnZn10(B4Rh9)2,mp-1211205,0.0,5.69179126,0.007623332485666268,"{25: 1, 30: 10, 5: 8, 45: 18}","[5, 25, 30, 45]",5825130104518,Mn1Zn10B8Rh18
Mn3B8Mo3,mp-1221919,0.0,8.88689249,0.027957510892857584,"{25: 3, 5: 8, 42: 3}","[5, 25, 42]",58253423,Mn3B8Mo3
Zn10Co(B4Rh9)2,mp-1207661,0.0,5.71082758,0.017190576056512086,"{30: 10, 27: 1, 5: 8, 45: 18}","[5, 27, 30, 45]",5827130104518,Zn10Co1B8Rh18
Zn10Ge(B4Rh9)2,mp-1207543,0.0,5.89189116,0.0,"{30: 10, 32: 1, 5: 8, 45: 18}","[5, 30, 32, 45]",5830103214518,Zn10Ge1B8Rh18
Zn10Sn(B4Rh9)2,mp-1207643,0.0,6.04446564,0.013386559054056946,"{30: 10, 50: 1, 5: 8, 45: 18}","[5, 30, 45, 50]",5830104518501,Zn10Sn1B8Rh18
Zn11(B4Rh9)2,mp-1207530,0.0,5.65654813,0.0,"{30: 11, 5: 8, 45: 18}","[5, 30, 45]",5830114518,Zn11B8Rh18
Sr2B8Ru7,mp-649084,0.0,6.29287364,0.0,"{38: 2, 5: 8, 44: 7}","[5, 38, 44]",58382447,Sr2B8Ru7
Nb7(B4Ru3)2,mp-1191941,0.0,7.44997882,0.0,"{41: 7, 5: 8, 44: 6}","[5, 41, 44]",58417446,Nb7B8Ru6
B8Ru11,mp-505535,0.0,8.86890146,0.09158099543859777,"{5: 8, 44: 11}","[5, 44]",584411,B8Ru11
Ta7(B4Ru3)2,mp-1191981,0.0,8.01285971,0.0,"{73: 7, 5: 8, 44: 6}","[5, 44, 73]",58446737,Ta7B8Ru6
LuTh(BRh)8,mp-1222318,0.0,7.39350143,0.03349157922221835,"{71: 1, 90: 1, 5: 8, 45: 8}","[5, 45, 71, 90]",58458711901,Lu1Th1B8Rh8
B84O11,mp-758800,2.5780000000000003,4.8982451,0.01966110052631631,"{5: 84, 8: 11}","[5, 8]",584811,B84O11
CeThB8,mp-1226547,0.0,8.3882753,0.0,"{58: 1, 90: 1, 5: 8}","[5, 58, 90]",58581901,Ce1Th1B8
CeUB8,mp-1226540,0.0,9.29135194,0.010637646250014399,"{58: 1, 92: 1, 5: 8}","[5, 58, 92]",58581921,Ce1U1B8
LuUB8,mp-1222258,0.0,8.24212315,0.0195429034999961,"{71: 1, 92: 1, 5: 8}","[5, 71, 92]",58711921,Lu1U1B8
Ce15B8N25,mp-28370,0.0,8.36038587,0.0,"{58: 15, 5: 8, 7: 25}","[5, 7, 58]",587255815,Ce15B8N25
B8O,mp-1228685,2.2645,5.07141953,0.020174279074073986,"{5: 8, 8: 1}","[5, 8]",5881,B8O1
Na2B8O13,mp-542300,5.4478,-0.14020065,0.0,"{11: 2, 5: 8, 8: 13}","[5, 8, 11]",58813112,Na2B8O13
SrB8O13,mp-684018,5.5745000000000005,5.87730536,0.0,"{38: 1, 5: 8, 8: 13}","[5, 8, 38]",58813381,Sr1B8O13
Ag2B8O13,mp-554873,3.2651,0.52025417,0.0,"{47: 2, 5: 8, 8: 13}","[5, 8, 47]",58813472,Ag2B8O13
MgMn2(B4O7)2,mp-1234300,0.40700000000000003,5.51266975,0.24356500791190427,"{12: 1, 25: 2, 5: 8, 8: 14}","[5, 8, 12, 25]",58814121252,Mg1Mn2B8O14
K3AlB8O15,mp-561447,4.9962,-1.00736155,0.0,"{19: 3, 13: 1, 5: 8, 8: 15}","[5, 8, 13, 19]",58815131193,K3Al1B8O15
CaB8O15,mp-1200314,0.0,-0.87965819,0.16641863215280317,"{20: 1, 5: 8, 8: 15}","[5, 8, 20]",58815201,Ca1B8O15
Ca2B8O15,mp-1214238,0.19229999999999992,0.54727609,0.06524792135000723,"{20: 2, 5: 8, 8: 15}","[5, 8, 20]",58815202,Ca2B8O15
SrB8O15,mp-1196359,0.0,-1.06276145,0.16214148869789824,"{38: 1, 5: 8, 8: 15}","[5, 8, 38]",58815381,Sr1B8O15
La2B8O15,mp-1019892,4.385699999999999,4.77092092,0.022939711999994117,"{57: 2, 5: 8, 8: 15}","[5, 8, 57]",58815572,La2B8O15
Ce2B8O15,mp-1019592,0.1048,7.62254609,0.02681244466666577,"{58: 2, 5: 8, 8: 15}","[5, 8, 58]",58815582,Ce2B8O15
Nd2B8O15,mp-1194942,5.2515,3.445829,0.02564946381666644,"{60: 2, 5: 8, 8: 15}","[5, 8, 60]",58815602,Nd2B8O15
B8PbO15,mp-1201012,0.0,-0.11523549,0.15393849652777813,"{5: 8, 82: 1, 8: 15}","[5, 8, 82]",58815821,B8Pb1O15
Bi2B8O15,mp-542931,4.347700000000001,0.83223215,0.0026988406666692555,"{83: 2, 5: 8, 8: 15}","[5, 8, 83]",58815832,Bi2B8O15
Tl4B8O17,mp-1179277,0.46709999999999996,0.89569746,0.0875876453017348,"{81: 4, 5: 8, 8: 17}","[5, 8, 81]",58817814,Tl4B8O17
UB8O17,mp-1200475,0.3199,-0.371528,0.144937324487179,"{92: 1, 5: 8, 8: 17}","[5, 8, 92]",58817921,U1B8O17
NpB8O17,mp-1197731,0.1041,-0.12922949,0.11766272943911105,"{93: 1, 5: 8, 8: 17}","[5, 8, 93]",58817931,Np1B8O17
Th4Mg(B2O5)4,mp-1233955,1.2617000000000003,5.36011303,0.15220871538825698,"{90: 4, 12: 1, 5: 8, 8: 20}","[5, 8, 12, 90]",58820121904,Th4Mg1B8O20
CeB8ClO20,mp-1202093,0.0,-0.70192452,0.1601413080138867,"{58: 1, 5: 8, 17: 1, 8: 20}","[5, 8, 17, 58]",58820171581,Ce1B8Cl1O20
Na3La9B8O27,mp-6760,4.0102,4.46191785,0.0,"{11: 3, 57: 9, 5: 8, 8: 27}","[5, 8, 11, 57]",58827113579,Na3La9B8O27
Na3Nd9B8O27,mp-1210255,3.9569,2.26225438,0.0,"{11: 3, 60: 9, 5: 8, 8: 27}","[5, 8, 11, 60]",58827113609,Na3Nd9B8O27
Na3Sm9B8O27,mp-1210282,4.048399999999999,2.26806002,0.003137375226058836,"{11: 3, 62: 9, 5: 8, 8: 27}","[5, 8, 11, 62]",58827113629,Na3Sm9B8O27
Na3Eu9B8O27,mp-1210643,0.0,1.92455134,0.10856775188834789,"{11: 3, 63: 9, 5: 8, 8: 27}","[5, 8, 11, 63]",58827113639,Na3Eu9B8O27
Nd13Mg2Si4B8O43,mp-1196647,0.0,2.16490578,0.12514200149999333,"{60: 13, 12: 2, 14: 4, 5: 8, 8: 43}","[5, 8, 12, 14, 60]",588431221446013,Nd13Mg2Si4B8O43
La26B8O51,mp-759763,3.4409,4.95163981,0.0,"{57: 26, 5: 8, 8: 51}","[5, 8, 57]",588515726,La26B8O51
Cd12Ge17(B4O29)2,mp-1204954,0.00010000000000021103,3.60354385,0.0007592856052642816,"{48: 12, 32: 17, 5: 8, 8: 58}","[5, 8, 32, 48]",5885832174812,Cd12Ge17B8O58
ThUB8,mp-1217340,0.0,9.34852549,0.014681677250010239,"{90: 1, 92: 1, 5: 8}","[5, 90, 92]",58901921,Th1U1B8
NaB9Se8,mp-640950,1.9422000000000001,1.2482763,0.0,"{11: 1, 5: 9, 34: 8}","[5, 11, 34]",59111348,Na1B9Se8
Na4(BSe)9,mp-31229,2.2101,1.14063569,0.0,"{11: 4, 5: 9, 34: 9}","[5, 11, 34]",59114349,Na4B9Se9
Rb4(BS)9,mp-31060,3.1228000000000002,0.89747148,0.0,"{37: 4, 5: 9, 16: 9}","[5, 16, 37]",59169374,Rb4B9S9
Cs4(BS)9,mp-1200467,3.2401,0.84745455,0.0,"{55: 4, 5: 9, 16: 9}","[5, 16, 55]",59169554,Cs4B9S9
K4(BSe)9,mp-680747,2.1626,0.69278239,0.0,"{19: 4, 5: 9, 34: 9}","[5, 19, 34]",59194349,K4B9Se9
Rb2Hg(BSe)9,mp-541819,1.8296999999999999,0.64787354,0.0,"{37: 2, 80: 1, 5: 9, 34: 9}","[5, 34, 37, 80]",59349372801,Rb2Hg1B9Se9
Rb4(BSe)9,mp-541818,2.1943,0.84687376,0.0,"{37: 4, 5: 9, 34: 9}","[5, 34, 37]",59349374,Rb4B9Se9
Cs2Hg(BSe)9,mp-1202194,1.8712,2.61715112,0.0,"{55: 2, 80: 1, 5: 9, 34: 9}","[5, 34, 55, 80]",59349552801,Cs2Hg1B9Se9
Cs4(BSe)9,mp-1198415,2.5433,0.72886693,0.0,"{55: 4, 5: 9, 34: 9}","[5, 34, 55]",59349554,Cs4B9Se9
B9N,mp-1079812,0.0,-3.95212226,2.5268346841666673,"{5: 9, 7: 1}","[5, 7]",5971,B9N1
MgB9N,mp-30091,1.6752999999999991,5.65348591,0.0,"{12: 1, 5: 9, 7: 1}","[5, 7, 12]",5971121,Mg1B9N1
CsB9O13,mp-531006,3.1242,0.79251877,0.10143650616172373,"{55: 1, 5: 9, 8: 13}","[5, 8, 55]",59813551,Cs1B9O13
CsB9O14,mp-680683,5.4514,-0.93998189,0.0062481263368034945,"{55: 1, 5: 9, 8: 14}","[5, 8, 55]",59814551,Cs1B9O14
K2Na(B3O5)3,mp-558293,5.062,-0.28556623,0.0,"{19: 2, 11: 1, 5: 9, 8: 15}","[5, 8, 11, 19]",59815111192,K2Na1B9O15
Nd(BO2)9,mp-1200214,0.02510000000000001,-0.28220813,0.18428706649553117,"{60: 1, 5: 9, 8: 18}","[5, 8, 60]",59818601,Nd1B9O18
B9Pb8O21F,mp-1182634,3.4333000000000005,2.64762756,0.0,"{5: 9, 82: 8, 8: 21, 9: 1}","[5, 8, 9, 82]",5982191828,B9Pb8O21F1
U2B9O22,mp-1217131,0.07229999999999998,0.31916414,0.12842716897727513,"{92: 2, 5: 9, 8: 22}","[5, 8, 92]",59822922,U2B9O22