formula,material_id,band_gap,efermi,energy_above_hull,comp_atoms,sorted_keys_comp_atoms,comp_number,new_formula
Ce6Ge9(BO15)2,mp-683922,0.18230000000000057,7.83270345,0.10577165606382977,"{58: 6, 32: 9, 5: 2, 8: 30}","[5, 8, 32, 58]",52830329586,Ce6Ge9B2O30
Bi24B2O39,mp-775842,2.0694999999999997,4.77866042,0.057407314423079114,"{83: 24, 5: 2, 8: 39}","[5, 8, 83]",528398324,Bi24B2O39
LaB2ClO4,mp-559417,4.154100000000001,2.63125323,0.0,"{57: 1, 5: 2, 17: 1, 8: 4}","[5, 8, 17, 57]",5284171571,La1B2Cl1O4
CeB2ClO4,mp-556519,0.13450000000000006,5.30898349,0.019833054374990056,"{58: 1, 5: 2, 17: 1, 8: 4}","[5, 8, 17, 58]",5284171581,Ce1B2Cl1O4
PrB2ClO4,mp-556450,5.0695,1.44743554,0.0,"{59: 1, 5: 2, 17: 1, 8: 4}","[5, 8, 17, 59]",5284171591,Pr1B2Cl1O4
Ca(BO2)2,mp-8056,6.020300000000001,1.29058836,0.0,"{20: 1, 5: 2, 8: 4}","[5, 8, 20]",5284201,Ca1B2O4
Mn(BO2)2,mp-1199954,4.4584,7.99127579,0.04017187789285437,"{25: 1, 5: 2, 8: 4}","[5, 8, 25]",5284251,Mn1B2O4
Co(BO2)2,mp-1104788,2.0693999999999995,3.50767886,0.1587548599206361,"{27: 1, 5: 2, 8: 4}","[5, 8, 27]",5284271,Co1B2O4
Sr(BO2)2,mp-9749,4.9456,0.36734952,0.0,"{38: 1, 5: 2, 8: 4}","[5, 8, 38]",5284381,Sr1B2O4
B2PdO4,mp-540900,0.7786,3.24578205,0.012453169047610402,"{5: 2, 46: 1, 8: 4}","[5, 8, 46]",5284461,B2Pd1O4
Cd(BO2)2,mp-778103,3.3861,0.93924344,0.027266702321432135,"{48: 1, 5: 2, 8: 4}","[5, 8, 48]",5284481,Cd1B2O4
Eu(BO2)2,mp-540879,0.29029999999999934,5.0099785,0.0,"{63: 1, 5: 2, 8: 4}","[5, 8, 63]",5284631,Eu1B2O4
LaB2O4F,mp-1198007,4.9384,7.0298739,0.005847459440962766,"{57: 1, 5: 2, 8: 4, 9: 1}","[5, 8, 9, 57]",528491571,La1B2O4F1
CeB2O4F,mp-1199150,0.2384000000000004,5.44774646,0.023007321753464538,"{58: 1, 5: 2, 8: 4, 9: 1}","[5, 8, 9, 58]",528491581,Ce1B2O4F1
BiB2O4F,mp-558753,4.1919,2.95894464,0.0007315004166699168,"{83: 1, 5: 2, 8: 4, 9: 1}","[5, 8, 9, 83]",528491831,Bi1B2O4F1
NaScB2O5,mp-555447,4.9235999999999995,0.83891793,0.0,"{11: 1, 21: 1, 5: 2, 8: 5}","[5, 8, 11, 21]",5285111211,Na1Sc1B2O5
Na4B2O5,mp-27564,3.6854,0.93927927,0.0,"{11: 4, 5: 2, 8: 5}","[5, 8, 11]",5285114,Na4B2O5
CaMgB2O5,mp-6585,5.311999999999999,1.93629679,0.0019687802777799135,"{20: 1, 12: 1, 5: 2, 8: 5}","[5, 8, 12, 20]",5285121201,Ca1Mg1B2O5
MgMnB2O5,mp-1222009,3.3863,2.89849745,0.0,"{12: 1, 25: 1, 5: 2, 8: 5}","[5, 8, 12, 25]",5285121251,Mg1Mn1B2O5
SrMgB2O5,mp-1020634,4.6961,1.46463589,0.0,"{38: 1, 12: 1, 5: 2, 8: 5}","[5, 8, 12, 38]",5285121381,Sr1Mg1B2O5
Mg2B2O5,mp-18256,5.1536,2.07333036,0.0,"{12: 2, 5: 2, 8: 5}","[5, 8, 12]",5285122,Mg2B2O5
Si2B2O5,mp-972793,0.0,8.19262314,1.9173956394444467,"{14: 2, 5: 2, 8: 5}","[5, 8, 14]",5285142,Si2B2O5
Er2B2Cl2O5,mp-556986,5.0806000000000004,-0.76216487,0.0,"{68: 2, 5: 2, 17: 2, 8: 5}","[5, 8, 17, 68]",5285172682,Er2B2Cl2O5
CaMnB2O5,mp-555385,1.5225,5.8032625,0.004514961527764427,"{20: 1, 25: 1, 5: 2, 8: 5}","[5, 8, 20, 25]",5285201251,Ca1Mn1B2O5
Ca2B2O5,mp-1019560,4.7075000000000005,1.27678486,0.0,"{20: 2, 5: 2, 8: 5}","[5, 8, 20]",5285202,Ca2B2O5
MnCoB2O5,mp-1221788,2.5223999999999998,2.50107672,0.11982056374074723,"{25: 1, 27: 1, 5: 2, 8: 5}","[5, 8, 25, 27]",5285251271,Mn1Co1B2O5
Co2B2O5,mp-510055,0.0,3.50210252,0.22321266802469175,"{27: 2, 5: 2, 8: 5}","[5, 8, 27]",5285272,Co2B2O5
ZnCdB2O5,mp-1207444,2.7413000000000003,3.44640356,0.01976086638888752,"{30: 1, 48: 1, 5: 2, 8: 5}","[5, 8, 30, 48]",5285301481,Zn1Cd1B2O5
SrCdB2O5,mp-1195626,3.5305999999999997,1.16383047,0.0,"{38: 1, 48: 1, 5: 2, 8: 5}","[5, 8, 38, 48]",5285381481,Sr1Cd1B2O5
Sr2B2O5,mp-5401,4.283,0.91223051,0.0,"{38: 2, 5: 2, 8: 5}","[5, 8, 38]",5285382,Sr2B2O5
ZrB2O5,mp-559571,3.5293,3.29855948,0.0,"{40: 1, 5: 2, 8: 5}","[5, 8, 40]",5285401,Zr1B2O5
Cd2B2O5,mp-7210,2.4657,0.5628616,0.0,"{48: 2, 5: 2, 8: 5}","[5, 8, 48]",5285482,Cd2B2O5
B2TeO5,mp-768235,3.15,0.50786888,0.062019125833328914,"{5: 2, 52: 1, 8: 5}","[5, 8, 52]",5285521,B2Te1O5
Eu2B2O5,mp-1212596,0.08190000000000008,4.8583227,0.0,"{63: 2, 5: 2, 8: 5}","[5, 8, 63]",5285632,Eu2B2O5
HfB2O5,mp-559617,4.4146,3.50507361,0.0,"{72: 1, 5: 2, 8: 5}","[5, 8, 72]",5285721,Hf1B2O5
TlB2O5,mp-731996,1.2792999999999999,0.07858848,0.3219089726302098,"{81: 1, 5: 2, 8: 5}","[5, 8, 81]",5285811,Tl1B2O5
B2Pb2O5,mp-1192421,2.719,3.43233441,0.0006048655026260619,"{5: 2, 82: 2, 8: 5}","[5, 8, 82]",5285822,B2Pb2O5
BiB2O5,mp-768314,0.0,1.85808819,0.09024721291666626,"{83: 1, 5: 2, 8: 5}","[5, 8, 83]",5285831,Bi1B2O5
ThB2O5,mp-28641,4.8178,1.60202761,0.009179928750000954,"{90: 1, 5: 2, 8: 5}","[5, 8, 90]",5285901,Th1B2O5
Na3B2PO5F4,mp-1197849,5.6152999999999995,-0.04964214,0.0,"{11: 3, 5: 2, 15: 1, 8: 5, 9: 4}","[5, 8, 9, 11, 15]",528594113151,Na3B2P1O5F4
Na3Sc(BO3)2,mp-1191513,3.6398,1.66262304,0.0,"{11: 3, 21: 1, 5: 2, 8: 6}","[5, 8, 11, 21]",5286113211,Na3Sc1B2O6
Na3V(BO3)2,mp-773603,1.7706999999999997,4.11535807,0.045934500208325346,"{11: 3, 23: 1, 5: 2, 8: 6}","[5, 8, 11, 23]",5286113231,Na3V1B2O6
Na3Cr(BO3)2,mp-773526,2.4378999999999995,4.46384307,0.04232076833333309,"{11: 3, 24: 1, 5: 2, 8: 6}","[5, 8, 11, 24]",5286113241,Na3Cr1B2O6
Na3Mn(BO3)2,mp-773605,1.2168,1.53186493,0.03499961124997508,"{11: 3, 25: 1, 5: 2, 8: 6}","[5, 8, 11, 25]",5286113251,Na3Mn1B2O6
Na3Co(BO3)2,mp-773604,0.9759000000000002,2.18776977,0.09958875798610123,"{11: 3, 27: 1, 5: 2, 8: 6}","[5, 8, 11, 27]",5286113271,Na3Co1B2O6
Na3La(BO3)2,mp-1210472,3.7482,1.85555694,0.0,"{11: 3, 57: 1, 5: 2, 8: 6}","[5, 8, 11, 57]",5286113571,Na3La1B2O6
Na3Nd(BO3)2,mp-558805,4.1712,1.07253854,0.0,"{11: 3, 60: 1, 5: 2, 8: 6}","[5, 8, 11, 60]",5286113601,Na3Nd1B2O6
Na3Bi(BO3)2,mp-775830,3.1380999999999997,1.621331,0.016138378333332426,"{11: 3, 83: 1, 5: 2, 8: 6}","[5, 8, 11, 83]",5286113831,Na3Bi1B2O6
MgMn2(BO3)2,mp-2240029,2.5246000000000004,2.68696944,0.0556352044318178,"{12: 1, 25: 2, 5: 2, 8: 6}","[5, 8, 12, 25]",5286121252,Mg1Mn2B2O6
MgCo2(BO3)2,mp-2217796,2.3709,1.47809761,0.2999091498484905,"{12: 1, 27: 2, 5: 2, 8: 6}","[5, 8, 12, 27]",5286121272,Mg1Co2B2O6
Sr2Mg(BO3)2,mp-13541,4.579700000000001,2.47785364,0.0,"{38: 2, 12: 1, 5: 2, 8: 6}","[5, 8, 12, 38]",5286121382,Sr2Mg1B2O6
MgSn(BO3)2,mp-11715,3.6229999999999998,3.44967299,0.0,"{12: 1, 50: 1, 5: 2, 8: 6}","[5, 8, 12, 50]",5286121501,Mg1Sn1B2O6
Mg3(BO3)2,mp-5005,5.143,2.68730421,0.0,"{12: 3, 5: 2, 8: 6}","[5, 8, 12]",5286123,Mg3B2O6
Ce3B2(ClO2)3,mp-680695,0.0,6.489144,0.0,"{58: 3, 5: 2, 17: 3, 8: 6}","[5, 8, 17, 58]",5286173583,Ce3B2Cl3O6
KNb(BO3)2,mp-1200391,3.5488,-0.24841636,0.0001278383399085925,"{19: 1, 41: 1, 5: 2, 8: 6}","[5, 8, 19, 41]",5286191411,K1Nb1B2O6
KB2SbO6,mp-1105367,2.9208000000000007,4.18158,0.004042440070184838,"{19: 1, 5: 2, 51: 1, 8: 6}","[5, 8, 19, 51]",5286191511,K1B2Sb1O6
KTa(BO3)2,mp-555150,3.6136,-0.09645787,0.0,"{19: 1, 73: 1, 5: 2, 8: 6}","[5, 8, 19, 73]",5286191731,K1Ta1B2O6
K2Zr(BO3)2,mp-8891,3.4092,1.06384504,0.0,"{19: 2, 40: 1, 5: 2, 8: 6}","[5, 8, 19, 40]",5286192401,K2Zr1B2O6
K3Nd(BO3)2,mp-1211700,3.3697000000000004,0.82502275,0.0,"{19: 3, 60: 1, 5: 2, 8: 6}","[5, 8, 19, 60]",5286193601,K3Nd1B2O6
K3Sm(BO3)2,mp-559574,3.4183,0.89003016,0.0,"{19: 3, 62: 1, 5: 2, 8: 6}","[5, 8, 19, 62]",5286193621,K3Sm1B2O6
K3Gd(BO3)2,mp-1211764,2.6966,0.82468933,0.0,"{19: 3, 64: 1, 5: 2, 8: 6}","[5, 8, 19, 64]",5286193641,K3Gd1B2O6
K3Tb(BO3)2,mp-1211631,3.2054,0.83727488,0.0,"{19: 3, 65: 1, 5: 2, 8: 6}","[5, 8, 19, 65]",5286193651,K3Tb1B2O6
K3Lu(BO3)2,mp-1211659,3.2916000000000003,0.90874153,0.0,"{19: 3, 71: 1, 5: 2, 8: 6}","[5, 8, 19, 71]",5286193711,K3Lu1B2O6
Ca(BO3)2,mp-1105926,0.0,-0.45335727,0.32286967611111095,"{20: 1, 5: 2, 8: 6}","[5, 8, 20]",5286201,Ca1B2O6
CaSn(BO3)2,mp-14398,3.7069,2.68540331,0.0,"{20: 1, 50: 1, 5: 2, 8: 6}","[5, 8, 20, 50]",5286201501,Ca1Sn1B2O6
Ca3(BO3)2,mp-3575,4.8224,2.06670923,0.0,"{20: 3, 5: 2, 8: 6}","[5, 8, 20]",5286203,Ca3B2O6
HoSc(BO3)2,mp-1223873,4.4611,1.80810308,0.009991754999973068,"{67: 1, 21: 1, 5: 2, 8: 6}","[5, 8, 21, 67]",5286211671,Ho1Sc1B2O6
ErSc(BO3)2,mp-1225475,4.449,1.80563561,0.009516492499995977,"{68: 1, 21: 1, 5: 2, 8: 6}","[5, 8, 21, 68]",5286211681,Er1Sc1B2O6
TmSc(BO3)2,mp-1216586,4.434699999999999,1.8359155,0.0,"{69: 1, 21: 1, 5: 2, 8: 6}","[5, 8, 21, 69]",5286211691,Tm1Sc1B2O6
LuSc(BO3)2,mp-1222283,4.4627,1.83024519,0.0,"{71: 1, 21: 1, 5: 2, 8: 6}","[5, 8, 21, 71]",5286211711,Lu1Sc1B2O6
MnSn(BO3)2,mp-22213,2.5711,3.71530891,0.0,"{25: 1, 50: 1, 5: 2, 8: 6}","[5, 8, 25, 50]",5286251501,Mn1Sn1B2O6
Mn3(BO3)2,mp-19185,2.0333,3.41515292,0.0,"{25: 3, 5: 2, 8: 6}","[5, 8, 25]",5286253,Mn3B2O6
Co3(BO3)2,mp-22632,0.0,3.61529336,0.0,"{27: 3, 5: 2, 8: 6}","[5, 8, 27]",5286273,Co3B2O6
Zn2Cd(BO3)2,mp-1215713,2.4333,0.74300542,0.029410600227270933,"{30: 2, 48: 1, 5: 2, 8: 6}","[5, 8, 30, 48]",5286302481,Zn2Cd1B2O6
Zn2B2PbO6,mp-560471,3.3261999999999996,0.95854183,0.0,"{30: 2, 5: 2, 82: 1, 8: 6}","[5, 8, 30, 82]",5286302821,Zn2B2Pb1O6
Zn3(BO3)2,mp-557683,2.7833,0.28284038,0.013102456060606116,"{30: 3, 5: 2, 8: 6}","[5, 8, 30]",5286303,Zn3B2O6
RbNb(BO3)2,mp-556808,3.1355,-0.35710246,0.0,"{37: 1, 41: 1, 5: 2, 8: 6}","[5, 8, 37, 41]",5286371411,Rb1Nb1B2O6
RbB2SbO6,mp-1209317,2.3667,3.44168203,0.04004284766667965,"{37: 1, 5: 2, 51: 1, 8: 6}","[5, 8, 37, 51]",5286371511,Rb1B2Sb1O6
RbTa(BO3)2,mp-1209097,3.4509000000000003,3.2197645,0.0,"{37: 1, 73: 1, 5: 2, 8: 6}","[5, 8, 37, 73]",5286371731,Rb1Ta1B2O6
SrSn(BO3)2,mp-8000,3.6177999999999995,2.19954216,0.0,"{38: 1, 50: 1, 5: 2, 8: 6}","[5, 8, 38, 50]",5286381501,Sr1Sn1B2O6
Sr3(BO3)2,mp-16432,4.398000000000001,1.35293907,0.0,"{38: 3, 5: 2, 8: 6}","[5, 8, 38]",5286383,Sr3B2O6
CsNb(BO3)2,mp-6257,3.2987,-0.09973721,0.0,"{55: 1, 41: 1, 5: 2, 8: 6}","[5, 8, 41, 55]",5286411551,Cs1Nb1B2O6
NbTl(BO3)2,mp-559057,3.4093,0.47954161,0.0,"{41: 1, 81: 1, 5: 2, 8: 6}","[5, 8, 41, 81]",5286411811,Nb1Tl1B2O6
Cd3(BO3)2,mp-5560,1.4576,1.44273313,0.0,"{48: 3, 5: 2, 8: 6}","[5, 8, 48]",5286483,Cd3B2O6
B2TeO6,mp-779332,2.5854999999999997,0.046384,0.08923299212963087,"{5: 2, 52: 1, 8: 6}","[5, 8, 52]",5286521,B2Te1O6
CsTa(BO3)2,mp-9309,3.4027,0.26326579,0.0,"{55: 1, 73: 1, 5: 2, 8: 6}","[5, 8, 55, 73]",5286551731,Cs1Ta1B2O6
Eu3(BO3)2,mp-505346,0.4588000000000001,5.11797073,0.0,"{63: 3, 5: 2, 8: 6}","[5, 8, 63]",5286633,Eu3B2O6
Hg3(BO3)2,mp-4710,2.629,-0.56912701,0.0,"{80: 3, 5: 2, 8: 6}","[5, 8, 80]",5286803,Hg3B2O6
KZn2CdB2O6F,mp-1192840,2.7164,0.13789096,0.0,"{19: 1, 30: 2, 48: 1, 5: 2, 8: 6, 9: 1}","[5, 8, 9, 19, 30, 48]",528691191302481,K1Zn2Cd1B2O6F1
U(BO3)2,mp-31013,2.266,0.52339836,0.0034899057407464795,"{92: 1, 5: 2, 8: 6}","[5, 8, 92]",5286921,U1B2O6
Sm3B2(O2F)3,mp-1208857,5.538399999999999,7.15323876,0.006883591785717513,"{62: 3, 5: 2, 8: 6, 9: 3}","[5, 8, 9, 62]",528693623,Sm3B2O6F3
Eu3B2(O2F)3,mp-1213384,0.0,0.94143243,0.006636492619049861,"{63: 3, 5: 2, 8: 6, 9: 3}","[5, 8, 9, 63]",528693633,Eu3B2O6F3
Gd3B2(O2F)3,mp-669375,2.8409000000000004,1.70492351,0.014843367619041814,"{64: 3, 5: 2, 8: 6, 9: 3}","[5, 8, 9, 64]",528693643,Gd3B2O6F3
Dy5B2(O2F3)3,mp-1203431,5.960999999999999,1.18508766,0.003921370113636691,"{66: 5, 5: 2, 8: 6, 9: 9}","[5, 8, 9, 66]",528699665,Dy5B2O6F9
Ho5B2(O2F3)3,mp-1203766,6.0236,7.15922696,0.017331564999998328,"{67: 5, 5: 2, 8: 6, 9: 9}","[5, 8, 9, 67]",528699675,Ho5B2O6F9
Er5B2(O2F3)3,mp-1199169,5.9864,7.07776999,0.022032946818185906,"{68: 5, 5: 2, 8: 6, 9: 9}","[5, 8, 9, 68]",528699685,Er5B2O6F9
Tm5B2(O2F3)3,mp-1199949,6.0317,7.17485947,0.0,"{69: 5, 5: 2, 8: 6, 9: 9}","[5, 8, 9, 69]",528699695,Tm5B2O6F9
Na2Al2B2O7,mp-554041,4.3384,0.6070832,0.0,"{11: 2, 13: 2, 5: 2, 8: 7}","[5, 8, 11, 13]",5287112132,Na2Al2B2O7
Na2Nd2B2O7,mp-1210464,4.421099999999999,6.01916646,0.0,"{11: 2, 60: 2, 5: 2, 8: 7}","[5, 8, 11, 60]",5287112602,Na2Nd2B2O7
Na2Sm2B2O7,mp-1210364,4.5183,6.09592726,0.0,"{11: 2, 62: 2, 5: 2, 8: 7}","[5, 8, 11, 62]",5287112622,Na2Sm2B2O7
Na2Eu2B2O7,mp-1210559,0.0037000000000000366,1.65955513,0.08713317942306276,"{11: 2, 63: 2, 5: 2, 8: 7}","[5, 8, 11, 63]",5287112632,Na2Eu2B2O7
Na2Gd2B2O7,mp-583646,2.8545,1.66449109,0.0,"{11: 2, 64: 2, 5: 2, 8: 7}","[5, 8, 11, 64]",5287112642,Na2Gd2B2O7
Na2Er2B2O7,mp-555104,4.3493,1.7752414,0.0,"{11: 2, 68: 2, 5: 2, 8: 7}","[5, 8, 11, 68]",5287112682,Na2Er2B2O7
MgB2O7,mp-1198135,0.0,-0.69840187,0.5105981125833257,"{12: 1, 5: 2, 8: 7}","[5, 8, 12]",5287121,Mg1B2O7
MgUB2O7,mp-557384,2.2225,1.02767963,0.0,"{12: 1, 92: 1, 5: 2, 8: 7}","[5, 8, 12, 92]",5287121921,Mg1U1B2O7
K2Al2B2O7,mp-560217,4.5949,0.08516108,0.0,"{19: 2, 13: 2, 5: 2, 8: 7}","[5, 8, 13, 19]",5287132192,K2Al2B2O7
CaAl2B2O7,mp-557689,4.8228,0.6123952,0.0,"{20: 1, 13: 2, 5: 2, 8: 7}","[5, 8, 13, 20]",5287132201,Ca1Al2B2O7
Rb2Al2B2O7,mp-559284,4.1788,0.33127506,0.0,"{37: 2, 13: 2, 5: 2, 8: 7}","[5, 8, 13, 37]",5287132372,Rb2Al2B2O7
SrAl2B2O7,mp-558669,4.6876999999999995,0.26801732,0.0,"{38: 1, 13: 2, 5: 2, 8: 7}","[5, 8, 13, 38]",5287132381,Sr1Al2B2O7
Cs2Al2B2O7,mp-1019602,4.2490000000000006,0.89327426,0.0,"{55: 2, 13: 2, 5: 2, 8: 7}","[5, 8, 13, 55]",5287132552,Cs2Al2B2O7
Ca2SiB2O7,mp-752851,5.6806,2.89556316,0.014285273472223636,"{20: 2, 14: 1, 5: 2, 8: 7}","[5, 8, 14, 20]",5287141202,Ca2Si1B2O7
K2Ga2B2O7,mp-561525,3.7999,-0.41009479,0.0,"{19: 2, 31: 2, 5: 2, 8: 7}","[5, 8, 19, 31]",5287192312,K2Ga2B2O7
K2La2B2O7,mp-1019777,4.2027,3.0659331,0.0,"{19: 2, 57: 2, 5: 2, 8: 7}","[5, 8, 19, 57]",5287192572,K2La2B2O7
CaGaBiB2O7,mp-1227107,3.6637000000000004,3.36783101,0.0,"{20: 1, 31: 1, 83: 1, 5: 2, 8: 7}","[5, 8, 20, 31, 83]",5287201311831,Ca1Ga1Bi1B2O7
CaBi2B2O7,mp-557371,3.1706,2.90075419,0.00906881197915066,"{20: 1, 83: 2, 5: 2, 8: 7}","[5, 8, 20, 83]",5287201832,Ca1Bi2B2O7
ZnBi2B2O7,mp-555880,2.5197999999999996,3.12582373,0.0,"{30: 1, 83: 2, 5: 2, 8: 7}","[5, 8, 30, 83]",5287301832,Zn1Bi2B2O7
Zn4B2O7,mp-686042,1.8634000000000002,0.02572981,0.08905654076923142,"{30: 4, 5: 2, 8: 7}","[5, 8, 30]",5287304,Zn4B2O7
Rb2Ga2B2O7,mp-560010,3.6744999999999997,-0.35432233,0.0,"{37: 2, 31: 2, 5: 2, 8: 7}","[5, 8, 31, 37]",5287312372,Rb2Ga2B2O7
SrGa2B2O7,mp-556046,3.9722,0.85821037,0.0,"{38: 1, 31: 2, 5: 2, 8: 7}","[5, 8, 31, 38]",5287312381,Sr1Ga2B2O7
Cs2Ga2B2O7,mp-556330,3.7986,0.16198838,0.0,"{55: 2, 31: 2, 5: 2, 8: 7}","[5, 8, 31, 55]",5287312552,Cs2Ga2B2O7
B2Se2O7,mp-558521,3.9417999999999997,0.64758017,0.0,"{5: 2, 34: 2, 8: 7}","[5, 8, 34]",5287342,B2Se2O7
SrBi2B2O7,mp-558323,2.804,3.15248196,0.010034433472216442,"{38: 1, 83: 2, 5: 2, 8: 7}","[5, 8, 38, 83]",5287381832,Sr1Bi2B2O7
B2Pb4O7,mp-1203040,2.4544999999999995,5.33179666,0.0,"{5: 2, 82: 4, 8: 7}","[5, 8, 82]",5287824,B2Pb4O7
Bi2B2O7,mp-756526,0.0,3.3337728,0.08709635325757681,"{83: 2, 5: 2, 8: 7}","[5, 8, 83]",5287832,Bi2B2O7
AlB2Pb6(OF)7,mp-1229224,2.963,3.1862658,0.04499987269927708,"{13: 1, 5: 2, 82: 6, 8: 7, 9: 7}","[5, 8, 9, 13, 82]",528797131826,Al1B2Pb6O7F7
MgNb2(BO4)2,mp-2219183,0.3564999999999996,6.16489953,0.2516495280563227,"{12: 1, 41: 2, 5: 2, 8: 8}","[5, 8, 12, 41]",5288121412,Mg1Nb2B2O8
Mg3Ti(BO4)2,mp-1222241,2.2988,2.88260726,0.012193285892826644,"{12: 3, 22: 1, 5: 2, 8: 8}","[5, 8, 12, 22]",5288123221,Mg3Ti1B2O8
MnAlB2(PbO4)2,mp-1221830,0.29110000000000014,4.26507281,0.0015288613392865358,"{25: 1, 13: 1, 5: 2, 82: 2, 8: 8}","[5, 8, 13, 25, 82]",5288131251822,Mn1Al1B2Pb2O8
CaSi2(BO4)2,mp-6419,5.6644000000000005,2.29934372,0.0010242946794907226,"{20: 1, 14: 2, 5: 2, 8: 8}","[5, 8, 14, 20]",5288142201,Ca1Si2B2O8
SrSi2(BO4)2,mp-6032,5.4873,1.9663824,0.0,"{38: 1, 14: 2, 5: 2, 8: 8}","[5, 8, 14, 38]",5288142381,Sr1Si2B2O8
Ca(BO4)2,mp-1181911,0.0,-1.02332952,0.5646572015909124,"{20: 1, 5: 2, 8: 8}","[5, 8, 20]",5288201,Ca1B2O8
TiCo3(BO4)2,mp-1217061,1.4874,3.20634634,0.23740784446428442,"{22: 1, 27: 3, 5: 2, 8: 8}","[5, 8, 22, 27]",5288221273,Ti1Co3B2O8
ZrCo3(BO4)2,mp-1215312,1.3204000000000002,2.9687773,0.3959380750000001,"{40: 1, 27: 3, 5: 2, 8: 8}","[5, 8, 27, 40]",5288273401,Zr1Co3B2O8
Nd2Ge(BO4)2,mp-1197137,4.5233,2.49273116,0.0,"{60: 2, 32: 1, 5: 2, 8: 8}","[5, 8, 32, 60]",5288321602,Nd2Ge1B2O8
Sm2Ge(BO4)2,mp-1203325,4.5889999999999995,6.75737545,0.0,"{62: 2, 32: 1, 5: 2, 8: 8}","[5, 8, 32, 62]",5288321622,Sm2Ge1B2O8
Eu2Ge(BO4)2,mp-1019739,0.0,2.19242846,0.02256442878205256,"{63: 2, 32: 1, 5: 2, 8: 8}","[5, 8, 32, 63]",5288321632,Eu2Ge1B2O8
Gd2Ge(BO4)2,mp-1196136,3.1837999999999997,5.34773133,0.01402926391024728,"{64: 2, 32: 1, 5: 2, 8: 8}","[5, 8, 32, 64]",5288321642,Gd2Ge1B2O8
Tb2Ge(BO4)2,mp-1204495,4.6023000000000005,6.93931249,0.0,"{65: 2, 32: 1, 5: 2, 8: 8}","[5, 8, 32, 65]",5288321652,Tb2Ge1B2O8
SrGe2(BO4)2,mp-1020611,3.8130999999999995,0.96462816,0.011907617115369362,"{38: 1, 32: 2, 5: 2, 8: 8}","[5, 8, 32, 38]",5288322381,Sr1Ge2B2O8
Sr(BO4)2,mp-1204298,0.2245999999999999,-1.22966695,0.5482555245454668,"{38: 1, 5: 2, 8: 8}","[5, 8, 38]",5288381,Sr1B2O8
Al4B2O9,mp-1247923,3.4532000000000003,6.69419999,0.2556826335769067,"{13: 4, 5: 2, 8: 9}","[5, 8, 13]",5289134,Al4B2O9
B2S2O9,mp-1019509,6.6956,0.06310031,0.0,"{5: 2, 16: 2, 8: 9}","[5, 8, 16]",5289162,B2S2O9
CaB2O9,mp-1182308,0.0,-0.77137902,0.6854814828124978,"{20: 1, 5: 2, 8: 9}","[5, 8, 20]",5289201,Ca1B2O9
Ga4B2O9,mp-1224948,2.6854999999999998,1.42401421,0.033512404666666384,"{31: 4, 5: 2, 8: 9}","[5, 8, 31]",5289314,Ga4B2O9
Pr2B2MoO9,mp-556474,3.3843,1.41695622,0.00875284803571219,"{59: 2, 5: 2, 42: 1, 8: 9}","[5, 8, 42, 59]",5289421592,Pr2B2Mo1O9
Bi4B2O9,mp-23356,2.8354,4.02982584,0.0,"{83: 4, 5: 2, 8: 9}","[5, 8, 83]",5289834,Bi4B2O9
CdB2XeF10,mp-559282,2.8874,-0.57728493,0.0,"{48: 1, 5: 2, 54: 1, 9: 10}","[5, 9, 48, 54]",52910481541,Cd1B2Xe1F10
Na2B29,mp-29953,0.0,4.71893179,0.05517210636774106,"{11: 2, 5: 29}","[5, 11]",529112,Na2B29
UB2,mp-1514,0.0,11.96911857,0.0,"{92: 1, 5: 2}","[5, 92]",52921,U1B2
B2F3,mp-1205212,2.4177,-2.13229024,0.1683912704791668,"{5: 2, 9: 3}","[5, 9]",5293,B2F3
NpB2,mp-1083,0.0,13.44838168,0.0,"{93: 1, 5: 2}","[5, 93]",52931,Np1B2
PuB2,mp-580,0.0,11.7119878,0.019714249583330457,"{94: 1, 5: 2}","[5, 94]",52941,Pu1B2
CaB2F8,mp-12146,8.3113,-3.32516401,0.0,"{20: 1, 5: 2, 9: 8}","[5, 9, 20]",5298201,Ca1B2F8
MnB2F8,mp-17727,3.6621,-1.0125069,0.0,"{25: 1, 5: 2, 9: 8}","[5, 9, 25]",5298251,Mn1B2F8
SrB2F8,mp-556106,8.145199999999999,-3.80044311,0.0,"{38: 1, 5: 2, 9: 8}","[5, 9, 38]",5298381,Sr1B2F8
CdB2F8,mp-557364,5.4624,-3.42247457,0.0,"{48: 1, 5: 2, 9: 8}","[5, 9, 48]",5298481,Cd1B2F8
Rb18Mg6B29O58F,mp-1200013,3.8247,0.06367341,0.0,"{37: 18, 12: 6, 5: 29, 8: 58, 9: 1}","[5, 8, 9, 12, 37]",529858911263718,Rb18Mg6B29O58F1
Ca(Er2B15)2,mp-1227415,0.0,6.33261623,0.04904243300000033,"{20: 1, 68: 4, 5: 30}","[5, 20, 68]",530201684,Ca1Er4B30
Ta11(Co52B15)2,mp-1217955,0.0,6.13349814,0.0,"{73: 11, 27: 104, 5: 30}","[5, 27, 73]",530271047311,Ta11Co104B30
Na4B3Cl,mp-1221191,0.0,0.91135005,1.5671004781616382,"{11: 4, 5: 3, 17: 1}","[5, 11, 17]",53114171,Na4B3Cl1
MgB3,mp-1222002,0.0,3.63554436,0.4735807987499996,"{12: 1, 5: 3}","[5, 12]",53121,Mg1B3
Mg4B3Ir2,mp-1222183,0.0,4.64577778,0.0,"{12: 4, 5: 3, 77: 2}","[5, 12, 77]",53124772,Mg4B3Ir2
SiB3,mp-569128,1.4080000000000004,5.28319771,0.0,"{14: 1, 5: 3}","[5, 14]",53141,Si1B3
Nb10(SiB)3,mp-1220752,0.0,6.16947639,0.01122228687499316,"{41: 10, 14: 3, 5: 3}","[5, 14, 41]",531434110,Nb10Si3B3
Si3B3W10,mp-1219326,0.0,8.66696538,0.0667655375000038,"{14: 3, 5: 3, 74: 10}","[5, 14, 74]",531437410,Si3B3W10
Tl3B3S10,mp-17823,1.8863000000000003,3.09136515,0.0,"{81: 3, 5: 3, 16: 10}","[5, 16, 81]",531610813,Tl3B3S10
La2B3Cl,mp-569121,0.0,8.40018995,0.0,"{57: 2, 5: 3, 17: 1}","[5, 17, 57]",53171572,La2B3Cl1
Pr2B3Cl,mp-567730,0.0,6.10824659,0.31130390630952043,"{59: 2, 5: 3, 17: 1}","[5, 17, 59]",53171592,Pr2B3Cl1
VCoB3,mp-10057,0.0,8.26970993,0.0,"{23: 1, 27: 1, 5: 3}","[5, 23, 27]",53231271,V1Co1B3
V2B3,mp-9208,0.0,8.4520879,0.0,"{23: 2, 5: 3}","[5, 23]",53232,V2B3
V5B3,mp-1188836,0.0,6.48645153,0.057914717187498965,"{23: 5, 5: 3}","[5, 23]",53235,V5B3
Cr2B3,mp-12054,0.0,8.80764971,0.045477424666666266,"{24: 2, 5: 3}","[5, 24]",53242,Cr2B3
Cr2(BW)3,mp-1226102,0.0,7.92252296,0.09659346937500146,"{24: 2, 5: 3, 74: 3}","[5, 24, 74]",53242743,Cr2B3W3
Cr2B3Os,mp-1226478,0.0,8.73972222,0.13699559375000092,"{24: 2, 5: 3, 76: 1}","[5, 24, 76]",53242761,Cr2B3Os1