formula,material_id,band_gap,efermi,energy_above_hull,comp_atoms,sorted_keys_comp_atoms,comp_number,new_formula
Sm3BWO9,mp-561186,3.8256999999999994,1.84037068,0.0,"{62: 3, 5: 1, 74: 1, 8: 9}","[5, 8, 62, 74]",5189623741,Sm3B1W1O9
Eu3BWO9,mp-556626,0.1843999999999999,1.91567955,0.048838674255950565,"{63: 3, 5: 1, 74: 1, 8: 9}","[5, 8, 63, 74]",5189633741,Eu3B1W1O9
Gd3BWO9,mp-561177,3.2389,1.85421734,0.006823297797611261,"{64: 3, 5: 1, 74: 1, 8: 9}","[5, 8, 64, 74]",5189643741,Gd3B1W1O9
Tb3BWO9,mp-557110,3.8011,2.12187776,0.0,"{65: 3, 5: 1, 74: 1, 8: 9}","[5, 8, 65, 74]",5189653741,Tb3B1W1O9
Dy3BWO9,mp-556997,3.7885999999999997,2.04952333,0.0032527067857213154,"{66: 3, 5: 1, 74: 1, 8: 9}","[5, 8, 66, 74]",5189663741,Dy3B1W1O9
Th3B,mp-979412,0.0,7.64040931,0.7365214943749976,"{90: 3, 5: 1}","[5, 90]",51903,Th3B1
TaCdBF10,mp-1198141,5.531,-3.52185772,0.0,"{73: 1, 48: 1, 5: 1, 9: 10}","[5, 9, 48, 73]",51910481731,Ta1Cd1B1F10
CdBiBF10,mp-1196929,2.0295,-3.02273254,0.0,"{48: 1, 83: 1, 5: 1, 9: 10}","[5, 9, 48, 83]",51910481831,Cd1Bi1B1F10
Sn5BF13,mp-28271,4.104,0.75668236,0.0,"{50: 5, 5: 1, 9: 13}","[5, 9, 50]",51913505,Sn5B1F13
BF2,mp-27864,4.8986,-3.24702119,0.12106801648148124,"{5: 1, 9: 2}","[5, 9]",5192,B1F2
K3Na4Si3BF22,mp-581403,6.9785,-2.2293661,0.0026891128535480036,"{19: 3, 11: 4, 14: 3, 5: 1, 9: 22}","[5, 9, 11, 14, 19]",51922114143193,K3Na4Si3B1F22
BF3,mp-27896,8.1347,-5.36991149,0.0,"{5: 1, 9: 3}","[5, 9]",5193,B1F3
Np3B,mp-1186194,0.0,17.31607267,0.44637181828124994,"{93: 3, 5: 1}","[5, 93]",51933,Np3B1
PuB,mp-2765,0.0,9.75904584,0.8177980396875029,"{94: 1, 5: 1}","[5, 94]",51941,Pu1B1
NaBF4,mp-3521,7.846299999999999,-3.27112384,0.0,"{11: 1, 5: 1, 9: 4}","[5, 9, 11]",5194111,Na1B1F4
KBF4,mp-4929,7.9399,-3.59933223,0.0,"{19: 1, 5: 1, 9: 4}","[5, 9, 19]",5194191,K1B1F4
RbBF4,mp-3032,7.737,-3.77526896,0.0,"{37: 1, 5: 1, 9: 4}","[5, 9, 37]",5194371,Rb1B1F4
AgBF4,mp-12021,3.157,-1.17094774,0.0,"{47: 1, 5: 1, 9: 4}","[5, 9, 47]",5194471,Ag1B1F4
InBF4,mp-8586,4.5332,-0.54562922,0.0,"{49: 1, 5: 1, 9: 4}","[5, 9, 49]",5194491,In1B1F4
CsBPb(IF2)2,mp-1004530,2.7223,0.42746591,0.06412045750000583,"{55: 1, 5: 1, 82: 1, 53: 2, 9: 4}","[5, 9, 53, 55, 82]",5194532551821,Cs1B1Pb1I2F4
CsBF4,mp-4057,7.6306,-3.55927816,0.0,"{55: 1, 5: 1, 9: 4}","[5, 9, 55]",5194551,Cs1B1F4
TlBF4,mp-30548,5.7585,-1.68503336,0.0,"{81: 1, 5: 1, 9: 4}","[5, 9, 81]",5194811,Tl1B1F4
AgBF5,mp-5160,0.0,-2.33476905,0.0,"{47: 1, 5: 1, 9: 5}","[5, 9, 47]",5195471,Ag1B1F5
BClF6,mp-23398,3.3471,-3.28428522,0.0,"{5: 1, 17: 1, 9: 6}","[5, 9, 17]",5196171,B1Cl1F6
TiTl2BF6,mp-1208163,0.0,4.20158262,0.6761161514166645,"{22: 1, 81: 2, 5: 1, 9: 6}","[5, 9, 22, 81]",5196221812,Ti1Tl2B1F6
BSF7,mp-27349,4.9968,-2.92552909,0.0,"{5: 1, 16: 1, 9: 7}","[5, 9, 16]",5197161,B1S1F7
Sn2BF7,mp-27430,4.0916,-0.26712183,0.0,"{50: 2, 5: 1, 9: 7}","[5, 9, 50]",5197502,Sn2B1F7
K5B19O31,mp-554996,5.3619,-0.6524003,0.0,"{19: 5, 5: 19, 8: 31}","[5, 8, 19]",519831195,K5B19O31
Rb5B19O31,mp-553925,5.2851,-0.65861563,0.0,"{37: 5, 5: 19, 8: 31}","[5, 8, 37]",519831375,Rb5B19O31
Sn3BF9,mp-27431,4.1353,0.48785844,0.0,"{50: 3, 5: 1, 9: 9}","[5, 9, 50]",5199503,Sn3B1F9
Na3B20,mp-262,0.0,3.73233764,0.0,"{11: 3, 5: 20}","[5, 11]",520113,Na3B20
Nb4B20Mo11,mp-1220650,0.0,9.12724567,0.015263905000001188,"{41: 4, 5: 20, 42: 11}","[5, 41, 42]",5204144211,Nb4B20Mo11
B20Ir4W5,mp-1228750,0.0,7.17544671,0.14648971909961617,"{5: 20, 77: 4, 74: 5}","[5, 74, 77]",520745774,B20Ir4W5
K3Na9Sr4(BO2)20,mp-1224320,4.4954,0.23625716,0.0009133017927505094,"{19: 3, 11: 9, 38: 4, 5: 20, 8: 40}","[5, 8, 11, 19, 38]",520840119193384,K3Na9Sr4B20O40
La4GdSc15(BO3)20,mp-1223571,2.1905,4.65593389,0.0005502588166930167,"{57: 4, 64: 1, 21: 15, 5: 20, 8: 60}","[5, 8, 21, 57, 64]",5208602115574641,La4Gd1Sc15B20O60
Na2B2S5,mp-29411,2.5898,1.46676219,0.0,"{11: 2, 5: 2, 16: 5}","[5, 11, 16]",52112165,Na2B2S5
Na2Zr12B2I5Cl23,mp-532604,1.0515000000000003,2.33445383,0.0,"{11: 2, 40: 12, 5: 2, 53: 5, 17: 23}","[5, 11, 17, 40, 53]",5211217234012535,Na2Zr12B2I5Cl23
Na2B2Se7,mp-5004,1.4882,1.73539161,0.0,"{11: 2, 5: 2, 34: 7}","[5, 11, 34]",52112347,Na2B2Se7
MgB2,mp-763,0.0,5.68073004,0.0,"{12: 1, 5: 2}","[5, 12]",52121,Mg1B2
Mg2AlB2Ir5,mp-865047,0.0,8.21240854,0.0,"{12: 2, 13: 1, 5: 2, 77: 5}","[5, 12, 13, 77]",52122131775,Mg2Al1B2Ir5
Mg2SiB2Ir5,mp-22250,0.0,9.17919437,0.0,"{12: 2, 14: 1, 5: 2, 77: 5}","[5, 12, 14, 77]",52122141775,Mg2Si1B2Ir5
Mg2TiB2Ir5,mp-1188988,0.0,7.7544503,0.0,"{12: 2, 22: 1, 5: 2, 77: 5}","[5, 12, 22, 77]",52122221775,Mg2Ti1B2Ir5
Mg2VB2Ir5,mp-1105469,0.0,7.97450106,0.0,"{12: 2, 23: 1, 5: 2, 77: 5}","[5, 12, 23, 77]",52122231775,Mg2V1B2Ir5
Mg2CrB2Ir5,mp-1189317,0.0,8.01883727,0.0,"{12: 2, 24: 1, 5: 2, 77: 5}","[5, 12, 24, 77]",52122241775,Mg2Cr1B2Ir5
Mg2MnB2Ir5,mp-1189623,0.0,7.83924346,0.0,"{12: 2, 25: 1, 5: 2, 77: 5}","[5, 12, 25, 77]",52122251775,Mg2Mn1B2Ir5
Mg2CoB2Ir5,mp-1106047,0.0,7.76030559,0.0,"{12: 2, 27: 1, 5: 2, 77: 5}","[5, 12, 27, 77]",52122271775,Mg2Co1B2Ir5
Mg2ZnB2Ir5,mp-865031,0.0,7.42837095,0.0,"{12: 2, 30: 1, 5: 2, 77: 5}","[5, 12, 30, 77]",52122301775,Mg2Zn1B2Ir5
Mg2GaB2Ir5,mp-1189749,0.0,7.61888086,0.0,"{12: 2, 31: 1, 5: 2, 77: 5}","[5, 12, 31, 77]",52122311775,Mg2Ga1B2Ir5
Mg2GeB2Rh5,mp-505693,0.0,6.72813913,0.0,"{12: 2, 32: 1, 5: 2, 45: 5}","[5, 12, 32, 45]",52122321455,Mg2Ge1B2Rh5
Mg2GeB2Ir5,mp-1106175,0.0,8.03454442,0.0,"{12: 2, 32: 1, 5: 2, 77: 5}","[5, 12, 32, 77]",52122321775,Mg2Ge1B2Ir5
Mg2B2AsIr5,mp-1105793,0.0,8.40806441,0.0,"{12: 2, 5: 2, 33: 1, 77: 5}","[5, 12, 33, 77]",52122331775,Mg2B2As1Ir5
Mg3B2Rh5,mp-1210641,0.0,5.82603033,0.0,"{12: 3, 5: 2, 45: 5}","[5, 12, 45]",52123455,Mg3B2Rh5
AlB2,mp-944,0.0,9.75031349,0.01683494079999992,"{13: 1, 5: 2}","[5, 13]",52131,Al1B2
Sc2AlB2Ir5,mp-1209025,0.0,8.57730239,0.0,"{21: 2, 13: 1, 5: 2, 77: 5}","[5, 13, 21, 77]",52131212775,Sc2Al1B2Ir5
Al(CrB)2,mp-7692,0.0,8.57388426,0.0,"{13: 1, 24: 2, 5: 2}","[5, 13, 24]",52131242,Al1Cr2B2
Mn2AlB2,mp-7892,0.0,8.72129842,0.0,"{25: 2, 13: 1, 5: 2}","[5, 13, 25]",52131252,Mn2Al1B2
La2Al(BOs)2,mp-1192652,0.0,8.48463279,0.0,"{57: 2, 13: 1, 5: 2, 76: 2}","[5, 13, 57, 76]",52131572762,La2Al1B2Os2
AlB2Pb,mp-631514,0.0,6.55738687,1.8132382933999978,"{13: 1, 5: 2, 82: 1}","[5, 13, 82]",52131821,Al1B2Pb1
Al2CrB2Mo,mp-1228929,0.0,9.21214402,0.03167611112318802,"{13: 2, 24: 1, 5: 2, 42: 1}","[5, 13, 24, 42]",52132241421,Al2Cr1B2Mo1
Al2B2Ru3,mp-29674,0.0,9.40978701,0.07941271785714754,"{13: 2, 5: 2, 44: 3}","[5, 13, 44]",52132443,Al2B2Ru3
Al3(BRu2)2,mp-541849,0.0,8.93865172,0.0,"{13: 3, 5: 2, 44: 4}","[5, 13, 44]",52133444,Al3B2Ru4
Sc2SiB2Ir5,mp-22014,0.0,8.77934457,0.0,"{21: 2, 14: 1, 5: 2, 77: 5}","[5, 14, 21, 77]",52141212775,Sc2Si1B2Ir5
V5SiB2,mp-10126,0.0,6.99620655,0.0,"{23: 5, 14: 1, 5: 2}","[5, 14, 23]",52141235,V5Si1B2
Cr5SiB2,mp-2647006,0.0,8.14611561,0.049561188125000655,"{24: 5, 14: 1, 5: 2}","[5, 14, 24]",52141245,Cr5Si1B2
Mn5SiB2,mp-1189157,0.0,7.61622677,0.0,"{25: 5, 14: 1, 5: 2}","[5, 14, 25]",52141255,Mn5Si1B2
Nb5SiB2,mp-1209930,0.0,5.92614325,0.0,"{41: 5, 14: 1, 5: 2}","[5, 14, 41]",52141415,Nb5Si1B2
SiB2Mo5,mp-4984,0.0,9.15861603,0.00898916437500219,"{14: 1, 5: 2, 42: 5}","[5, 14, 42]",52141425,Si1B2Mo5
B2PCl2,mp-28426,3.8135,-1.08759639,0.22020381922499777,"{5: 2, 15: 1, 17: 2}","[5, 15, 17]",52151172,B2P1Cl2
Cr5B2P,mp-1189261,0.0,8.60292362,0.0,"{24: 5, 5: 2, 15: 1}","[5, 15, 24]",52151245,Cr5B2P1
Mn5B2P,mp-12633,0.0,7.94748287,0.0,"{25: 5, 5: 2, 15: 1}","[5, 15, 25]",52151255,Mn5B2P1
Co5B2P,mp-1188319,0.0,7.72298485,0.04253688593749949,"{27: 5, 5: 2, 15: 1}","[5, 15, 27]",52151275,Co5B2P1
B2AsP,mp-1008528,1.3755999999999995,6.5731527,0.06785285975000122,"{5: 2, 33: 1, 15: 1}","[5, 15, 33]",52151331,B2As1P1
B2S3,mp-1199451,2.5061,4.29163217,0.0,"{5: 2, 16: 3}","[5, 16]",52163,B2S3
Ca(BS2)2,mp-30958,3.0095,4.39024698,0.04262699456666752,"{20: 1, 5: 2, 16: 4}","[5, 16, 20]",52164201,Ca1B2S4
V(BS2)2,mp-1207865,0.0,5.91995485,0.6291837579516475,"{23: 1, 5: 2, 16: 4}","[5, 16, 23]",52164231,V1B2S4
Sr(BS2)2,mp-8947,2.8280000000000003,3.44654079,0.0,"{38: 1, 5: 2, 16: 4}","[5, 16, 38]",52164381,Sr1B2S4
Eu(BS2)2,mp-510243,1.0166000000000004,5.25552059,0.001777052900002296,"{63: 1, 5: 2, 16: 4}","[5, 16, 63]",52164631,Eu1B2S4
B2Pb2S5,mp-662553,1.6623999999999999,4.60992291,0.0,"{5: 2, 82: 2, 16: 5}","[5, 16, 82]",52165822,B2Pb2S5
Sr3(BS3)2,mp-30239,2.3176000000000005,2.44351135,0.0,"{38: 3, 5: 2, 16: 6}","[5, 16, 38]",52166383,Sr3B2S6
K2B2S7,mp-4351,2.5194,1.69905014,0.0,"{19: 2, 5: 2, 16: 7}","[5, 16, 19]",52167192,K2B2S7
B2IrCl,mp-631586,0.0,8.14674222,2.3456996159722223,"{5: 2, 77: 1, 17: 1}","[5, 17, 77]",52171771,B2Ir1Cl1
B2AsCl2,mp-29028,3.4040999999999997,-0.83600584,0.13261049950000192,"{5: 2, 33: 1, 17: 2}","[5, 17, 33]",52172331,B2As1Cl2
SrZr12B2I5Cl23,mp-677002,1.1801,2.16877632,0.0,"{38: 1, 40: 12, 5: 2, 53: 5, 17: 23}","[5, 17, 38, 40, 53]",5217233814012535,Sr1Zr12B2I5Cl23
Na11B21(ClO18)2,mp-1222188,4.6281,0.31297825,0.00632170621428596,"{11: 11, 5: 21, 17: 2, 8: 36}","[5, 8, 11, 17]",5218361111172,Na11B21Cl2O36
Na11B21(BrO18)2,mp-1196557,4.5093,0.16568384,0.0028304246428598745,"{11: 11, 5: 21, 35: 2, 8: 36}","[5, 8, 11, 35]",5218361111352,Na11B21Br2O36
K2B2Se7,mp-542637,1.6406,1.208417,0.0,"{19: 2, 5: 2, 34: 7}","[5, 19, 34]",52192347,K2B2Se7
CaB2,mp-1009695,0.0,5.05020647,0.19202974249999993,"{20: 1, 5: 2}","[5, 20]",52201,Ca1B2
Ca(BRh)2,mp-8431,0.0,4.98602352,0.0,"{20: 1, 5: 2, 45: 2}","[5, 20, 45]",52201452,Ca1B2Rh2
CaB2Rh3,mp-28705,0.0,6.30890132,0.0,"{20: 1, 5: 2, 45: 3}","[5, 20, 45]",52201453,Ca1B2Rh3
Ca(BIr)2,mp-14445,0.0,5.8856552,0.0,"{20: 1, 5: 2, 77: 2}","[5, 20, 77]",52201772,Ca1B2Ir2
ScB2,mp-2252,0.0,6.06809415,0.0,"{21: 1, 5: 2}","[5, 21]",52211,Sc1B2
ScCo3B2,mp-4938,0.0,5.80666667,0.0,"{21: 1, 27: 3, 5: 2}","[5, 21, 27]",52211273,Sc1Co3B2
ScNb2B2Ru5,mp-1219294,0.0,6.84221172,0.0,"{21: 1, 41: 2, 5: 2, 44: 5}","[5, 21, 41, 44]",52211412445,Sc1Nb2B2Ru5
ScB2Os,mp-1189073,0.0,7.0624915,0.0,"{21: 1, 5: 2, 76: 1}","[5, 21, 76]",52211761,Sc1B2Os1
ScB2Ir3,mp-1077776,0.0,7.83076685,0.006337389722220976,"{21: 1, 5: 2, 77: 3}","[5, 21, 77]",52211773,Sc1B2Ir3
Sc2TiB2Ir5,mp-1208997,0.0,8.38303895,0.0,"{21: 2, 22: 1, 5: 2, 77: 5}","[5, 21, 22, 77]",52212221775,Sc2Ti1B2Ir5
Sc2VB2Ir5,mp-20524,0.0,8.10877289,0.02783990777777312,"{21: 2, 23: 1, 5: 2, 77: 5}","[5, 21, 23, 77]",52212231775,Sc2V1B2Ir5
Sc2CrB2Rh5,mp-542021,0.0,6.58891078,0.04507469500000294,"{21: 2, 24: 1, 5: 2, 45: 5}","[5, 21, 24, 45]",52212241455,Sc2Cr1B2Rh5
Sc2MnB2Rh5,mp-542022,0.0,6.39432092,0.12486794575000548,"{21: 2, 25: 1, 5: 2, 45: 5}","[5, 21, 25, 45]",52212251455,Sc2Mn1B2Rh5
Sc2MnB2Ir5,mp-1208987,0.0,8.19163701,0.05940477328571525,"{21: 2, 25: 1, 5: 2, 77: 5}","[5, 21, 25, 77]",52212251775,Sc2Mn1B2Ir5
Sc2CoB2Ir5,mp-1208990,0.0,8.02734991,0.024300518875005395,"{21: 2, 27: 1, 5: 2, 77: 5}","[5, 21, 27, 77]",52212271775,Sc2Co1B2Ir5
Sc2GaB2Rh5,mp-542024,0.0,6.44603154,0.0,"{21: 2, 31: 1, 5: 2, 45: 5}","[5, 21, 31, 45]",52212311455,Sc2Ga1B2Rh5
Sc2GaB2Ir5,mp-1208983,0.0,7.98897292,0.0,"{21: 2, 31: 1, 5: 2, 77: 5}","[5, 21, 31, 77]",52212311775,Sc2Ga1B2Ir5
Sc2GeB2Ir5,mp-1208986,0.0,8.33677842,0.0,"{21: 2, 32: 1, 5: 2, 77: 5}","[5, 21, 32, 77]",52212321775,Sc2Ge1B2Ir5
Sc3B2Rh5,mp-542020,0.0,6.12037745,0.0,"{21: 3, 5: 2, 45: 5}","[5, 21, 45]",52213455,Sc3B2Rh5
Sc3B2Ir5,mp-1209011,0.01670000000000016,7.66038667,0.0,"{21: 3, 5: 2, 77: 5}","[5, 21, 77]",52213775,Sc3B2Ir5
TiB2,mp-1145,0.0,8.46049915,0.0,"{22: 1, 5: 2}","[5, 22]",52221,Ti1B2
TiCr(BIr)2,mp-1105310,0.0,8.81582086,0.06767581397222244,"{22: 1, 24: 1, 5: 2, 77: 2}","[5, 22, 24, 77]",52221241772,Ti1Cr1B2Ir2
TiNbB2,mp-1216709,0.0,6.70172022,0.0,"{22: 1, 41: 1, 5: 2}","[5, 22, 41]",52221411,Ti1Nb1B2
TiB2Mo,mp-1217028,0.0,8.37916416,0.0,"{22: 1, 5: 2, 42: 1}","[5, 22, 42]",52221421,Ti1B2Mo1
TiB2W,mp-1217023,0.0,8.12371465,0.015864989999997192,"{22: 1, 5: 2, 74: 1}","[5, 22, 74]",52221741,Ti1B2W1
Ti2ReB2,mp-10136,0.0,7.22040437,0.0,"{22: 2, 75: 1, 5: 2}","[5, 22, 75]",52222751,Ti2Re1B2
Ti3Co5B2,mp-504617,0.0,6.64104559,0.0,"{22: 3, 27: 5, 5: 2}","[5, 22, 27]",52223275,Ti3Co5B2
VB2,mp-1491,0.0,8.85993682,0.0,"{23: 1, 5: 2}","[5, 23]",52231,V1B2
VCrB2,mp-1216398,0.0,7.98985502,0.0025949025000002734,"{23: 1, 24: 1, 5: 2}","[5, 23, 24]",52231241,V1Cr1B2
VB2Ru,mp-1216407,0.0,8.40265661,0.07339346277777281,"{23: 1, 5: 2, 44: 1}","[5, 23, 44]",52231441,V1B2Ru1
V2B2Ir,mp-1189371,0.0,8.38715901,0.04873035050000851,"{23: 2, 5: 2, 77: 1}","[5, 23, 77]",52232771,V2B2Ir1
V3B2,mp-2091,0.0,6.98039375,0.0,"{23: 3, 5: 2}","[5, 23]",52233,V3B2
CrB2,mp-374,0.0,8.67801104,0.06712516166666482,"{24: 1, 5: 2}","[5, 24]",52241,Cr1B2
MnCrB2,mp-1221636,0.0,7.83507966,0.01793615500000101,"{25: 1, 24: 1, 5: 2}","[5, 24, 25]",52241251,Mn1Cr1B2
Nb2CrB2,mp-1079560,0.0,6.46761055,0.03384761400000258,"{41: 2, 24: 1, 5: 2}","[5, 24, 41]",52241412,Nb2Cr1B2
CrB2Mo,mp-1226228,0.0,8.74133415,0.04088871562499996,"{24: 1, 5: 2, 42: 1}","[5, 24, 42]",52241421,Cr1B2Mo1
Cr(BMo)2,mp-1206931,0.0,8.84609139,0.0,"{24: 1, 5: 2, 42: 2}","[5, 24, 42]",52241422,Cr1B2Mo2
CrB2Ru,mp-1226273,0.0,8.62985573,0.10674990729166645,"{24: 1, 5: 2, 44: 1}","[5, 24, 44]",52241441,Cr1B2Ru1
Ta2CrB2,mp-1080757,0.0,7.01744392,0.0,"{73: 2, 24: 1, 5: 2}","[5, 24, 73]",52241732,Ta2Cr1B2
CrB2W,mp-1226242,0.0,8.36155516,0.018224606874998273,"{24: 1, 5: 2, 74: 1}","[5, 24, 74]",52241741,Cr1B2W1
CrRe5B2,mp-1226226,0.0,7.86244016,0.026795854062498847,"{24: 1, 75: 5, 5: 2}","[5, 24, 75]",52241755,Cr1Re5B2
Cr2B2Ir,mp-1188995,0.0,8.75079214,0.05723984537500115,"{24: 2, 5: 2, 77: 1}","[5, 24, 77]",52242771,Cr2B2Ir1
MnB2,mp-585,0.0,8.31025251,0.06919970777777884,"{25: 1, 5: 2}","[5, 25]",52251,Mn1B2
MnCoB2,mp-1221680,0.0,7.69338237,0.05803331312499971,"{25: 1, 27: 1, 5: 2}","[5, 25, 27]",52251271,Mn1Co1B2
Mn(BMo)2,mp-1092278,0.0,8.77446423,0.0,"{25: 1, 5: 2, 42: 2}","[5, 25, 42]",52251422,Mn1B2Mo2
Mn(BW)2,mp-19789,0.0,8.10902308,0.0,"{25: 1, 5: 2, 74: 2}","[5, 25, 74]",52251742,Mn1B2W2
MnReB2,mp-1221600,0.0,8.40424051,0.075591378875,"{25: 1, 75: 1, 5: 2}","[5, 25, 75]",52251751,Mn1Re1B2
MnRe3B2,mp-1221607,0.0,8.24203935,0.0744407537499967,"{25: 1, 75: 3, 5: 2}","[5, 25, 75]",52251753,Mn1Re3B2
Pr3Co13B2,mp-1209806,0.0,4.93454527,0.03285310751568016,"{59: 3, 27: 13, 5: 2}","[5, 27, 59]",522713593,Pr3Co13B2
Nd3Co13B2,mp-4603,0.0,4.77108475,0.02689076224160125,"{60: 3, 27: 13, 5: 2}","[5, 27, 60]",522713603,Nd3Co13B2
NbCoB2,mp-20877,0.0,7.00387008,0.0001676606249993995,"{41: 1, 27: 1, 5: 2}","[5, 27, 41]",52271411,Nb1Co1B2
Co(BMo)2,mp-1069105,0.0,8.56260642,0.0,"{27: 1, 5: 2, 42: 2}","[5, 27, 42]",52271422,Co1B2Mo2
TaCoB2,mp-1189690,0.0,7.44712248,0.0,"{73: 1, 27: 1, 5: 2}","[5, 27, 73]",52271731,Ta1Co1B2
Co(BW)2,mp-7573,0.0,8.00231673,0.0,"{27: 1, 5: 2, 74: 2}","[5, 27, 74]",52271742,Co1B2W2
La(CoB)2,mp-2967,0.0,7.43778271,0.0,"{57: 1, 27: 2, 5: 2}","[5, 27, 57]",52272571,La1Co2B2
Pr(CoB)2,mp-4322,0.0,5.12508958,0.0,"{59: 1, 27: 2, 5: 2}","[5, 27, 59]",52272591,Pr1Co2B2
Nd(CoB)2,mp-5553,0.0,5.08744527,0.0,"{60: 1, 27: 2, 5: 2}","[5, 27, 60]",52272601,Nd1Co2B2
Sm(CoB)2,mp-4073,0.0,4.97039683,0.0,"{62: 1, 27: 2, 5: 2}","[5, 27, 62]",52272621,Sm1Co2B2
Gd(CoB)2,mp-610530,0.0,5.07531255,0.0,"{64: 1, 27: 2, 5: 2}","[5, 27, 64]",52272641,Gd1Co2B2
Tb(CoB)2,mp-3893,0.0,5.28521658,0.0,"{65: 1, 27: 2, 5: 2}","[5, 27, 65]",52272651,Tb1Co2B2
Dy(CoB)2,mp-5135,0.0,5.3046968,0.0,"{66: 1, 27: 2, 5: 2}","[5, 27, 66]",52272661,Dy1Co2B2
Ho(CoB)2,mp-573995,0.0,5.28477624,0.0,"{67: 1, 27: 2, 5: 2}","[5, 27, 67]",52272671,Ho1Co2B2
Er(CoB)2,mp-568509,0.0,5.32326851,0.0,"{68: 1, 27: 2, 5: 2}","[5, 27, 68]",52272681,Er1Co2B2
ZrCo3B2,mp-618324,0.0,6.09374911,0.041130589999999856,"{40: 1, 27: 3, 5: 2}","[5, 27, 40]",52273401,Zr1Co3B2
CeCo3B2,mp-4454,0.0,7.70748085,0.0,"{58: 1, 27: 3, 5: 2}","[5, 27, 58]",52273581,Ce1Co3B2
SmCo3B2,mp-5410,0.0,5.42716204,0.011508546666665787,"{62: 1, 27: 3, 5: 2}","[5, 27, 62]",52273621,Sm1Co3B2
GdCo3B2,mp-21252,0.0,5.45659138,0.0,"{64: 1, 27: 3, 5: 2}","[5, 27, 64]",52273641,Gd1Co3B2
TbCo3B2,mp-3040,0.0,5.54043753,0.0,"{65: 1, 27: 3, 5: 2}","[5, 27, 65]",52273651,Tb1Co3B2
DyCo3B2,mp-20193,0.0,5.48162752,0.0,"{66: 1, 27: 3, 5: 2}","[5, 27, 66]",52273661,Dy1Co3B2
HoCo3B2,mp-5313,0.0,5.42691689,0.0,"{67: 1, 27: 3, 5: 2}","[5, 27, 67]",52273671,Ho1Co3B2
ErCo3B2,mp-5353,0.0,5.4337641,0.0,"{68: 1, 27: 3, 5: 2}","[5, 27, 68]",52273681,Er1Co3B2
TmCo3B2,mp-5714,0.0,5.39245433,0.0,"{69: 1, 27: 3, 5: 2}","[5, 27, 69]",52273691,Tm1Co3B2
LuCo3B2,mp-15709,0.0,5.36150871,0.0,"{71: 1, 27: 3, 5: 2}","[5, 27, 71]",52273711,Lu1Co3B2
HfCo3B2,mp-7804,0.0,6.13704597,0.01769327999999959,"{72: 1, 27: 3, 5: 2}","[5, 27, 72]",52273721,Hf1Co3B2
UCo3B2,mp-10056,0.0,9.2533251,0.0,"{92: 1, 27: 3, 5: 2}","[5, 27, 92]",52273921,U1Co3B2
Nb3Co5B2,mp-1209993,0.0,6.25574963,0.06851727337878621,"{41: 3, 27: 5, 5: 2}","[5, 27, 41]",52275413,Nb3Co5B2
Ce2Co5B2,mp-574273,0.0,7.94026463,0.0,"{58: 2, 27: 5, 5: 2}","[5, 27, 58]",52275582,Ce2Co5B2
Pr2Co5B2,mp-1200180,0.0,5.32756158,0.02154536418010622,"{59: 2, 27: 5, 5: 2}","[5, 27, 59]",52275592,Pr2Co5B2
Nd2Co5B2,mp-1198836,0.0,5.29456828,0.00951400490310128,"{60: 2, 27: 5, 5: 2}","[5, 27, 60]",52275602,Nd2Co5B2
Sm2Co5B2,mp-1196408,0.0,5.35747017,0.0,"{62: 2, 27: 5, 5: 2}","[5, 27, 62]",52275622,Sm2Co5B2
Ta3Co5B2,mp-1189575,0.0,6.67939406,0.08742252666666417,"{73: 3, 27: 5, 5: 2}","[5, 27, 73]",52275733,Ta3Co5B2
U3Co7B2,mp-505344,0.0,9.82696336,0.0,"{92: 3, 27: 7, 5: 2}","[5, 27, 92]",52277923,U3Co7B2
Zn(BIr)2,mp-28786,0.0,7.84904276,0.0,"{30: 1, 5: 2, 77: 2}","[5, 30, 77]",52301772,Zn1B2Ir2
HfGeB2,mp-631549,0.0,6.23452128,2.045381313749999,"{72: 1, 32: 1, 5: 2}","[5, 32, 72]",52321721,Hf1Ge1B2
Ta5GeB2,mp-1105309,0.0,6.57324376,0.0,"{73: 5, 32: 1, 5: 2}","[5, 32, 73]",52321735,Ta5Ge1B2
Rb2B2Se7,mp-16184,1.4887000000000001,0.8709291,0.0,"{37: 2, 5: 2, 34: 7}","[5, 34, 37]",52347372,Rb2B2Se7
Tl2B2Se7,mp-16183,1.2951000000000001,2.33581402,0.0,"{81: 2, 5: 2, 34: 7}","[5, 34, 81]",52347812,Tl2B2Se7
Tb10B2Br15,mp-29846,0.0,3.31439127,0.0,"{65: 10, 5: 2, 35: 15}","[5, 35, 65]",5235156510,Tb10B2Br15
SrB2,mp-1008755,0.0,4.51897177,0.5325422407407405,"{38: 1, 5: 2}","[5, 38]",52381,Sr1B2
Sr(BRh)2,mp-7348,0.0,4.77966687,0.0,"{38: 1, 5: 2, 45: 2}","[5, 38, 45]",52381452,Sr1B2Rh2
Sr(BIr)2,mp-6939,0.0,5.65443745,0.0,"{38: 1, 5: 2, 77: 2}","[5, 38, 77]",52381772,Sr1B2Ir2
ZrB2,mp-1472,0.0,7.38649634,0.0,"{40: 1, 5: 2}","[5, 40]",52401,Zr1B2
ZrNbB2,mp-1215223,0.0,5.85670194,0.04342858916666614,"{40: 1, 41: 1, 5: 2}","[5, 40, 41]",52401411,Zr1Nb1B2
NbB2,mp-450,0.0,8.44622833,0.0,"{41: 1, 5: 2}","[5, 41]",52411,Nb1B2
Na3ThB24,mp-1221215,0.0,4.06076,0.0,"{11: 3, 90: 1, 5: 24}","[5, 11, 90]",524113901,Na3Th1B24
Nb(BMo)2,mp-1079120,0.0,8.18539021,0.09997459700000633,"{41: 1, 5: 2, 42: 2}","[5, 41, 42]",52411422,Nb1B2Mo2
HfNbB2,mp-1224347,0.0,6.2127883,0.005350212500001561,"{72: 1, 41: 1, 5: 2}","[5, 41, 72]",52411721,Hf1Nb1B2
NbB2W,mp-1220349,0.0,7.80013737,0.0,"{41: 1, 5: 2, 74: 1}","[5, 41, 74]",52411741,Nb1B2W1
Nb2B2Mo,mp-1206490,0.0,7.06543502,0.0,"{41: 2, 5: 2, 42: 1}","[5, 41, 42]",52412421,Nb2B2Mo1
Nb2B2Os,mp-1106338,0.0,7.32664456,0.03005256899999864,"{41: 2, 5: 2, 76: 1}","[5, 41, 76]",52412761,Nb2B2Os1
Nb3B2,mp-20689,0.0,6.01362898,0.0,"{41: 3, 5: 2}","[5, 41]",52413,Nb3B2
Nb3B2Ru5,mp-1189385,0.0,7.28124787,0.0,"{41: 3, 5: 2, 44: 5}","[5, 41, 44]",52413445,Nb3B2Ru5
B2Mo,mp-2331,0.0,8.91057059,0.0,"{5: 2, 42: 1}","[5, 42]",52421,B2Mo1
B2MoRu,mp-1228661,0.0,9.11686786,0.09012946166666325,"{5: 2, 42: 1, 44: 1}","[5, 42, 44]",52421441,B2Mo1Ru1
TaB2Mo,mp-1217965,0.0,8.44535368,0.0,"{73: 1, 5: 2, 42: 1}","[5, 42, 73]",52421731,Ta1B2Mo1
B2Mo2Ru,mp-1190254,0.0,9.03144474,0.013627713000001762,"{5: 2, 42: 2, 44: 1}","[5, 42, 44]",52422441,B2Mo2Ru1
Ta(BMo)2,mp-1079659,0.0,8.45810952,0.07542032600000681,"{73: 1, 5: 2, 42: 2}","[5, 42, 73]",52422731,Ta1B2Mo2
B2Mo2Os,mp-1188450,0.0,9.25778418,0.048761751500002504,"{5: 2, 42: 2, 76: 1}","[5, 42, 76]",52422761,B2Mo2Os1