formula,material_id,band_gap,efermi,energy_above_hull,comp_atoms,sorted_keys_comp_atoms,comp_number,new_formula
VCrB4,mp-1216375,0.0,8.89919697,0.0358493724999977,"{23: 1, 24: 1, 5: 4}","[5, 23, 24]",54231241,V1Cr1B4
YVB4,mp-1191641,0.0,6.22731711,0.0,"{39: 1, 23: 1, 5: 4}","[5, 23, 39]",54231391,Y1V1B4
NbVB4,mp-1220351,0.0,8.45670253,0.0132003649999994,"{41: 1, 23: 1, 5: 4}","[5, 23, 41]",54231411,Nb1V1B4
TaVB4,mp-1217818,0.0,8.89444968,0.0007637633333317,"{73: 1, 23: 1, 5: 4}","[5, 23, 73]",54231731,Ta1V1B4
VRe11B4,mp-1216295,0.0,7.97139229,0.0131948312499972,"{23: 1, 75: 11, 5: 4}","[5, 23, 75]",542317511,V1Re11B4
ThVB4,mp-1095627,0.0,7.94710453,0.0055195911458412,"{90: 1, 23: 1, 5: 4}","[5, 23, 90]",54231901,Th1V1B4
UVB4,mp-1191272,0.0,9.71983712,0.013313339583334,"{92: 1, 23: 1, 5: 4}","[5, 23, 92]",54231921,U1V1B4
V3ReB4,mp-1216475,0.0,8.17629871,0.0032252528749978,"{23: 3, 75: 1, 5: 4}","[5, 23, 75]",54233751,V3Re1B4
YCrB4,mp-20450,0.1589,6.56229408,0.0,"{39: 1, 24: 1, 5: 4}","[5, 24, 39]",54241391,Y1Cr1B4
Nb5Cr(B2Ru5)2,mp-1220514,0.0,7.38182954,0.0046340891874958,"{41: 5, 24: 1, 5: 4, 44: 10}","[5, 24, 41, 44]",542414154410,Nb5Cr1B4Ru10
CrB4Mo,mp-1226219,0.0,9.50857561,0.0956612050000007,"{24: 1, 5: 4, 42: 1}","[5, 24, 42]",54241421,Cr1B4Mo1
CeCrB4,mp-1191927,0.0,8.47455643,0.0014546262500001,"{58: 1, 24: 1, 5: 4}","[5, 24, 58]",54241581,Ce1Cr1B4
PrCrB4,mp-1191933,0.3370999999999995,6.03640734,0.0318048524999934,"{59: 1, 24: 1, 5: 4}","[5, 24, 59]",54241591,Pr1Cr1B4
NdCrB4,mp-1190818,0.3486000000000002,6.00073181,0.0095854343055545,"{60: 1, 24: 1, 5: 4}","[5, 24, 60]",54241601,Nd1Cr1B4
GdCrB4,mp-1190957,0.2551000000000005,6.11881946,0.0,"{64: 1, 24: 1, 5: 4}","[5, 24, 64]",54241641,Gd1Cr1B4
TbCrB4,mp-1190703,0.3781000000000007,6.19705232,0.0,"{65: 1, 24: 1, 5: 4}","[5, 24, 65]",54241651,Tb1Cr1B4
HoCrB4,mp-1191543,0.1677999999999997,6.3915491,0.0,"{67: 1, 24: 1, 5: 4}","[5, 24, 67]",54241671,Ho1Cr1B4
ErCrB4,mp-985700,0.1610999999999993,6.50491949,0.0,"{68: 1, 24: 1, 5: 4}","[5, 24, 68]",54241681,Er1Cr1B4
TmCrB4,mp-1191371,0.1963999999999996,6.46897816,0.0,"{69: 1, 24: 1, 5: 4}","[5, 24, 69]",54241691,Tm1Cr1B4
LuCrB4,mp-1190663,0.2097999999999995,6.39931599,0.0,"{71: 1, 24: 1, 5: 4}","[5, 24, 71]",54241711,Lu1Cr1B4
TaCrB4,mp-1217958,0.0,8.77085012,0.0182139308333333,"{73: 1, 24: 1, 5: 4}","[5, 24, 73]",54241731,Ta1Cr1B4
CrRe3B4,mp-1226262,0.0,8.97331648,0.1870554120624987,"{24: 1, 75: 3, 5: 4}","[5, 24, 75]",54241753,Cr1Re3B4
Cr3B4,mp-889,0.0,8.69074069,0.0289297790476208,"{24: 3, 5: 4}","[5, 24]",54243,Cr3B4
Cr3B4Mo3,mp-1226327,0.0,8.54652076,0.1467778670625001,"{24: 3, 5: 4, 42: 3}","[5, 24, 42]",54243423,Cr3B4Mo3
YMnB4,mp-1191988,0.0,6.55223361,0.0,"{39: 1, 25: 1, 5: 4}","[5, 25, 39]",54251391,Y1Mn1B4
MnB4Mo3,mp-1221732,0.0,8.84313372,0.0486643334375003,"{25: 1, 5: 4, 42: 3}","[5, 25, 42]",54251423,Mn1B4Mo3
PrMnB4,mp-1191805,0.0,6.3582327,0.0386675883333289,"{59: 1, 25: 1, 5: 4}","[5, 25, 59]",54251591,Pr1Mn1B4
NdMnB4,mp-1191986,0.0,6.28140154,0.0132252188888859,"{60: 1, 25: 1, 5: 4}","[5, 25, 60]",54251601,Nd1Mn1B4
SmMnB4,mp-22785,0.0,6.13780893,0.0040086299999924,"{62: 1, 25: 1, 5: 4}","[5, 25, 62]",54251621,Sm1Mn1B4
Mn2B4Mo,mp-1078108,0.0,8.6121201,0.0080765871428578,"{25: 2, 5: 4, 42: 1}","[5, 25, 42]",54252421,Mn2B4Mo1
Mn2B4W,mp-1077988,0.0,8.42192598,0.0173515907142913,"{25: 2, 5: 4, 74: 1}","[5, 25, 74]",54252741,Mn2B4W1
Mn3B4,mp-10118,0.0,7.84524644,0.0180441190476177,"{25: 3, 5: 4}","[5, 25]",54253,Mn3B4
Mn3B4W,mp-1221797,0.0,7.65374853,0.0085694883333395,"{25: 3, 5: 4, 74: 1}","[5, 25, 74]",54253741,Mn3B4W1
FeB4,mp-1079437,0.0,8.01105746,0.0068451468333332,"{26: 1, 5: 4}","[5, 26]",54261,Fe1B4
YFeB4,mp-1207634,0.0,6.54047017,0.0,"{39: 1, 26: 1, 5: 4}","[5, 26, 39]",54261391,Y1Fe1B4
Fe(B2Mo)2,mp-1225198,0.0,9.14526984,0.0648000803571431,"{26: 1, 5: 4, 42: 2}","[5, 26, 42]",54261422,Fe1B4Mo2
CeFeB4,mp-1213808,0.0,8.36827237,0.0211376383333297,"{58: 1, 26: 1, 5: 4}","[5, 26, 58]",54261581,Ce1Fe1B4
SmFeB4,mp-20416,0.0,6.10355189,0.0,"{62: 1, 26: 1, 5: 4}","[5, 26, 62]",54261621,Sm1Fe1B4
GdFeB4,mp-866656,0.0,6.22274104,0.0,"{64: 1, 26: 1, 5: 4}","[5, 26, 64]",54261641,Gd1Fe1B4
TbFeB4,mp-1208346,0.0,6.42086478,0.0,"{65: 1, 26: 1, 5: 4}","[5, 26, 65]",54261651,Tb1Fe1B4
DyFeB4,mp-1191987,0.0,6.43131277,0.0,"{66: 1, 26: 1, 5: 4}","[5, 26, 66]",54261661,Dy1Fe1B4
HoFeB4,mp-1212115,0.0,6.39050493,0.0,"{67: 1, 26: 1, 5: 4}","[5, 26, 67]",54261671,Ho1Fe1B4
ErFeB4,mp-1191434,0.0,6.46420926,0.0,"{68: 1, 26: 1, 5: 4}","[5, 26, 68]",54261681,Er1Fe1B4
TmFeB4,mp-1207990,0.0,6.43721209,0.0,"{69: 1, 26: 1, 5: 4}","[5, 26, 69]",54261691,Tm1Fe1B4
LuFeB4,mp-1191710,0.0,6.46091607,0.0,"{71: 1, 26: 1, 5: 4}","[5, 26, 71]",54261711,Lu1Fe1B4
UFeB4,mp-1191051,0.0,10.09227463,0.0,"{92: 1, 26: 1, 5: 4}","[5, 26, 92]",54261921,U1Fe1B4
Fe2B4Mo,mp-15722,0.0,8.46727801,0.0166440371428571,"{26: 2, 5: 4, 42: 1}","[5, 26, 42]",54262421,Fe2B4Mo1
Ce(FeB)4,mp-1006322,0.0,7.26623123,0.0,"{58: 1, 26: 4, 5: 4}","[5, 26, 58]",54264581,Ce1Fe4B4
Pr(FeB)4,mp-1188734,0.0,5.81314103,0.0,"{59: 1, 26: 4, 5: 4}","[5, 26, 59]",54264591,Pr1Fe4B4
Nd(FeB)4,mp-1106404,0.0,5.80867677,0.0,"{60: 1, 26: 4, 5: 4}","[5, 26, 60]",54264601,Nd1Fe4B4
Pr7Y(Fe14B)4,mp-1220130,0.0,4.77995409,0.0118718295281858,"{59: 7, 39: 1, 26: 56, 5: 4}","[5, 26, 39, 59]",542656391597,Pr7Y1Fe56B4
Fe9B4Rh3,mp-1225075,0.0,6.35375564,0.0262184801442302,"{26: 9, 5: 4, 45: 3}","[5, 26, 45]",54269453,Fe9B4Rh3
Fe9B4Ir3,mp-1225266,0.0,7.19465823,0.036018864999999,"{26: 9, 5: 4, 77: 3}","[5, 26, 77]",54269773,Fe9B4Ir3
Ce3Co11B4,mp-13765,0.0,7.31247059,0.0092081748611141,"{58: 3, 27: 11, 5: 4}","[5, 27, 58]",542711583,Ce3Co11B4
Pr3Co11B4,mp-5457,0.0,5.31189954,0.0280432870362918,"{59: 3, 27: 11, 5: 4}","[5, 27, 59]",542711593,Pr3Co11B4
Nd3Co11B4,mp-5568,0.0,5.23720979,0.019940596627908,"{60: 3, 27: 11, 5: 4}","[5, 27, 60]",542711603,Nd3Co11B4
Sm3Co11B4,mp-1189913,0.0,5.4120705,0.0114463724591571,"{62: 3, 27: 11, 5: 4}","[5, 27, 62]",542711623,Sm3Co11B4
Tb3Co11B4,mp-1188805,0.0,5.32283491,0.0039172887152751,"{65: 3, 27: 11, 5: 4}","[5, 27, 65]",542711653,Tb3Co11B4
Dy3Co11B4,mp-30907,0.0,5.18208566,0.0046503309090883,"{66: 3, 27: 11, 5: 4}","[5, 27, 66]",542711663,Dy3Co11B4
Ho3Co11B4,mp-1189174,0.0,5.13283673,0.0075677208080788,"{67: 3, 27: 11, 5: 4}","[5, 27, 67]",542711673,Ho3Co11B4
Tm3Co11B4,mp-1188803,0.0,5.25960746,0.0097554169230775,"{69: 3, 27: 11, 5: 4}","[5, 27, 69]",542711693,Tm3Co11B4
Lu3Co11B4,mp-1188111,0.0,5.08720006,0.0141858077499934,"{71: 3, 27: 11, 5: 4}","[5, 27, 71]",542711713,Lu3Co11B4
YCoB4,mp-1207600,0.0,6.44842249,0.0,"{39: 1, 27: 1, 5: 4}","[5, 27, 39]",54271391,Y1Co1B4
NdY3(Co4B)4,mp-1220135,0.0,5.09314038,0.01003754571646,"{60: 1, 39: 3, 27: 16, 5: 4}","[5, 27, 39, 60]",542716393601,Nd1Y3Co16B4
Nd5Co21B4,mp-505807,0.0,4.84884669,0.0235842426744152,"{60: 5, 27: 21, 5: 4}","[5, 27, 60]",542721605,Nd5Co21B4
YCo2(B2Rh)2,mp-1215970,0.0,6.5112123,0.0812061911111055,"{39: 1, 27: 2, 5: 4, 45: 2}","[5, 27, 39, 45]",54272391452,Y1Co2B4Rh2
Co2B4Mo,mp-10055,0.0,8.64482911,0.0124138800000022,"{27: 2, 5: 4, 42: 1}","[5, 27, 42]",54272421,Co2B4Mo1
ErCo2(B2Rh)2,mp-1225579,0.0,6.4992834,0.0926527915555439,"{68: 1, 27: 2, 5: 4, 45: 2}","[5, 27, 45, 68]",54272452681,Er1Co2B4Rh2
Co2Re5B4,mp-1226558,0.0,8.22250864,0.0640272049090917,"{27: 2, 75: 5, 5: 4}","[5, 27, 75]",54272755,Co2Re5B4
Co3(ReB)4,mp-1213771,0.0,7.97668512,0.0561783065909118,"{27: 3, 75: 4, 5: 4}","[5, 27, 75]",54273754,Co3Re4B4
Y(CoB)4,mp-1105964,0.0,6.36000412,0.0,"{39: 1, 27: 4, 5: 4}","[5, 27, 39]",54274391,Y1Co4B4
GdY(CoB)4,mp-1224503,0.0,4.73309725,0.0005167390000018,"{64: 1, 39: 1, 27: 4, 5: 4}","[5, 27, 39, 64]",54274391641,Gd1Y1Co4B4
La(CoB)4,mp-1189727,0.0,7.47861555,0.0128495888888906,"{57: 1, 27: 4, 5: 4}","[5, 27, 57]",54274571,La1Co4B4
Ce(CoB)4,mp-22165,0.0,7.72341598,0.0041185368888845,"{58: 1, 27: 4, 5: 4}","[5, 27, 58]",54274581,Ce1Co4B4
U(CoB)4,mp-505343,0.0,8.71026895,0.0261193303703715,"{92: 1, 27: 4, 5: 4}","[5, 27, 92]",54274921,U1Co4B4
Nb5Ni(B2Ru5)2,mp-1220578,0.0,7.35376705,0.0111203883574937,"{41: 5, 28: 1, 5: 4, 44: 10}","[5, 28, 41, 44]",542814154410,Nb5Ni1B4Ru10
HoNiB4,mp-1192149,0.0,6.41357521,0.0120271337890631,"{67: 1, 28: 1, 5: 4}","[5, 28, 67]",54281671,Ho1Ni1B4
Ce2Ni5B4,mp-1095458,0.0,8.4004395,0.0254395020454527,"{58: 2, 28: 5, 5: 4}","[5, 28, 58]",54285582,Ce2Ni5B4
Zn5(BRh2)4,mp-569759,0.0,5.92016628,0.0055223667647092,"{30: 5, 5: 4, 45: 8}","[5, 30, 45]",54305458,Zn5B4Rh8
Ba2B4Se13,mp-30105,1.3329999999999995,2.21840448,0.0,"{56: 2, 5: 4, 34: 13}","[5, 34, 56]",543413562,Ba2B4Se13
Ba7B4Se13,mp-583221,2.1147,1.51527594,0.0,"{56: 7, 5: 4, 34: 13}","[5, 34, 56]",543413567,Ba7B4Se13
Sr2B4Rh5,mp-8896,0.0,5.49078969,0.0015308172727159,"{38: 2, 5: 4, 45: 5}","[5, 38, 45]",54382455,Sr2B4Rh5
YB4,mp-637,0.0,6.01879864,0.0,"{39: 1, 5: 4}","[5, 39]",54391,Y1B4
YB4Mo,mp-7691,0.2774000000000001,6.86930065,0.0,"{39: 1, 5: 4, 42: 1}","[5, 39, 42]",54391421,Y1B4Mo1
YB4Ru,mp-1190832,0.0,7.07633512,0.0,"{39: 1, 5: 4, 44: 1}","[5, 39, 44]",54391441,Y1B4Ru1
Y(BRu)4,mp-10138,0.0,6.98576297,0.0,"{39: 1, 5: 4, 44: 4}","[5, 39, 44]",54391444,Y1B4Ru4
YTh(B2Ru3)2,mp-1216002,0.0,7.38906851,0.0047045879166649,"{39: 1, 90: 1, 5: 4, 44: 6}","[5, 39, 44, 90]",54391446901,Y1Th1B4Ru6
YB4Rh,mp-13341,0.0,6.95741234,0.0,"{39: 1, 5: 4, 45: 1}","[5, 39, 45]",54391451,Y1B4Rh1
Y(BRh)4,mp-5984,0.0,6.85014273,0.0126497084259264,"{39: 1, 5: 4, 45: 4}","[5, 39, 45]",54391454,Y1B4Rh4
LaY(B2Rh3)2,mp-1222811,0.0,7.46044242,0.0215460949999988,"{57: 1, 39: 1, 5: 4, 45: 6}","[5, 39, 45, 57]",54391456571,La1Y1B4Rh6
YB4Rh7,mp-1215999,0.0,6.3985619,0.1852653939583257,"{39: 1, 5: 4, 45: 7}","[5, 39, 45]",54391457,Y1B4Rh7
YB4W,mp-1190755,0.569,6.35847423,0.0,"{39: 1, 5: 4, 74: 1}","[5, 39, 74]",54391741,Y1B4W1
YB4W3,mp-1215950,0.0,7.21663049,0.0707871696875006,"{39: 1, 5: 4, 74: 3}","[5, 39, 74]",54391743,Y1B4W3
YReB4,mp-865727,0.0,7.09352557,0.0,"{39: 1, 75: 1, 5: 4}","[5, 39, 75]",54391751,Y1Re1B4
Y(ReB)4,mp-1188833,0.0,6.84777202,0.2064380278703659,"{39: 1, 75: 4, 5: 4}","[5, 39, 75]",54391754,Y1Re4B4
YB4Os,mp-980205,0.0,7.29751232,0.0,"{39: 1, 5: 4, 76: 1}","[5, 39, 76]",54391761,Y1B4Os1
Y(BIr)4,mp-981396,0.0,7.66976736,0.0,"{39: 1, 5: 4, 77: 4}","[5, 39, 77]",54391774,Y1B4Ir4
Y5B4Rh15,mp-1216199,0.0,5.51603467,0.0163247788888929,"{39: 5, 5: 4, 45: 15}","[5, 39, 45]",543954515,Y5B4Rh15
ZrB4Mo,mp-1215250,0.0,8.62552587,0.0864860391666653,"{40: 1, 5: 4, 42: 1}","[5, 40, 42]",54401421,Zr1B4Mo1
HfZrB4,mp-1224184,0.0,7.60098767,0.0028658383333315,"{72: 1, 40: 1, 5: 4}","[5, 40, 72]",54401721,Hf1Zr1B4
NbB4Mo3,mp-1220383,0.0,8.76437486,0.0097370165625001,"{41: 1, 5: 4, 42: 3}","[5, 41, 42]",54411423,Nb1B4Mo3
Nb3B4W3,mp-1220641,0.0,7.41926712,0.1140869329999958,"{41: 3, 5: 4, 74: 3}","[5, 41, 74]",54413743,Nb3B4W3
B4MoRu2,mp-1228655,0.0,9.38595034,0.0766911578571445,"{5: 4, 42: 1, 44: 2}","[5, 42, 44]",54421442,B4Mo1Ru2
B4MoIr,mp-1228634,0.0,8.24691734,0.0352574276388892,"{5: 4, 42: 1, 77: 1}","[5, 42, 77]",54421771,B4Mo1Ir1
UB4Mo,mp-1103171,0.0,10.05214814,0.0156165026736037,"{92: 1, 5: 4, 42: 1}","[5, 42, 92]",54421921,U1B4Mo1
ErLu(B2Ru)2,mp-1225723,0.0,6.01782669,0.0007253706249992,"{68: 1, 71: 1, 5: 4, 44: 2}","[5, 44, 68, 71]",54442681711,Er1Lu1B4Ru2
La5B4Rh15,mp-1223216,0.0,7.4597717,0.0353952777083348,"{57: 5, 5: 4, 45: 15}","[5, 45, 57]",544515575,La5B4Rh15
Sm5B4Rh15,mp-1219166,0.0,5.41477733,0.0218769212500022,"{62: 5, 5: 4, 45: 15}","[5, 45, 62]",544515625,Sm5B4Rh15
Lu5B4Rh15,mp-1222784,0.0,5.3515847,0.0021833287500037,"{71: 5, 5: 4, 45: 15}","[5, 45, 71]",544515715,Lu5B4Rh15
U5B4Rh15,mp-1216968,0.0,8.70982457,0.0425940939880931,"{92: 5, 5: 4, 45: 15}","[5, 45, 92]",544515925,U5B4Rh15
DyB4(IrRh)2,mp-1225314,0.0,7.5505995,0.0217950077777944,"{66: 1, 5: 4, 77: 2, 45: 2}","[5, 45, 66, 77]",54452661772,Dy1B4Ir2Rh2
ErB4(IrRh)2,mp-1225576,0.0,7.54522839,0.0218039285802538,"{68: 1, 5: 4, 77: 2, 45: 2}","[5, 45, 68, 77]",54452681772,Er1B4Ir2Rh2
Ce2B4(IrRh)3,mp-1226873,0.0,8.82770752,0.001355812499991,"{58: 2, 5: 4, 77: 3, 45: 3}","[5, 45, 58, 77]",54453582773,Ce2B4Ir3Rh3
Ce(BRh)4,mp-1106048,0.0,8.10069639,0.023991871060609,"{58: 1, 5: 4, 45: 4}","[5, 45, 58]",54454581,Ce1B4Rh4
Pr(BRh)4,mp-1179918,0.0,6.76312217,0.0081090442857103,"{59: 1, 5: 4, 45: 4}","[5, 45, 59]",54454591,Pr1B4Rh4
Nd(BRh)4,mp-973480,0.0,6.77580467,0.0032387169047574,"{60: 1, 5: 4, 45: 4}","[5, 45, 60]",54454601,Nd1B4Rh4
Gd(BRh)4,mp-1106078,0.0,6.86435757,0.0023992313888854,"{64: 1, 5: 4, 45: 4}","[5, 45, 64]",54454641,Gd1B4Rh4
Tb(BRh)4,mp-1178967,0.0,6.82059941,0.0113736279798057,"{65: 1, 5: 4, 45: 4}","[5, 45, 65]",54454651,Tb1B4Rh4
Dy(BRh)4,mp-1105740,0.0,6.82422751,0.0133173579629657,"{66: 1, 5: 4, 45: 4}","[5, 45, 66]",54454661,Dy1B4Rh4
Ho(BRh)4,mp-1189784,0.0,6.83663612,0.0130335600000002,"{67: 1, 5: 4, 45: 4}","[5, 45, 67]",54454671,Ho1B4Rh4
Er(BRh)4,mp-1200942,0.0,6.90962433,0.0111425801851883,"{68: 1, 5: 4, 45: 4}","[5, 45, 68]",54454681,Er1B4Rh4
Tm(BRh)4,mp-1204414,0.0,6.91028559,0.0115618410000015,"{69: 1, 5: 4, 45: 4}","[5, 45, 69]",54454691,Tm1B4Rh4
Lu(BRh)4,mp-28001,0.0,6.9053252,0.0201612499629639,"{71: 1, 5: 4, 45: 4}","[5, 45, 71]",54454711,Lu1B4Rh4
Th(BRh)4,mp-1106347,0.0,7.86765682,0.0253394350000064,"{90: 1, 5: 4, 45: 4}","[5, 45, 90]",54454901,Th1B4Rh4
LaCe(B2Rh3)2,mp-1223015,0.0,8.19387217,0.0269036308333152,"{57: 1, 58: 1, 5: 4, 45: 6}","[5, 45, 57, 58]",54456571581,La1Ce1B4Rh6
NdB4Rh7,mp-1220226,0.0,6.40789015,0.1685045931249948,"{60: 1, 5: 4, 45: 7}","[5, 45, 60]",54457601,Nd1B4Rh7
SmB4Rh7,mp-1219077,0.0,6.35055863,0.1740228481249923,"{62: 1, 5: 4, 45: 7}","[5, 45, 62]",54457621,Sm1B4Rh7
DyB4Rh7,mp-1225334,0.0,6.3961734,0.1904030314583291,"{66: 1, 5: 4, 45: 7}","[5, 45, 66]",54457661,Dy1B4Rh7
HoB4Rh7,mp-1223938,0.0,6.26792304,0.1936808422916618,"{67: 1, 5: 4, 45: 7}","[5, 45, 67]",54457671,Ho1B4Rh7
ErB4Rh7,mp-1225583,0.0,6.28563105,0.1967967372916623,"{68: 1, 5: 4, 45: 7}","[5, 45, 68]",54457681,Er1B4Rh7
Ba(B2Pt3)2,mp-1228679,0.0,5.07408593,0.0,"{56: 1, 5: 4, 78: 6}","[5, 56, 78]",54561786,Ba1B4Pt6
La(ReB)4,mp-1106361,0.0,8.19409969,0.2126874509259302,"{57: 1, 75: 4, 5: 4}","[5, 57, 75]",54571754,La1Re4B4
Ce(BOs)4,mp-1188930,0.2268999999999996,8.07229822,0.0,"{58: 1, 5: 4, 76: 4}","[5, 58, 76]",54581764,Ce1B4Os4
PrB4(IrOs)2,mp-1219765,0.0,7.35760457,0.0236970872222137,"{59: 1, 5: 4, 77: 2, 76: 2}","[5, 59, 76, 77]",54591762772,Pr1B4Ir2Os2
B4CCl6O,mp-545479,4.0708,-1.71720098,0.3132984612847211,"{5: 4, 6: 1, 17: 6, 8: 1}","[5, 6, 8, 17]",546181176,B4C1Cl6O1
B4COF6,mp-553954,4.9195,-3.04631771,0.3027401911805567,"{5: 4, 6: 1, 8: 1, 9: 6}","[5, 6, 8, 9]",54618196,B4C1O1F6
SmB4(IrOs)2,mp-1219112,0.0,7.31199154,0.0240865566666617,"{62: 1, 5: 4, 77: 2, 76: 2}","[5, 62, 76, 77]",54621762772,Sm1B4Ir2Os2
TbYNi4(B2C)2,mp-1217431,0.0,6.7890327,0.0041270833333326,"{65: 1, 39: 1, 28: 4, 5: 4, 6: 2}","[5, 6, 28, 39, 65]",5462284391651,Tb1Y1Ni4B4C2
Ca4MgB4(CO9)2,mp-1193253,0.0,1.14207054,0.1854405948706823,"{20: 4, 12: 1, 5: 4, 6: 2, 8: 18}","[5, 6, 8, 12, 20]",5462818121204,Ca4Mg1B4C2O18
Y3Ni4B4C3,mp-567692,0.0,6.07436639,0.0040555821428442,"{39: 3, 28: 4, 5: 4, 6: 3}","[5, 6, 28, 39]",5463284393,Y3Ni4B4C3
Ta36B4C35,mp-1006594,0.0,7.45386227,0.0950195625999992,"{73: 36, 5: 4, 6: 35}","[5, 6, 73]",546357336,Ta36B4C35
Ce5B4C5,mp-680054,0.0,7.68512127,0.0378732046428575,"{58: 5, 5: 4, 6: 5}","[5, 6, 58]",5465585,Ce5B4C5
ErReB4,mp-1190444,0.0,7.01395365,0.002135527500001,"{68: 1, 75: 1, 5: 4}","[5, 68, 75]",54681751,Er1Re1B4
Y16B4C8I19,mp-579614,0.2362000000000002,3.12318291,0.0,"{39: 16, 5: 4, 6: 8, 53: 19}","[5, 6, 39, 53]",546839165319,Y16B4C8I19
HfTa5B4,mp-1224295,0.2497999999999995,6.30618181,0.0624248158333244,"{72: 1, 73: 5, 5: 4}","[5, 72, 73]",54721735,Hf1Ta5B4
TaB4W3,mp-1217974,0.0,8.55909176,0.0055169003125001,"{73: 1, 5: 4, 74: 3}","[5, 73, 74]",54731743,Ta1B4W3
Ta3B4W3,mp-1217992,0.0,7.79939881,0.1081880760000046,"{73: 3, 5: 4, 74: 3}","[5, 73, 74]",54733743,Ta3B4W3
Th(BOs)4,mp-1179056,0.2428999999999996,8.16085064,0.0,"{90: 1, 5: 4, 76: 4}","[5, 76, 90]",54764901,Th1B4Os4
U(BOs)4,mp-1196935,0.0,9.65402133,0.058168645000018,"{92: 1, 5: 4, 76: 4}","[5, 76, 92]",54764921,U1B4Os4
La5B4N9,mp-29594,1.3068,7.63554731,0.0113855761342627,"{57: 5, 5: 4, 7: 9}","[5, 7, 57]",5479575,La5B4N9
ZnNi3(B2O5)2,mp-1215679,4.0858,2.31279345,0.0214549460416639,"{30: 1, 28: 3, 5: 4, 8: 10}","[5, 8, 28, 30]",54810283301,Zn1Ni3B4O10
Ho2Cu(B2O5)2,mp-18259,0.6646000000000001,3.97672451,0.0151231137500005,"{67: 2, 29: 1, 5: 4, 8: 10}","[5, 8, 29, 67]",54810291672,Ho2Cu1B4O10
Er2Cu(B2O5)2,mp-17699,0.6619000000000002,3.97746417,0.0137089030882329,"{68: 2, 29: 1, 5: 4, 8: 10}","[5, 8, 29, 68]",54810291682,Er2Cu1B4O10
Tm2Cu(B2O5)2,mp-18576,0.4687000000000001,4.00551968,0.0036533763419015,"{69: 2, 29: 1, 5: 4, 8: 10}","[5, 8, 29, 69]",54810291692,Tm2Cu1B4O10
Lu2Cu(B2O5)2,mp-17268,0.6675,4.1056539,0.0060029207843061,"{71: 2, 29: 1, 5: 4, 8: 10}","[5, 8, 29, 71]",54810291712,Lu2Cu1B4O10
BaBi2(B2O5)2,mp-560550,3.3498,3.21503849,0.0,"{56: 1, 83: 2, 5: 4, 8: 10}","[5, 8, 56, 83]",54810561832,Ba1Bi2B4O10
Ba5B4(O5F)2,mp-557176,4.5127,1.10610739,0.0062105530952285,"{56: 5, 5: 4, 8: 10, 9: 2}","[5, 8, 9, 56]",5481092565,Ba5B4O10F2
Na2B4O11,mp-1197879,0.0,-1.39869702,0.3649782525000002,"{11: 2, 5: 4, 8: 11}","[5, 8, 11]",54811112,Na2B4O11
K2GeB4O11,mp-1201387,0.7281,-0.50520154,0.2460489613237202,"{19: 2, 32: 1, 5: 4, 8: 11}","[5, 8, 19, 32]",54811192321,K2Ge1B4O11
Sr2Sc2B4O11,mp-556123,4.3474,1.71480038,0.0063728596710479,"{38: 2, 21: 2, 5: 4, 8: 11}","[5, 8, 21, 38]",54811212382,Sr2Sc2B4O11
Ba2Sc2B4O11,mp-558688,3.3548,1.764001,0.0082824841447166,"{56: 2, 21: 2, 5: 4, 8: 11}","[5, 8, 21, 56]",54811212562,Ba2Sc2B4O11
Cu3B4Pb2O11,mp-560136,0.0,4.12022015,0.0300330316785712,"{29: 3, 5: 4, 82: 2, 8: 11}","[5, 8, 29, 82]",54811293822,Cu3B4Pb2O11
Ba5B4O11,mp-3974,3.7917,1.70087068,0.0,"{56: 5, 5: 4, 8: 11}","[5, 8, 56]",54811565,Ba5B4O11
Pr4B4O11F2,mp-1197562,5.0600000000000005,2.69065652,0.0061434654365122,"{59: 4, 5: 4, 8: 11, 9: 2}","[5, 8, 9, 59]",5481192594,Pr4B4O11F2
Nd4B4O11F2,mp-1202742,5.1175,2.63552854,0.0207450006646823,"{60: 4, 5: 4, 8: 11, 9: 2}","[5, 8, 9, 60]",5481192604,Nd4B4O11F2
Eu4B4O11F2,mp-1199066,0.0,2.09373466,0.0155710907142871,"{63: 4, 5: 4, 8: 11, 9: 2}","[5, 8, 9, 63]",5481192634,Eu4B4O11F2
Gd4B4O11F2,mp-1203805,2.905,2.52216848,0.032976649520501,"{64: 4, 5: 4, 8: 11, 9: 2}","[5, 8, 9, 64]",5481192644,Gd4B4O11F2
Dy4B4O11F2,mp-1196433,5.4755,2.69850782,0.0308311285714193,"{66: 4, 5: 4, 8: 11, 9: 2}","[5, 8, 9, 66]",5481192664,Dy4B4O11F2
AlGa2Bi(BO3)4,mp-1228994,3.9445,7.31579425,0.0217045760384406,"{13: 1, 31: 2, 83: 1, 5: 4, 8: 12}","[5, 8, 13, 31, 83]",54812131312831,Al1Ga2Bi1B4O12
YAl3(BO3)4,mp-6062,5.157800000000001,3.58246638,0.0,"{39: 1, 13: 3, 5: 4, 8: 12}","[5, 8, 13, 39]",54812133391,Y1Al3B4O12
PrAl3(BO3)4,mp-556804,5.076200000000001,3.57728748,0.0049620112692441,"{59: 1, 13: 3, 5: 4, 8: 12}","[5, 8, 13, 59]",54812133591,Pr1Al3B4O12
NdAl3(BO3)4,mp-6535,4.873199999999999,3.44646379,0.0080355638629736,"{60: 1, 13: 3, 5: 4, 8: 12}","[5, 8, 13, 60]",54812133601,Nd1Al3B4O12
SmAl3(BO3)4,mp-1208886,5.3057,3.34428208,0.0057088806442244,"{62: 1, 13: 3, 5: 4, 8: 12}","[5, 8, 13, 62]",54812133621,Sm1Al3B4O12
EuAl3(BO3)4,mp-1019731,0.0,3.19503713,0.0056161995384229,"{63: 1, 13: 3, 5: 4, 8: 12}","[5, 8, 13, 63]",54812133631,Eu1Al3B4O12
GdAl3(BO3)4,mp-15359,2.8774,3.40644438,0.0039652311755293,"{64: 1, 13: 3, 5: 4, 8: 12}","[5, 8, 13, 64]",54812133641,Gd1Al3B4O12
TbAl3(BO3)4,mp-1208321,5.5144,3.38323391,0.004095639144257,"{65: 1, 13: 3, 5: 4, 8: 12}","[5, 8, 13, 65]",54812133651,Tb1Al3B4O12
DyAl3(BO3)4,mp-1212827,5.543100000000001,3.37661859,0.004046434894235,"{66: 1, 13: 3, 5: 4, 8: 12}","[5, 8, 13, 66]",54812133661,Dy1Al3B4O12
HoAl3(BO3)4,mp-1212105,5.5914,3.35746265,0.0037308069567565,"{67: 1, 13: 3, 5: 4, 8: 12}","[5, 8, 13, 67]",54812133671,Ho1Al3B4O12