formula,material_id,band_gap,efermi,energy_above_hull,comp_atoms,sorted_keys_comp_atoms,comp_number,new_formula
GaFe2BO5,mp-1097025,2.1137999999999995,3.30238412,0.0,"{31: 1, 26: 2, 5: 1, 8: 5}","[5, 8, 26, 31]",5185262311,Ga1Fe2B1O5
Fe3BO5,mp-22223,1.0194999999999994,3.50816274,0.0,"{26: 3, 5: 1, 8: 5}","[5, 8, 26]",5185263,Fe3B1O5
BaLaCuBO5,mp-14970,0.0,4.59233364,0.0018921994032918,"{56: 1, 57: 1, 29: 1, 5: 1, 8: 5}","[5, 8, 29, 56, 57]",5185291561571,Ba1La1Cu1B1O5
BaNdCuBO5,mp-10350,0.0,3.45778895,0.0,"{56: 1, 60: 1, 29: 1, 5: 1, 8: 5}","[5, 8, 29, 56, 60]",5185291561601,Ba1Nd1Cu1B1O5
BaSmCuBO5,mp-1214336,0.5394000000000001,3.51767748,0.0016954971666747,"{56: 1, 62: 1, 29: 1, 5: 1, 8: 5}","[5, 8, 29, 56, 62]",5185291561621,Ba1Sm1Cu1B1O5
BaGdCuBO5,mp-1214529,0.0,3.56913362,0.0184338249814874,"{56: 1, 64: 1, 29: 1, 5: 1, 8: 5}","[5, 8, 29, 56, 64]",5185291561641,Ba1Gd1Cu1B1O5
BaTbCuBO5,mp-1214316,0.5544000000000002,3.68490909,0.0158548738194168,"{56: 1, 65: 1, 29: 1, 5: 1, 8: 5}","[5, 8, 29, 56, 65]",5185291561651,Ba1Tb1Cu1B1O5
Cu3BO5,mp-1213419,0.0,3.6694361,0.0108509119444448,"{29: 3, 5: 1, 8: 5}","[5, 8, 29]",5185293,Cu3B1O5
LaGeBO5,mp-19957,4.030800000000001,4.05162067,0.0055845210416709,"{57: 1, 32: 1, 5: 1, 8: 5}","[5, 8, 32, 57]",5185321571,La1Ge1B1O5
PrGeBO5,mp-559590,3.9887,2.0778411,0.005337873368056,"{59: 1, 32: 1, 5: 1, 8: 5}","[5, 8, 32, 59]",5185321591,Pr1Ge1B1O5
NdGeBO5,mp-540996,4.0084,2.25700909,0.0042914264062634,"{60: 1, 32: 1, 5: 1, 8: 5}","[5, 8, 32, 60]",5185321601,Nd1Ge1B1O5
BaBAsO5,mp-9784,3.5436,1.22873258,0.0,"{56: 1, 5: 1, 33: 1, 8: 5}","[5, 8, 33, 56]",5185331561,Ba1B1As1O5
BAsPbO5,mp-22430,3.3847,2.65011823,0.0043767201121829,"{5: 1, 33: 1, 82: 1, 8: 5}","[5, 8, 33, 82]",5185331821,B1As1Pb1O5
Bi2BO5,mp-754692,0.0,4.08989455,0.0404582564583488,"{83: 2, 5: 1, 8: 5}","[5, 8, 83]",5185832,Bi2B1O5
Na3Mn2BO6,mp-1221286,1.9649,1.85818012,0.0985045166666918,"{11: 3, 25: 2, 5: 1, 8: 6}","[5, 8, 11, 25]",5186113252,Na3Mn2B1O6
MgBPO6,mp-1202864,0.0,0.73946801,0.2079445734589997,"{12: 1, 5: 1, 15: 1, 8: 6}","[5, 8, 12, 15]",5186121151,Mg1B1P1O6
Mg3BO6,mp-1189526,0.0,0.9408087,0.2305933879375006,"{12: 3, 5: 1, 8: 6}","[5, 8, 12]",5186123,Mg3B1O6
KSi2BO6,mp-1019889,5.3234,1.02374328,0.0,"{19: 1, 14: 2, 5: 1, 8: 6}","[5, 8, 14, 19]",5186142191,K1Si2B1O6
NiBPO6,mp-1199032,0.0899999999999998,1.0334201,0.2011624240432059,"{28: 1, 5: 1, 15: 1, 8: 6}","[5, 8, 15, 28]",5186151281,Ni1B1P1O6
KGe2BO6,mp-556463,3.498,-0.00208756,0.0096789638289251,"{19: 1, 32: 2, 5: 1, 8: 6}","[5, 8, 19, 32]",5186191322,K1Ge2B1O6
V3BO6,mp-770370,1.0272999999999994,4.35302714,0.0070782066250032,"{23: 3, 5: 1, 8: 6}","[5, 8, 23]",5186233,V3B1O6
Cr3BO6,mp-18551,0.1785000000000005,5.02348651,0.0220655067500015,"{24: 3, 5: 1, 8: 6}","[5, 8, 24]",5186243,Cr3B1O6
Fe3BO6,mp-22774,1.4383,3.08298854,0.001329351999999,"{26: 3, 5: 1, 8: 6}","[5, 8, 26]",5186263,Fe3B1O6
Cu2BO6,mp-1196064,0.0,0.13455541,0.291661434606481,"{29: 2, 5: 1, 8: 6}","[5, 8, 29]",5186292,Cu2B1O6
Ce33Fe13(B9C17)2,mp-1197596,0.0,7.76550318,0.0329699116305253,"{58: 33, 26: 13, 5: 18, 6: 34}","[5, 6, 26, 58]",51863426135833,Ce33Fe13B18C34
LaBMoO6,mp-558445,3.5623,2.47114044,0.0100872689413602,"{57: 1, 5: 1, 42: 1, 8: 6}","[5, 8, 42, 57]",5186421571,La1B1Mo1O6
CeBMoO6,mp-642871,0.1158000000000001,5.35804197,0.0736241153108316,"{58: 1, 5: 1, 42: 1, 8: 6}","[5, 8, 42, 58]",5186421581,Ce1B1Mo1O6
NdBMoO6,mp-1196885,3.5265000000000004,1.31458458,0.020237892922438,"{60: 1, 5: 1, 42: 1, 8: 6}","[5, 8, 42, 60]",5186421601,Nd1B1Mo1O6
LaBWO6,mp-1211317,3.8287,6.31577668,0.026527069254385,"{57: 1, 5: 1, 74: 1, 8: 6}","[5, 8, 57, 74]",5186571741,La1B1W1O6
Bi3BO6,mp-769033,2.1160000000000005,5.33744346,0.0668298708750008,"{83: 3, 5: 1, 8: 6}","[5, 8, 83]",5186833,Bi3B1O6
NaBO7,mp-1189672,0.2804999999999999,-0.90312395,0.2499087013888914,"{11: 1, 5: 1, 8: 7}","[5, 8, 11]",5187111,Na1B1O7
NaMg6BO7,mp-1030690,1.2988000000000008,5.44861033,0.4254562810090103,"{11: 1, 12: 6, 5: 1, 8: 7}","[5, 8, 11, 12]",5187111126,Na1Mg6B1O7
Na2SiBSbO7,mp-771025,2.1623,1.35778545,0.0789600366666558,"{11: 2, 14: 1, 5: 1, 51: 1, 8: 7}","[5, 8, 11, 14, 51]",5187112141511,Na2Si1B1Sb1O7
Na2SiBiBO7,mp-772999,0.0745,1.16085853,0.0850110774999999,"{11: 2, 14: 1, 83: 1, 5: 1, 8: 7}","[5, 8, 11, 14, 83]",5187112141831,Na2Si1Bi1B1O7
Na2VBPO7,mp-768554,1.2205,0.48647325,0.0903726230208592,"{11: 2, 23: 1, 5: 1, 15: 1, 8: 7}","[5, 8, 11, 15, 23]",5187112151231,Na2V1B1P1O7
Na2MnBPO7,mp-768579,0.0,0.52569803,0.0734193058680716,"{11: 2, 25: 1, 5: 1, 15: 1, 8: 7}","[5, 8, 11, 15, 25]",5187112151251,Na2Mn1B1P1O7
Na2FeBPO7,mp-756481,0.2705,0.16251949,0.0555778155382,"{11: 2, 26: 1, 5: 1, 15: 1, 8: 7}","[5, 8, 11, 15, 26]",5187112151261,Na2Fe1B1P1O7
Na2SnBPO7,mp-768592,1.8592,1.53380699,0.0940958288541855,"{11: 2, 50: 1, 5: 1, 15: 1, 8: 7}","[5, 8, 11, 15, 50]",5187112151501,Na2Sn1B1P1O7
Na2BiBPO7,mp-771773,0.0292,0.55596393,0.0757129595486123,"{11: 2, 83: 1, 5: 1, 15: 1, 8: 7}","[5, 8, 11, 15, 83]",5187112151831,Na2Bi1B1P1O7
Na2MnBSO7,mp-771142,0.9618,0.29536127,0.0939294251019946,"{11: 2, 25: 1, 5: 1, 16: 1, 8: 7}","[5, 8, 11, 16, 25]",5187112161251,Na2Mn1B1S1O7
Na2CuBSO7,mp-771122,0.628,0.2391348,0.0854919569431107,"{11: 2, 29: 1, 5: 1, 16: 1, 8: 7}","[5, 8, 11, 16, 29]",5187112161291,Na2Cu1B1S1O7
Na2BSbSO7,mp-771026,3.4585,0.94556712,0.0876838446875041,"{11: 2, 5: 1, 51: 1, 16: 1, 8: 7}","[5, 8, 11, 16, 51]",5187112161511,Na2B1Sb1S1O7
Na2BiBSO7,mp-772048,3.0667,0.94003245,0.0893321349999807,"{11: 2, 83: 1, 5: 1, 16: 1, 8: 7}","[5, 8, 11, 16, 83]",5187112161831,Na2Bi1B1S1O7
Na2VBAsO7,mp-773190,1.5444,0.31137755,0.0858846764285505,"{11: 2, 23: 1, 5: 1, 33: 1, 8: 7}","[5, 8, 11, 23, 33]",5187112231331,Na2V1B1As1O7
Na2MnBAsO7,mp-771164,0.0,0.19900284,0.059976801666667,"{11: 2, 25: 1, 5: 1, 33: 1, 8: 7}","[5, 8, 11, 25, 33]",5187112251331,Na2Mn1B1As1O7
Na2FeBAsO7,mp-756330,0.2686,-0.38261123,0.0560380000446363,"{11: 2, 26: 1, 5: 1, 33: 1, 8: 7}","[5, 8, 11, 26, 33]",5187112261331,Na2Fe1B1As1O7
Na2CoBAsO7,mp-771767,0.3303,0.43888625,0.1136413568981478,"{11: 2, 27: 1, 5: 1, 33: 1, 8: 7}","[5, 8, 11, 27, 33]",5187112271331,Na2Co1B1As1O7
Na2SnBAsO7,mp-772625,1.1457999999999997,1.15747517,0.0777797484027802,"{11: 2, 50: 1, 5: 1, 33: 1, 8: 7}","[5, 8, 11, 33, 50]",5187112331501,Na2Sn1B1As1O7
Na2BiBAsO7,mp-1176416,0.1372,0.25753707,0.0686332053826577,"{11: 2, 83: 1, 5: 1, 33: 1, 8: 7}","[5, 8, 11, 33, 83]",5187112331831,Na2Bi1B1As1O7
Na3VSiBO7,mp-771154,1.2076,1.76015681,0.0257282598798083,"{11: 3, 23: 1, 14: 1, 5: 1, 8: 7}","[5, 8, 11, 14, 23]",5187113141231,Na3V1Si1B1O7
Na3CrSiBO7,mp-771269,0.6675000000000002,1.3200296,0.0502706090865414,"{11: 3, 24: 1, 14: 1, 5: 1, 8: 7}","[5, 8, 11, 14, 24]",5187113141241,Na3Cr1Si1B1O7
Na3MnSiBO7,mp-772970,0.7340000000000002,1.27148107,0.0199617453044949,"{11: 3, 25: 1, 14: 1, 5: 1, 8: 7}","[5, 8, 11, 14, 25]",5187113141251,Na3Mn1Si1B1O7
Na3FeSiBO7,mp-771318,0.0,1.13890455,0.0229565747115403,"{11: 3, 26: 1, 14: 1, 5: 1, 8: 7}","[5, 8, 11, 14, 26]",5187113141261,Na3Fe1Si1B1O7
Na3CoSiBO7,mp-756360,0.0,2.03097368,0.0602787891346139,"{11: 3, 27: 1, 14: 1, 5: 1, 8: 7}","[5, 8, 11, 14, 27]",5187113141271,Na3Co1Si1B1O7
Na3SiBSbO7,mp-770708,0.0,3.68660802,0.0806276338701916,"{11: 3, 14: 1, 5: 1, 51: 1, 8: 7}","[5, 8, 11, 14, 51]",5187113141511,Na3Si1B1Sb1O7
Na3SiBiBO7,mp-772711,0.0,2.03771273,0.026838610686827,"{11: 3, 14: 1, 83: 1, 5: 1, 8: 7}","[5, 8, 11, 14, 83]",5187113141831,Na3Si1Bi1B1O7
Na3VBPO7,mp-756707,1.7686,2.04651687,0.0136133139354646,"{11: 3, 23: 1, 5: 1, 15: 1, 8: 7}","[5, 8, 11, 15, 23]",5187113151231,Na3V1B1P1O7
Na3CrBPO7,mp-756584,2.8333000000000004,1.41798262,0.0140734910027466,"{11: 3, 24: 1, 5: 1, 15: 1, 8: 7}","[5, 8, 11, 15, 24]",5187113151241,Na3Cr1B1P1O7
Na3MnBPO7,mp-768574,1.2012000000000005,1.4740677,0.0079231162671771,"{11: 3, 25: 1, 5: 1, 15: 1, 8: 7}","[5, 8, 11, 15, 25]",5187113151251,Na3Mn1B1P1O7
Na3FeBPO7,mp-756274,1.8914,1.76881142,0.0233223156181354,"{11: 3, 26: 1, 5: 1, 15: 1, 8: 7}","[5, 8, 11, 15, 26]",5187113151261,Na3Fe1B1P1O7
Na3CoBPO7,mp-756305,0.1369,1.89406817,0.0619592365842533,"{11: 3, 27: 1, 5: 1, 15: 1, 8: 7}","[5, 8, 11, 15, 27]",5187113151271,Na3Co1B1P1O7
Na3NiBPO7,mp-768540,0.0,1.60567197,0.0231513840659367,"{11: 3, 28: 1, 5: 1, 15: 1, 8: 7}","[5, 8, 11, 15, 28]",5187113151281,Na3Ni1B1P1O7
Na3CuBPO7,mp-756517,0.0,1.47163374,0.0613497439629124,"{11: 3, 29: 1, 5: 1, 15: 1, 8: 7}","[5, 8, 11, 15, 29]",5187113151291,Na3Cu1B1P1O7
Na3BSbPO7,mp-768556,3.5102,2.30138763,0.0461425652815874,"{11: 3, 5: 1, 51: 1, 15: 1, 8: 7}","[5, 8, 11, 15, 51]",5187113151511,Na3B1Sb1P1O7
Na3BiBPO7,mp-768582,3.630100000000001,1.63723994,0.0205220832026666,"{11: 3, 83: 1, 5: 1, 15: 1, 8: 7}","[5, 8, 11, 15, 83]",5187113151831,Na3Bi1B1P1O7
Na3FeBSO7,mp-774247,2.6907000000000005,2.20986175,0.0694082134615401,"{11: 3, 26: 1, 5: 1, 16: 1, 8: 7}","[5, 8, 11, 16, 26]",5187113161261,Na3Fe1B1S1O7
Na3CoBSO7,mp-770831,2.0964,1.99811266,0.1267164330128203,"{11: 3, 27: 1, 5: 1, 16: 1, 8: 7}","[5, 8, 11, 16, 27]",5187113161271,Na3Co1B1S1O7
Na3NiBSO7,mp-771143,2.6897999999999995,2.24578806,0.0743297044230821,"{11: 3, 28: 1, 5: 1, 16: 1, 8: 7}","[5, 8, 11, 16, 28]",5187113161281,Na3Ni1B1S1O7
Na3CuBSO7,mp-770795,0.3091999999999997,2.12367477,0.0891155865384538,"{11: 3, 29: 1, 5: 1, 16: 1, 8: 7}","[5, 8, 11, 16, 29]",5187113161291,Na3Cu1B1S1O7
Na3VBAsO7,mp-755361,2.2396000000000003,1.66844463,0.0214500956524732,"{11: 3, 23: 1, 5: 1, 33: 1, 8: 7}","[5, 8, 11, 23, 33]",5187113231331,Na3V1B1As1O7
Na3CrBAsO7,mp-771974,2.178,0.99233874,0.0207536012362634,"{11: 3, 24: 1, 5: 1, 33: 1, 8: 7}","[5, 8, 11, 24, 33]",5187113241331,Na3Cr1B1As1O7
Na3MnBAsO7,mp-770765,1.4399,1.10343035,0.0168469636160457,"{11: 3, 25: 1, 5: 1, 33: 1, 8: 7}","[5, 8, 11, 25, 33]",5187113251331,Na3Mn1B1As1O7
Na3FeBAsO7,mp-771393,2.0654,1.49244239,0.0300330473901091,"{11: 3, 26: 1, 5: 1, 33: 1, 8: 7}","[5, 8, 11, 26, 33]",5187113261331,Na3Fe1B1As1O7
Na3CoBAsO7,mp-771066,0.3547999999999998,1.61578713,0.0776030519826056,"{11: 3, 27: 1, 5: 1, 33: 1, 8: 7}","[5, 8, 11, 27, 33]",5187113271331,Na3Co1B1As1O7
Na3CuBAsO7,mp-772722,0.0,1.26155609,0.0602627996359892,"{11: 3, 29: 1, 5: 1, 33: 1, 8: 7}","[5, 8, 11, 29, 33]",5187113291331,Na3Cu1B1As1O7
Na3BSbAsO7,mp-770738,2.7266000000000004,2.0692752,0.0553004658012818,"{11: 3, 5: 1, 51: 1, 33: 1, 8: 7}","[5, 8, 11, 33, 51]",5187113331511,Na3B1Sb1As1O7
Na3BiBAsO7,mp-770475,3.0877,1.38390932,0.0225768228071139,"{11: 3, 83: 1, 5: 1, 33: 1, 8: 7}","[5, 8, 11, 33, 83]",5187113331831,Na3Bi1B1As1O7
KMg6BO7,mp-1031257,2.1175,4.38263828,0.566959332175756,"{19: 1, 12: 6, 5: 1, 8: 7}","[5, 8, 12, 19]",5187126191,K1Mg6B1O7
Co3BPO7,mp-562300,0.0033000000000003,3.22202766,0.1434825931249994,"{27: 3, 5: 1, 15: 1, 8: 7}","[5, 8, 15, 27]",5187151273,Co3B1P1O7
Zn3BPO7,mp-1178725,3.0714,0.97363919,0.0172584537500029,"{30: 3, 5: 1, 15: 1, 8: 7}","[5, 8, 15, 30]",5187151303,Zn3B1P1O7
Ba3BPO7,mp-554479,3.3373,1.80013244,0.0180786835416668,"{56: 3, 5: 1, 15: 1, 8: 7}","[5, 8, 15, 56]",5187151563,Ba3B1P1O7
Eu4BClO7,mp-1199302,0.0,1.7656954,0.1104357327564127,"{63: 4, 5: 1, 17: 1, 8: 7}","[5, 8, 17, 63]",5187171634,Eu4B1Cl1O7
Gd4BClO7,mp-1201615,2.9755,1.7685826,0.0,"{64: 4, 5: 1, 17: 1, 8: 7}","[5, 8, 17, 64]",5187171644,Gd4B1Cl1O7
Dy4BClO7,mp-1201047,4.7369,1.79915567,0.0,"{66: 4, 5: 1, 17: 1, 8: 7}","[5, 8, 17, 66]",5187171664,Dy4B1Cl1O7
BPb7Br3O7,mp-1201413,1.9254,3.13832462,0.0,"{5: 1, 82: 7, 35: 3, 8: 7}","[5, 8, 35, 82]",5187353827,B1Pb7Br3O7
NaMg6BO8,mp-1030730,3.5359,3.91674536,0.2858090562500006,"{11: 1, 12: 6, 5: 1, 8: 8}","[5, 8, 11, 12]",5188111126,Na1Mg6B1O8
NaSi3BO8,mp-696416,5.3553,7.07829948,0.0073395691025748,"{11: 1, 14: 3, 5: 1, 8: 8}","[5, 8, 11, 14]",5188111143,Na1Si3B1O8
Na4Mn3BO8,mp-1221176,1.8669,3.04658733,0.3223173279687499,"{11: 4, 25: 3, 5: 1, 8: 8}","[5, 8, 11, 25]",5188114253,Na4Mn3B1O8
Mg6AlBO8,mp-1032987,0.0171999999999989,8.20941903,0.4352014410937501,"{12: 6, 13: 1, 5: 1, 8: 8}","[5, 8, 12, 13]",5188126131,Mg6Al1B1O8
KMg6BO8,mp-1031258,2.5778,3.62686059,0.4375678554687505,"{19: 1, 12: 6, 5: 1, 8: 8}","[5, 8, 12, 19]",5188126191,K1Mg6B1O8
Mg6TiBO8,mp-1031319,0.0,7.45120115,0.4705072150468758,"{12: 6, 22: 1, 5: 1, 8: 8}","[5, 8, 12, 22]",5188126221,Mg6Ti1B1O8
Mg6MnBO8,mp-1032694,0.0,7.72793555,0.4222433375646552,"{12: 6, 25: 1, 5: 1, 8: 8}","[5, 8, 12, 25]",5188126251,Mg6Mn1B1O8
Mg6FeBO8,mp-1032236,0.0,6.9960242,0.4341464454687491,"{12: 6, 26: 1, 5: 1, 8: 8}","[5, 8, 12, 26]",5188126261,Mg6Fe1B1O8
Mg6CoBO8,mp-1032067,0.609,6.58722974,0.3870535355208346,"{12: 6, 27: 1, 5: 1, 8: 8}","[5, 8, 12, 27]",5188126271,Mg6Co1B1O8
Mg6GaBO8,mp-1033258,0.0,8.11271956,0.4824615919791659,"{12: 6, 31: 1, 5: 1, 8: 8}","[5, 8, 12, 31]",5188126311,Mg6Ga1B1O8
RbMg6BO8,mp-1033557,1.6866,3.87655281,0.5311510193749998,"{37: 1, 12: 6, 5: 1, 8: 8}","[5, 8, 12, 37]",5188126371,Rb1Mg6B1O8
YMg6BO8,mp-1031931,0.1792999999999995,7.33209034,0.4773028193940947,"{39: 1, 12: 6, 5: 1, 8: 8}","[5, 8, 12, 39]",5188126391,Y1Mg6B1O8
Mg6BSbO8,mp-1033199,0.2138999999999997,7.37820684,0.6531553505468732,"{12: 6, 5: 1, 51: 1, 8: 8}","[5, 8, 12, 51]",5188126511,Mg6B1Sb1O8
LaMg6BO8,mp-1030977,0.2141000000000001,7.42687104,0.5728359802215586,"{57: 1, 12: 6, 5: 1, 8: 8}","[5, 8, 12, 57]",5188126571,La1Mg6B1O8
BP(PbO2)4,mp-1201606,3.0005,6.68026291,0.0,"{5: 1, 15: 1, 82: 4, 8: 8}","[5, 8, 15, 82]",5188151824,B1P1Pb4O8
Th2BPO8,mp-1204611,4.532800000000001,4.55079,0.0395883351041739,"{90: 2, 5: 1, 15: 1, 8: 8}","[5, 8, 15, 90]",5188151902,Th2B1P1O8
KBaB(PO4)2,mp-1223526,5.3264,0.36843042,0.0,"{19: 1, 56: 1, 5: 1, 15: 2, 8: 8}","[5, 8, 15, 19, 56]",5188152191561,K1Ba1B1P2O8
K2B(PO4)2,mp-1211975,0.0,-0.39822965,0.0213801027724347,"{19: 2, 5: 1, 15: 2, 8: 8}","[5, 8, 15, 19]",5188152192,K2B1P2O8
Ba2B(PO4)2,mp-1214745,0.0,6.4684403,0.2226367532042124,"{56: 2, 5: 1, 15: 2, 8: 8}","[5, 8, 15, 56]",5188152562,Ba2B1P2O8
VB(PbO2)4,mp-1201529,0.0002999999999993,6.07798636,0.0,"{23: 1, 5: 1, 82: 4, 8: 8}","[5, 8, 23, 82]",5188231824,V1B1Pb4O8
Cs2(B2O3)9,mp-1178471,5.0938,4.17156887,0.0234621289195704,"{55: 2, 5: 18, 8: 27}","[5, 8, 55]",518827552,Cs2B18O27
Sm4B18Cl3O38,mp-1202477,0.0,0.10704277,0.2076005039854438,"{62: 4, 5: 18, 17: 3, 8: 38}","[5, 8, 17, 62]",518838173624,Sm4B18Cl3O38
Tl4Cu3(B9O22)2,mp-1201854,0.0,-1.99223809,0.3316306193840539,"{81: 4, 29: 3, 5: 18, 8: 44}","[5, 8, 29, 81]",518844293814,Tl4Cu3B18O44
NaZnBP2O9,mp-1210507,0.1026,-0.66464883,0.1720866835714289,"{11: 1, 30: 1, 5: 1, 15: 2, 8: 9}","[5, 8, 11, 15, 30]",5189111152301,Na1Zn1B1P2O9
KAlBP2O9,mp-1204336,0.2061,0.86546131,0.0499778168278783,"{19: 1, 13: 1, 5: 1, 15: 2, 8: 9}","[5, 8, 13, 15, 19]",5189131152191,K1Al1B1P2O9
Al3FeSiBO9,mp-1214903,3.9052,3.08293512,0.1180573448111168,"{13: 3, 26: 1, 14: 1, 5: 1, 8: 9}","[5, 8, 13, 14, 26]",5189133141261,Al3Fe1Si1B1O9
Al5BO9,mp-3281,4.9385,2.53200228,0.0,"{13: 5, 5: 1, 8: 9}","[5, 8, 13]",5189135,Al5B1O9
BaFeBP2O9,mp-1193185,1.7888,1.86568429,0.0391268238690472,"{56: 1, 26: 1, 5: 1, 15: 2, 8: 9}","[5, 8, 15, 26, 56]",5189152261561,Ba1Fe1B1P2O9
ZnBP2PbO9,mp-1192901,0.3284,1.94088616,0.0811935108992303,"{30: 1, 5: 1, 15: 2, 82: 1, 8: 9}","[5, 8, 15, 30, 82]",5189152301821,Zn1B1P2Pb1O9
BP2Pb2O9,mp-1182507,0.0234999999999998,2.71404721,0.0628094556547793,"{5: 1, 15: 2, 82: 2, 8: 9}","[5, 8, 15, 82]",5189152822,B1P2Pb2O9
V5BO9,mp-770506,1.2132,2.19554434,0.0587712491666696,"{23: 5, 5: 1, 8: 9}","[5, 8, 23]",5189235,V5B1O9
La3BWO9,mp-554773,3.7948,4.27413773,0.0,"{57: 3, 5: 1, 74: 1, 8: 9}","[5, 8, 57, 74]",5189573741,La3B1W1O9
Pr3BWO9,mp-558051,3.8078,2.0939295,0.0,"{59: 3, 5: 1, 74: 1, 8: 9}","[5, 8, 59, 74]",5189593741,Pr3B1W1O9
Nd3BWO9,mp-561272,3.8249,1.98128812,0.0,"{60: 3, 5: 1, 74: 1, 8: 9}","[5, 8, 60, 74]",5189603741,Nd3B1W1O9
Sm3BWO9,mp-561186,3.8257,1.84037068,0.0,"{62: 3, 5: 1, 74: 1, 8: 9}","[5, 8, 62, 74]",5189623741,Sm3B1W1O9
Eu3BWO9,mp-556626,0.1843999999999999,1.91567955,0.0488386742559505,"{63: 3, 5: 1, 74: 1, 8: 9}","[5, 8, 63, 74]",5189633741,Eu3B1W1O9
Gd3BWO9,mp-561177,3.2389,1.85421734,0.0068232977976112,"{64: 3, 5: 1, 74: 1, 8: 9}","[5, 8, 64, 74]",5189643741,Gd3B1W1O9
Dy3BWO9,mp-556997,3.7886,2.04952333,0.0032527067857213,"{66: 3, 5: 1, 74: 1, 8: 9}","[5, 8, 66, 74]",5189663741,Dy3B1W1O9
BaBPF10,mp-1199844,7.2843,-3.30054565,0.0,"{56: 1, 5: 1, 15: 1, 9: 10}","[5, 9, 15, 56]",51910151561,Ba1B1P1F10
BaBAsF10,mp-1198994,5.0288,-3.52350705,0.0,"{56: 1, 5: 1, 33: 1, 9: 10}","[5, 9, 33, 56]",51910331561,Ba1B1As1F10
BF2,mp-27864,4.8986,-3.24702119,0.1210680164814812,"{5: 1, 9: 2}","[5, 9]",5192,B1F2
K3Na4Si3BF22,mp-581403,6.9785,-2.2293661,0.002689112853548,"{19: 3, 11: 4, 14: 3, 5: 1, 9: 22}","[5, 9, 11, 14, 19]",51922114143193,K3Na4Si3B1F22
Np3B,mp-1186194,0.0,17.31607267,0.4463718182812499,"{93: 3, 5: 1}","[5, 93]",51933,Np3B1
BaBClF4,mp-1103527,5.9817,-0.44489472,0.0,"{56: 1, 5: 1, 17: 1, 9: 4}","[5, 9, 17, 56]",5194171561,Ba1B1Cl1F4
CsBPb(IF2)2,mp-1004530,2.7223,0.42746591,0.0641204575000058,"{55: 1, 5: 1, 82: 1, 53: 2, 9: 4}","[5, 9, 53, 55, 82]",5194532551821,Cs1B1Pb1I2F4
Nb4B20Mo11,mp-1220650,0.0,9.12724567,0.0152639050000011,"{41: 4, 5: 20, 42: 11}","[5, 41, 42]",5204144211,Nb4B20Mo11
B20Ir4W5,mp-1228750,0.0,7.17544671,0.1464897190996161,"{5: 20, 77: 4, 74: 5}","[5, 74, 77]",520745774,B20Ir4W5
K3Na9Sr4(BO2)20,mp-1224320,4.4954,0.23625716,0.0009133017927505,"{19: 3, 11: 9, 38: 4, 5: 20, 8: 40}","[5, 8, 11, 19, 38]",520840119193384,K3Na9Sr4B20O40
La4GdSc15(BO3)20,mp-1223571,2.1905,4.65593389,0.000550258816693,"{57: 4, 64: 1, 21: 15, 5: 20, 8: 60}","[5, 8, 21, 57, 64]",5208602115574641,La4Gd1Sc15B20O60
Mg2FeB2Ir5,mp-1188243,0.0,7.73208088,0.0,"{12: 2, 26: 1, 5: 2, 77: 5}","[5, 12, 26, 77]",52122261775,Mg2Fe1B2Ir5
AlB2,mp-944,0.0,9.75031349,0.0168349407999999,"{13: 1, 5: 2}","[5, 13]",52131,Al1B2
Al(FeB)2,mp-3805,0.0,8.25996647,0.0,"{13: 1, 26: 2, 5: 2}","[5, 13, 26]",52131262,Al1Fe2B2
AlB2Pb,mp-631514,0.0,6.55738687,1.8132382933999975,"{13: 1, 5: 2, 82: 1}","[5, 13, 82]",52131821,Al1B2Pb1
Al2CrB2Mo,mp-1228929,0.0,9.21214402,0.031676111123188,"{13: 2, 24: 1, 5: 2, 42: 1}","[5, 13, 24, 42]",52132241421,Al2Cr1B2Mo1
Al2B2Ru3,mp-29674,0.0,9.40978701,0.0794127178571475,"{13: 2, 5: 2, 44: 3}","[5, 13, 44]",52132443,Al2B2Ru3
Cr5SiB2,mp-2647006,0.0,8.14611561,0.0495611881250006,"{24: 5, 14: 1, 5: 2}","[5, 14, 24]",52141245,Cr5Si1B2
MnFe4SiB2,mp-1105397,0.0,7.43223956,0.0166784910937494,"{25: 1, 26: 4, 14: 1, 5: 2}","[5, 14, 25, 26]",52141251264,Mn1Fe4Si1B2
Fe4CoSiB2,mp-1105487,0.0,7.40980281,0.0466739696875011,"{26: 4, 27: 1, 14: 1, 5: 2}","[5, 14, 26, 27]",52141264271,Fe4Co1Si1B2
Fe5SiB2,mp-1105372,0.0,7.45429481,0.0018623334375007,"{26: 5, 14: 1, 5: 2}","[5, 14, 26]",52141265,Fe5Si1B2
SiB2Mo5,mp-4984,0.0,9.15861603,0.0089891643750021,"{14: 1, 5: 2, 42: 5}","[5, 14, 42]",52141425,Si1B2Mo5
Si4Ni9B2,mp-1219289,0.0,9.74994844,0.0080216779166715,"{14: 4, 28: 9, 5: 2}","[5, 14, 28]",52144289,Si4Ni9B2
B2PCl2,mp-28426,3.8135,-1.08759639,0.2202038192249977,"{5: 2, 15: 1, 17: 2}","[5, 15, 17]",52151172,B2P1Cl2
MnFe4B2P,mp-1105388,0.0,7.80773533,0.0165944393749999,"{25: 1, 26: 4, 5: 2, 15: 1}","[5, 15, 25, 26]",52151251264,Mn1Fe4B2P1
Fe4CoB2P,mp-1105426,0.0,7.8870817,0.0376782899999996,"{26: 4, 27: 1, 5: 2, 15: 1}","[5, 15, 26, 27]",52151264271,Fe4Co1B2P1
Fe5B2P,mp-9913,0.0,7.80011477,0.0,"{26: 5, 5: 2, 15: 1}","[5, 15, 26]",52151265,Fe5B2P1
Co5B2P,mp-1188319,0.0,7.72298485,0.0425368859374994,"{27: 5, 5: 2, 15: 1}","[5, 15, 27]",52151275,Co5B2P1
B2AsP,mp-1008528,1.3755999999999995,6.5731527,0.0678528597500012,"{5: 2, 33: 1, 15: 1}","[5, 15, 33]",52151331,B2As1P1
Ca(BS2)2,mp-30958,3.0095,4.39024698,0.0426269945666675,"{20: 1, 5: 2, 16: 4}","[5, 16, 20]",52164201,Ca1B2S4
Ba(BS2)2,mp-30126,2.7453000000000003,2.26586765,0.0,"{56: 1, 5: 2, 16: 4}","[5, 16, 56]",52164561,Ba1B2S4
Eu(BS2)2,mp-510243,1.0166000000000004,5.25552059,0.0017770529000022,"{63: 1, 5: 2, 16: 4}","[5, 16, 63]",52164631,Eu1B2S4
B2Pb2S5,mp-662553,1.6624,4.60992291,0.0,"{5: 2, 82: 2, 16: 5}","[5, 16, 82]",52165822,B2Pb2S5