formula,material_id,band_gap,efermi,energy_above_hull,comp_atoms,sorted_keys_comp_atoms,comp_number,new_formula
KB5O12,mp-1180867,0.0689999999999999,-2.00951075,0.5154408377083399,"{19: 1, 5: 5, 8: 12}","[5, 8, 19]",55812191,K1B5O12
Sc3B5O12,mp-1203138,3.7969,3.8387168,0.0,"{21: 3, 5: 5, 8: 12}","[5, 8, 21]",55812213,Sc3B5O12
La3B5O12,mp-779571,3.8196,4.00029226,0.0674887981750007,"{57: 3, 5: 5, 8: 12}","[5, 8, 57]",55812573,La3B5O12
Sm3B5O12,mp-780265,3.7351,5.89031428,0.0813950794999982,"{62: 3, 5: 5, 8: 12}","[5, 8, 62]",55812623,Sm3B5O12
Er3B5O12,mp-560278,5.3497,8.29210636,0.0184985646249984,"{68: 3, 5: 5, 8: 12}","[5, 8, 68]",55812683,Er3B5O12
Lu3B5O12,mp-554282,5.426500000000001,3.092462,0.0012406889375018,"{71: 3, 5: 5, 8: 12}","[5, 8, 71]",55812713,Lu3B5O12
Bi3B5O12,mp-23549,3.283,2.92253208,0.0034998932499998,"{83: 3, 5: 5, 8: 12}","[5, 8, 83]",55812833,Bi3B5O12
Ca3B5W8Cl2O13,mp-1215119,0.5954000000000002,2.97224122,1.049555706384414,"{20: 3, 5: 5, 74: 8, 17: 2, 8: 13}","[5, 8, 17, 20, 74]",55813172203748,Ca3B5W8Cl2O13
Ca2B5O13,mp-1202231,0.2428,0.14528062,0.2996348942812439,"{20: 2, 5: 5, 8: 13}","[5, 8, 20]",55813202,Ca2B5O13
NaCaB5O14,mp-1204559,0.2210999999999999,-0.9340442,0.4766461185317689,"{11: 1, 20: 1, 5: 5, 8: 14}","[5, 8, 11, 20]",55814111201,Na1Ca1B5O14
K2AlB5O14,mp-1197321,0.9032,-1.42386875,0.4628045629932913,"{19: 2, 13: 1, 5: 5, 8: 14}","[5, 8, 13, 19]",55814131192,K2Al1B5O14
Ca2SiB5O14,mp-867937,0.0296,0.47735086,0.1824629206439425,"{20: 2, 14: 1, 5: 5, 8: 14}","[5, 8, 14, 20]",55814141202,Ca2Si1B5O14
Ba3ZnB5PO14,mp-1019525,4.8405000000000005,1.11659374,0.0,"{56: 3, 30: 1, 5: 5, 15: 1, 8: 14}","[5, 8, 15, 30, 56]",55814151301563,Ba3Zn1B5P1O14
Al6B5O18,mp-1214854,0.4632,3.24279663,0.1160444172635832,"{13: 6, 5: 5, 8: 18}","[5, 8, 13]",55818136,Al6B5O18
Ca4Si3(BO4)5,mp-1227192,0.137,1.75856747,0.1036607595703138,"{20: 4, 14: 3, 5: 5, 8: 20}","[5, 8, 14, 20]",55820143204,Ca4Si3B5O20
Ca3B5Cl2O21,mp-1182639,0.0292,0.06929376,0.5783308116935428,"{20: 3, 5: 5, 17: 2, 8: 21}","[5, 8, 17, 20]",55821172203,Ca3B5Cl2O21
Na3B5SO8,mp-560266,3.8692,1.65685331,0.0054987076960815,"{11: 3, 5: 5, 16: 1, 8: 8}","[5, 8, 11, 16]",5588113161,Na3B5S1O8
BaNaB5O9,mp-1019554,5.0076,0.36805424,0.0,"{56: 1, 11: 1, 5: 5, 8: 9}","[5, 8, 11, 56]",5589111561,Ba1Na1B5O9
Ba2B5ClO9,mp-555742,5.2417,0.59572933,0.0,"{56: 2, 5: 5, 17: 1, 8: 9}","[5, 8, 17, 56]",5589171562,Ba2B5Cl1O9
KBaB5O9,mp-557420,4.8693,0.22717837,0.0,"{19: 1, 56: 1, 5: 5, 8: 9}","[5, 8, 19, 56]",5589191561,K1Ba1B5O9
Ba2B5BrO9,mp-1214841,5.3458,5.89487908,0.0,"{56: 2, 5: 5, 35: 1, 8: 9}","[5, 8, 35, 56]",5589351562,Ba2B5Br1O9
YB5O9,mp-768961,4.97,1.78629632,0.0004887056111186,"{39: 1, 5: 5, 8: 9}","[5, 8, 39]",5589391,Y1B5O9
Ag3B5O9,mp-1194638,1.8021,1.78947046,0.0073575920220569,"{47: 3, 5: 5, 8: 9}","[5, 8, 47]",5589473,Ag3B5O9
B5F6,mp-30936,3.2985,-2.34113652,0.1689039315909077,"{5: 5, 9: 6}","[5, 9]",5596,B5F6
Nb2AlB6,mp-1220697,0.0,8.61917773,0.0107917764852594,"{41: 2, 13: 1, 5: 6}","[5, 13, 41]",56131412,Nb2Al1B6
Al3(Co10B3)2,mp-505537,0.0,6.46696919,0.0057081436206889,"{13: 3, 27: 20, 5: 6}","[5, 13, 27]",561332720,Al3Co20B6
SiB6,mp-7700,0.0465999999999997,5.36431754,0.478924079642856,"{14: 1, 5: 6}","[5, 14]",56141,Si1B6
Ca2(Ni7B2)3,mp-1193221,0.0,7.38726393,0.0273312544827586,"{20: 2, 28: 21, 5: 6}","[5, 20, 28]",562022821,Ca2Ni21B6
Sc2(Co7B2)3,mp-1193429,0.0,5.78129458,0.0308833699999953,"{21: 2, 27: 21, 5: 6}","[5, 21, 27]",562122721,Sc2Co21B6
Ti20(CoB2)3,mp-1208329,0.0,5.73278525,0.2224575846839069,"{22: 20, 27: 3, 5: 6}","[5, 22, 27]",562220273,Ti20Co3B6
Ti2FeB6(Os2Rh)3,mp-1217275,0.0,8.1460344,0.2566337694290084,"{22: 2, 26: 1, 5: 6, 76: 6, 45: 3}","[5, 22, 26, 45, 76]",56222261453766,Ti2Fe1B6Os6Rh3
Ti3(Co10B3)2,mp-1193476,0.0,6.11951319,0.0024834134482709,"{22: 3, 27: 20, 5: 6}","[5, 22, 27]",562232720,Ti3Co20B6
V2(Ni7B2)3,mp-1207902,0.0,8.21397819,0.0042567093103418,"{23: 2, 28: 21, 5: 6}","[5, 23, 28]",562322821,V2Ni21B6
V3(Co10B3)2,mp-1193521,0.0,6.18974731,0.0022867874137881,"{23: 3, 27: 20, 5: 6}","[5, 23, 27]",562332720,V3Co20B6
CrRe13B6,mp-1226393,0.0,8.16041779,0.0110364940249922,"{24: 1, 75: 13, 5: 6}","[5, 24, 75]",562417513,Cr1Re13B6
Cr2(Co7B2)3,mp-542727,0.0,6.1069764,0.0141643279310343,"{24: 2, 27: 21, 5: 6}","[5, 24, 27]",562422721,Cr2Co21B6
Cr2(NiB2)3,mp-1226092,0.0,8.96772735,0.0268282430113639,"{24: 2, 28: 3, 5: 6}","[5, 24, 28]",56242283,Cr2Ni3B6
Pr(CrB3)2,mp-1095025,0.0,7.21921634,0.0200440619444428,"{59: 1, 24: 2, 5: 6}","[5, 24, 59]",56242591,Pr1Cr2B6
Nd(CrB3)2,mp-1078775,0.0,7.17034452,0.0150419588888901,"{60: 1, 24: 2, 5: 6}","[5, 24, 60]",56242601,Nd1Cr2B6
Sm(CrB3)2,mp-1079198,0.0,6.99882393,0.0181391569444446,"{62: 1, 24: 2, 5: 6}","[5, 24, 62]",56242621,Sm1Cr2B6
Cr3NiB6,mp-1226349,0.0,8.93845694,0.0414963024375012,"{24: 3, 28: 1, 5: 6}","[5, 24, 28]",56243281,Cr3Ni1B6
Cr9FeB6,mp-1226337,0.0,7.85572454,0.0071527161718751,"{24: 9, 26: 1, 5: 6}","[5, 24, 26]",56249261,Cr9Fe1B6
MnCo21B6Mo,mp-1221854,0.0,6.26930085,0.0295834811206914,"{25: 1, 27: 21, 5: 6, 42: 1}","[5, 25, 27, 42]",562512721421,Mn1Co21B6Mo1
Mn2(Co7B2)3,mp-1194187,0.0,6.0384727,0.0312367253448293,"{25: 2, 27: 21, 5: 6}","[5, 25, 27]",562522721,Mn2Co21B6
Mn2(Ni7B2)3,mp-1193061,0.0,8.10314255,0.0807269484051698,"{25: 2, 28: 21, 5: 6}","[5, 25, 28]",562522821,Mn2Ni21B6
Nd5(MnB3)2,mp-1104018,0.0,4.79054925,0.0119441544230802,"{60: 5, 25: 2, 5: 6}","[5, 25, 60]",56252605,Nd5Mn2B6
Mn3(Co10B3)2,mp-1193450,0.0,6.19272627,0.0478207409482758,"{25: 3, 27: 20, 5: 6}","[5, 25, 27]",562532720,Mn3Co20B6
Mn3(Ni10B3)2,mp-1194237,0.0,8.03749073,0.0966283646695398,"{25: 3, 28: 20, 5: 6}","[5, 25, 28]",562532820,Mn3Ni20B6
La(Fe2B)6,mp-1188975,0.0,6.69364963,0.0167266018421052,"{57: 1, 26: 12, 5: 6}","[5, 26, 57]",562612571,La1Fe12B6
Nd(Fe2B)6,mp-641957,0.0,5.88939194,0.0227898518421154,"{60: 1, 26: 12, 5: 6}","[5, 26, 60]",562612601,Nd1Fe12B6
Lu2FeB6,mp-505545,0.0,6.04391493,0.0,"{71: 2, 26: 1, 5: 6}","[5, 26, 71]",56261712,Lu2Fe1B6
Nb3(Fe10B3)2,mp-21666,0.0,6.02365596,0.0025725822413775,"{41: 3, 26: 20, 5: 6}","[5, 26, 41]",562620413,Nb3Fe20B6
Nd2(Fe7B2)3,mp-1210236,0.0,5.73454823,0.1033308423706893,"{60: 2, 26: 21, 5: 6}","[5, 26, 60]",562621602,Nd2Fe21B6
U2(Fe7B2)3,mp-1208129,0.0,7.31812615,0.0051032724137911,"{92: 2, 26: 21, 5: 6}","[5, 26, 92]",562621922,U2Fe21B6
Fe22B6W,mp-1224794,0.0,5.97305083,0.0077735729310344,"{26: 22, 5: 6, 74: 1}","[5, 26, 74]",562622741,Fe22B6W1
Fe23B6,mp-542758,0.0,5.57063563,0.0215678037931024,"{26: 23, 5: 6}","[5, 26]",562623,Fe23B6
Ce5(FeB3)2,mp-1105171,0.0,8.47299736,0.0,"{58: 5, 26: 2, 5: 6}","[5, 26, 58]",56262585,Ce5Fe2B6
Nd5(FeB3)2,mp-8793,0.0,4.7698549,0.0,"{60: 5, 26: 2, 5: 6}","[5, 26, 60]",56262605,Nd5Fe2B6
U(FeB3)2,mp-1087505,0.0,9.85442209,0.0,"{92: 1, 26: 2, 5: 6}","[5, 26, 92]",56262921,U1Fe2B6
Fe3(Ni10B3)2,mp-1193589,0.0,7.73009511,0.0299607029310333,"{26: 3, 28: 20, 5: 6}","[5, 26, 28]",562632820,Fe3Ni20B6
Y4(FeB2)3,mp-1104580,0.0,4.79481406,0.0780106021153841,"{39: 4, 26: 3, 5: 6}","[5, 26, 39]",56263394,Y4Fe3B6
Ce4(FeB2)3,mp-1104452,0.0,8.39800874,0.0531301063736231,"{58: 4, 26: 3, 5: 6}","[5, 26, 58]",56263584,Ce4Fe3B6
Pr4(FeB2)3,mp-1104305,0.0,5.14040784,0.109371793410256,"{59: 4, 26: 3, 5: 6}","[5, 26, 59]",56263594,Pr4Fe3B6
Nd4(FeB2)3,mp-1104491,0.0,5.12094863,0.1072299119230795,"{60: 4, 26: 3, 5: 6}","[5, 26, 60]",56263604,Nd4Fe3B6
Sm4(FeB2)3,mp-1104274,0.0,4.91270349,0.0402646757307687,"{62: 4, 26: 3, 5: 6}","[5, 26, 62]",56263624,Sm4Fe3B6
Tb4(FeB2)3,mp-1104685,0.0,4.87348338,0.0630178841666655,"{65: 4, 26: 3, 5: 6}","[5, 26, 65]",56263654,Tb4Fe3B6
Dy4(FeB2)3,mp-1105065,0.0,4.90233711,0.124410006570514,"{66: 4, 26: 3, 5: 6}","[5, 26, 66]",56263664,Dy4Fe3B6
LaFe6(CoB)6,mp-1222963,0.0,6.60855646,0.0536716678298541,"{57: 1, 26: 6, 27: 6, 5: 6}","[5, 26, 27, 57]",56266276571,La1Fe6Co6B6
Y(Co2B)6,mp-1188251,0.0,5.87623236,0.0,"{39: 1, 27: 12, 5: 6}","[5, 27, 39]",562712391,Y1Co12B6
Lu2CoB6,mp-505543,0.0,5.97168577,0.0006190608333307,"{71: 2, 27: 1, 5: 6}","[5, 27, 71]",56271712,Lu2Co1B6
Pr5Co19B6,mp-542034,0.0,5.20313536,0.0287983509099465,"{59: 5, 27: 19, 5: 6}","[5, 27, 59]",562719595,Pr5Co19B6
Nd5Co19B6,mp-569415,0.0,5.25847972,0.0209370423061994,"{60: 5, 27: 19, 5: 6}","[5, 27, 60]",562719605,Nd5Co19B6
In3(Co10B3)2,mp-1193971,0.0,6.885312,0.056606319827587,"{49: 3, 27: 20, 5: 6}","[5, 27, 49]",562720493,In3Co20B6
Ga2(Co7B2)3,mp-1194289,0.0,5.8615499,0.005157408793103,"{31: 2, 27: 21, 5: 6}","[5, 27, 31]",562721312,Ga2Co21B6
Co21(GeB3)2,mp-1193515,0.0,6.32847819,0.0158755868965503,"{27: 21, 32: 2, 5: 6}","[5, 27, 32]",562721322,Co21Ge2B6
Zr2(Co7B2)3,mp-541854,0.0,5.79197215,0.0133683994827595,"{40: 2, 27: 21, 5: 6}","[5, 27, 40]",562721402,Zr2Co21B6
Co21(B3Mo)2,mp-542728,0.0,6.38962936,0.0300989127586213,"{27: 21, 5: 6, 42: 2}","[5, 27, 42]",562721422,Co21B6Mo2
In2(Co7B2)3,mp-1194164,0.0,6.59947488,0.0298047768390805,"{49: 2, 27: 21, 5: 6}","[5, 27, 49]",562721492,In2Co21B6
Co21(SnB3)2,mp-542739,0.0,6.75644931,0.0144657439080457,"{27: 21, 50: 2, 5: 6}","[5, 27, 50]",562721502,Co21Sn2B6
Co21(B3Sb)2,mp-505544,0.0,7.00090512,0.0039550212068988,"{27: 21, 5: 6, 51: 2}","[5, 27, 51]",562721512,Co21B6Sb2
Hf2(Co7B2)3,mp-1194066,0.0,5.90779699,0.0059094215517259,"{72: 2, 27: 21, 5: 6}","[5, 27, 72]",562721722,Hf2Co21B6
Co21(B3W)2,mp-672221,0.0,6.22923433,0.0226807075862076,"{27: 21, 5: 6, 74: 2}","[5, 27, 74]",562721742,Co21B6W2
Co21(ReB3)2,mp-541852,0.0,6.27362658,0.0293141939655168,"{27: 21, 75: 2, 5: 6}","[5, 27, 75]",562721752,Co21Re2B6
In(Co11B3)2,mp-1194097,0.0,6.32926621,0.0614498659195401,"{49: 1, 27: 22, 5: 6}","[5, 27, 49]",562722491,In1Co22B6
Co22B6Sb,mp-1194407,0.0,6.43827245,0.0814282336206897,"{27: 22, 5: 6, 51: 1}","[5, 27, 51]",562722511,Co22B6Sb1
Co23B6,mp-639154,0.0,5.86345795,0.0336659625862072,"{27: 23, 5: 6}","[5, 27]",562723,Co23B6
Pr5(CoB3)2,mp-7735,0.0,4.931632,0.0032323675384615,"{59: 5, 27: 2, 5: 6}","[5, 27, 59]",56272595,Pr5Co2B6
Y4(CoB2)3,mp-1104597,0.0,4.87905093,0.1806223334615406,"{39: 4, 27: 3, 5: 6}","[5, 27, 39]",56273394,Y4Co3B6
Ce4(CoB2)3,mp-1103972,0.0,8.39209152,0.0815989794230773,"{58: 4, 27: 3, 5: 6}","[5, 27, 58]",56273584,Ce4Co3B6
Pr4(CoB2)3,mp-1105066,0.0,5.18321292,0.1954512055256412,"{59: 4, 27: 3, 5: 6}","[5, 27, 59]",56273594,Pr4Co3B6
Sm4(CoB2)3,mp-1103681,0.0,4.99132986,0.1783435308076919,"{62: 4, 27: 3, 5: 6}","[5, 27, 62]",56273624,Sm4Co3B6
Ho4(CoB2)3,mp-1103959,0.0,4.79331688,0.178454269551282,"{67: 4, 27: 3, 5: 6}","[5, 27, 67]",56273674,Ho4Co3B6
Er4(CoB2)3,mp-1105098,0.0,4.73712654,0.1904392275000024,"{68: 4, 27: 3, 5: 6}","[5, 27, 68]",56273684,Er4Co3B6
Ho(Ni2B)6,mp-1212548,0.0,7.61287138,0.0766995713157898,"{67: 1, 28: 12, 5: 6}","[5, 28, 67]",562812671,Ho1Ni12B6
Ho2(Ni5B2)3,mp-567285,0.0,7.65968235,0.1822265882608693,"{67: 2, 28: 15, 5: 6}","[5, 28, 67]",562815672,Ho2Ni15B6
Lu5Ni19B6,mp-8531,0.0,6.82091094,0.0167064526732865,"{71: 5, 28: 19, 5: 6}","[5, 28, 71]",562819715,Lu5Ni19B6
Ni20(SnB2)3,mp-29724,0.0,9.18373043,0.009313329949709,"{28: 20, 50: 3, 5: 6}","[5, 28, 50]",562820503,Ni20Sn3B6
Hf3(Ni10B3)2,mp-1193581,0.0,7.99443782,0.0398225454597627,"{72: 3, 28: 20, 5: 6}","[5, 28, 72]",562820723,Hf3Ni20B6
Ce2(Ni7B2)3,mp-541851,0.0,8.59520618,0.0045495499843362,"{58: 2, 28: 21, 5: 6}","[5, 28, 58]",562821582,Ce2Ni21B6
Er2(Ni7B2)3,mp-1193830,0.0,7.61673418,0.0039440337499927,"{68: 2, 28: 21, 5: 6}","[5, 28, 68]",562821682,Er2Ni21B6
Ni23B6,mp-20962,0.0,7.98581129,0.0257919503448285,"{28: 23, 5: 6}","[5, 28]",562823,Ni23B6
Tb2(NiB2)3,mp-1102097,0.0,6.53352439,0.0098527100000209,"{65: 2, 28: 3, 5: 6}","[5, 28, 65]",56283652,Tb2Ni3B6
Dy2(NiB2)3,mp-1103438,0.0,6.61058512,0.0024547425000109,"{66: 2, 28: 3, 5: 6}","[5, 28, 66]",56283662,Dy2Ni3B6
Ho2(NiB2)3,mp-1095435,0.0,6.43582723,0.1132934347798295,"{67: 2, 28: 3, 5: 6}","[5, 28, 67]",56283672,Ho2Ni3B6
Ba2(Ni3B2)3,mp-29219,0.0,6.16413334,0.0111784522058853,"{56: 2, 28: 9, 5: 6}","[5, 28, 56]",56289562,Ba2Ni9B6
Zn6B6Ir11,mp-1178665,0.0,7.42773929,0.0102635356677147,"{30: 6, 5: 6, 77: 11}","[5, 30, 77]",563067711,Zn6B6Ir11
YB6,mp-2203,0.0,6.97783119,0.0114038861607141,"{39: 1, 5: 6}","[5, 39]",56391,Y1B6
Y2B6Ru,mp-1196778,0.0,6.5535109,0.0,"{39: 2, 5: 6, 44: 1}","[5, 39, 44]",56392441,Y2B6Ru1
Y2(B2Rh3)3,mp-1216181,0.0,5.89577112,0.0,"{39: 2, 5: 6, 45: 9}","[5, 39, 45]",56392459,Y2B6Rh9
Y2ReB6,mp-504560,0.0,5.99488832,0.0,"{39: 2, 75: 1, 5: 6}","[5, 39, 75]",56392751,Y2Re1B6
Y2B6Os,mp-1201886,0.0,6.68815191,0.0,"{39: 2, 5: 6, 76: 1}","[5, 39, 76]",56392761,Y2B6Os1
Y3(B3Os4)2,mp-571209,0.0,6.54905488,0.0249500460294154,"{39: 3, 5: 6, 76: 8}","[5, 39, 76]",56393768,Y3B6Os8
Pu2B6Ru,mp-1201055,0.0,10.84574487,0.0029654404861094,"{94: 2, 5: 6, 44: 1}","[5, 44, 94]",56441942,Pu2B6Ru1
Tm2(B2Rh3)3,mp-1216756,0.0,5.82527487,0.0014317379117647,"{69: 2, 5: 6, 45: 9}","[5, 45, 69]",56459692,Tm2B6Rh9
Lu2(B2Rh3)3,mp-1222515,0.0,5.74785712,0.0125573749411742,"{71: 2, 5: 6, 45: 9}","[5, 45, 71]",56459712,Lu2B6Rh9
SnB6,mp-1094049,0.7525000000000004,6.27917655,0.1739272985714297,"{50: 1, 5: 6}","[5, 50]",56501,Sn1B6
BaB6,mp-954,0.0,4.20854871,0.0,"{56: 1, 5: 6}","[5, 56]",56561,Ba1B6
Nd15(B3C10)2,mp-1220622,0.0,4.72762983,0.0269173391219474,"{60: 15, 5: 6, 6: 20}","[5, 6, 60]",566206015,Nd15B6C20
TbY2Ni6(B2C)3,mp-1217435,0.0,6.73612058,0.0044876538888862,"{65: 1, 39: 2, 28: 6, 5: 6, 6: 3}","[5, 6, 28, 39, 65]",5663286392651,Tb1Y2Ni6B6C3
Nb7(B2C)3,mp-29982,0.0,7.41514145,0.0112856389062532,"{41: 7, 5: 6, 6: 3}","[5, 6, 41]",5663417,Nb7B6C3
FeB6(CO)4,mp-818725,1.5716,-0.75298839,1.583210805173609,"{26: 1, 5: 6, 6: 4, 8: 4}","[5, 6, 8, 26]",566484261,Fe1B6C4O4
TbB6,mp-12763,0.0,6.98565124,0.0086868888392874,"{65: 1, 5: 6}","[5, 65]",56651,Tb1B6
DyB6,mp-568319,0.0,6.95660541,0.0207643038392859,"{66: 1, 5: 6}","[5, 66]",56661,Dy1B6
HoB6,mp-571491,0.0,6.90347834,0.0373827685714296,"{67: 1, 5: 6}","[5, 67]",56671,Ho1B6
ErB6,mp-1296,0.0,6.90686539,0.0535753875000022,"{68: 1, 5: 6}","[5, 68]",56681,Er1B6
TmB6,mp-571352,0.0,6.87839166,0.0793173577678558,"{69: 1, 5: 6}","[5, 69]",56691,Tm1B6
LuB6,mp-12660,0.0,6.85195841,0.1030026290178547,"{71: 1, 5: 6}","[5, 71]",56711,Lu1B6
Ba8Sr(BN2)6,mp-1228031,2.038,2.01731492,0.003840729465022,"{56: 8, 38: 1, 5: 6, 7: 12}","[5, 7, 38, 56]",56712381568,Ba8Sr1B6N12
Ba8Eu(BN2)6,mp-1228663,0.3669000000000002,3.70742527,0.0,"{56: 8, 63: 1, 5: 6, 7: 12}","[5, 7, 56, 63]",56712568631,Ba8Eu1B6N12
U2B6Os,mp-1202841,0.0,10.9732107,0.0014794705555534,"{92: 2, 5: 6, 76: 1}","[5, 76, 92]",56761922,U2B6Os1
Pu2B6Os,mp-1205010,0.0,11.05789741,0.0087319946527788,"{94: 2, 5: 6, 76: 1}","[5, 76, 94]",56761942,Pu2B6Os1
Fe65(BN)6,mp-1097708,0.0,4.60808534,0.1645492712987,"{26: 65, 5: 6, 7: 6}","[5, 7, 26]",56762665,Fe65B6N6
B6O,mp-1346,1.8564,5.28513093,0.0,"{5: 6, 8: 1}","[5, 8]",5681,B6O1
RbNa2B6ClO10,mp-1194580,5.1287,4.8675445,0.0025478586818064,"{37: 1, 11: 2, 5: 6, 17: 1, 8: 10}","[5, 8, 11, 17, 37]",56810112171371,Rb1Na2B6Cl1O10
RbNa2B6BrO10,mp-1195617,5.010599999999999,-0.15642096,0.002137403458323,"{37: 1, 11: 2, 5: 6, 35: 1, 8: 10}","[5, 8, 11, 35, 37]",56810112351371,Rb1Na2B6Br1O10
Na3B6ClO10,mp-1195615,5.1851,5.18072371,0.0043700804583215,"{11: 3, 5: 6, 17: 1, 8: 10}","[5, 8, 11, 17]",56810113171,Na3B6Cl1O10
Na3B6BrO10,mp-1197987,4.726299999999999,5.1228966,0.000707071708323,"{11: 3, 5: 6, 35: 1, 8: 10}","[5, 8, 11, 35]",56810113351,Na3B6Br1O10
Na2ZnB6O11,mp-1020181,4.7511,0.15868722,0.0028759504722222,"{11: 2, 30: 1, 5: 6, 8: 11}","[5, 8, 11, 30]",56811112301,Na2Zn1B6O11
Ba3B6O11F2,mp-1195844,5.2662,1.18792598,0.0,"{56: 3, 5: 6, 8: 11, 9: 2}","[5, 8, 9, 56]",5681192563,Ba3B6O11F2
B6Pb3O11F2,mp-1197284,3.0253999999999994,6.09613838,0.0603530804221206,"{5: 6, 82: 3, 8: 11, 9: 2}","[5, 8, 9, 82]",5681192823,B6Pb3O11F2
Ba2Mg(BO2)6,mp-1019528,4.9106000000000005,1.03838435,0.0062119546131,"{56: 2, 12: 1, 5: 6, 8: 12}","[5, 8, 12, 56]",56812121562,Ba2Mg1B6O12
KBaY(BO2)6,mp-1223465,5.3259,5.41263777,0.0158721662301637,"{19: 1, 56: 1, 39: 1, 5: 6, 8: 12}","[5, 8, 19, 39, 56]",56812191391561,K1Ba1Y1B6O12
Ba2Ca(BO2)6,mp-8271,4.9616,0.58409252,0.0,"{56: 2, 20: 1, 5: 6, 8: 12}","[5, 8, 20, 56]",56812201562,Ba2Ca1B6O12
Ba2Mn(BO2)6,mp-18990,3.978800000000001,1.82372392,0.0,"{56: 2, 25: 1, 5: 6, 8: 12}","[5, 8, 25, 56]",56812251562,Ba2Mn1B6O12
Ba2Co(BO2)6,mp-18735,0.0,3.03798915,0.0606004351984008,"{56: 2, 27: 1, 5: 6, 8: 12}","[5, 8, 27, 56]",56812271562,Ba2Co1B6O12
Ba2Zn(BO2)6,mp-558680,4.2769,4.7717128,0.00586544196425,"{56: 2, 30: 1, 5: 6, 8: 12}","[5, 8, 30, 56]",56812301562,Ba2Zn1B6O12
Y(BO2)6,mp-1200404,0.1572,-0.47097417,0.1249254348355251,"{39: 1, 5: 6, 8: 12}","[5, 8, 39]",56812391,Y1B6O12
Ba2Cd(BO2)6,mp-1190588,4.3316,0.69925647,0.0,"{56: 2, 48: 1, 5: 6, 8: 12}","[5, 8, 48, 56]",56812481562,Ba2Cd1B6O12
Cd2B6PbO12,mp-1194787,3.5842,5.49188032,0.0033353986202682,"{48: 2, 5: 6, 82: 1, 8: 12}","[5, 8, 48, 82]",56812482821,Cd2B6Pb1O12
Ba2B6PbO12,mp-1194549,4.233700000000001,1.22392774,0.0,"{56: 2, 5: 6, 82: 1, 8: 12}","[5, 8, 56, 82]",56812562821,Ba2B6Pb1O12
Gd(BO2)6,mp-1202527,0.128,-0.68526359,0.1351381703618397,"{64: 1, 5: 6, 8: 12}","[5, 8, 64]",56812641,Gd1B6O12
Ho(BO2)6,mp-1203590,0.1291999999999999,-0.44291389,0.1367959917105246,"{67: 1, 5: 6, 8: 12}","[5, 8, 67]",56812671,Ho1B6O12
NaNdB6O13,mp-1198569,0.0,-0.41594584,0.1803968277480327,"{11: 1, 60: 1, 5: 6, 8: 13}","[5, 8, 11, 60]",56813111601,Na1Nd1B6O13
Na3VB6O13,mp-557235,2.9370000000000003,0.37591512,0.0028426473550853,"{11: 3, 23: 1, 5: 6, 8: 13}","[5, 8, 11, 23]",56813113231,Na3V1B6O13
Co4B6O13,mp-19343,3.0013,2.48375592,0.1211572174396131,"{27: 4, 5: 6, 8: 13}","[5, 8, 27]",56813274,Co4B6O13
Cd4B6O13,mp-755260,2.4314,1.33330088,0.0266771154347864,"{48: 4, 5: 6, 8: 13}","[5, 8, 48]",56813484,Cd4B6O13
Sr(B3O7)2,mp-1179473,0.0,-0.20864603,0.4895715191732854,"{38: 1, 5: 6, 8: 14}","[5, 8, 38]",56814381,Sr1B6O14
Bi3(B3O7)2,mp-1191820,0.0182999999999999,3.17026103,0.0694473569565206,"{83: 3, 5: 6, 8: 14}","[5, 8, 83]",56814833,Bi3B6O14
NaU(B2O5)3,mp-1201797,0.2873,0.0009575,0.2297476682789865,"{11: 1, 92: 1, 5: 6, 8: 15}","[5, 8, 11, 92]",56815111921,Na1U1B6O15
Al4(B2O5)3,mp-31408,5.8173,1.77267999,0.0,"{13: 4, 5: 6, 8: 15}","[5, 8, 13]",56815134,Al4B6O15
Ca(B2O5)3,mp-1204348,0.0360999999999999,-0.78435157,0.5909351473295485,"{20: 1, 5: 6, 8: 15}","[5, 8, 20]",56815201,Ca1B6O15
Ba3Y2(B2O5)3,mp-1019527,4.525,0.70258014,0.0,"{56: 3, 39: 2, 5: 6, 8: 15}","[5, 8, 39, 56]",56815392563,Ba3Y2B6O15
La4(B2O5)3,mp-772771,4.555999999999999,4.95929543,0.0230724338399923,"{57: 4, 5: 6, 8: 15}","[5, 8, 57]",56815574,La4B6O15
Dy4(B2O5)3,mp-18108,5.326099999999999,2.82190633,0.0202374136000003,"{66: 4, 5: 6, 8: 15}","[5, 8, 66]",56815664,Dy4B6O15
Ho4(B2O5)3,mp-17714,5.5299,2.81612664,0.0384713639499985,"{67: 4, 5: 6, 8: 15}","[5, 8, 67]",56815674,Ho4B6O15
Er4(B2O5)3,mp-772497,5.656499999999999,2.81178911,0.0414092292999992,"{68: 4, 5: 6, 8: 15}","[5, 8, 68]",56815684,Er4B6O15
Tm4(B2O5)3,mp-772919,5.492000000000001,2.72861821,0.0205516460200012,"{69: 4, 5: 6, 8: 15}","[5, 8, 69]",56815694,Tm4B6O15
Bi4(B2O5)3,mp-768923,3.2042,4.53087349,0.0076415792000013,"{83: 4, 5: 6, 8: 15}","[5, 8, 83]",56815834,Bi4B6O15
Mg(B3O8)2,mp-1181440,0.0093999999999998,-1.9200765,0.681782354583337,"{12: 1, 5: 6, 8: 16}","[5, 8, 12]",56816121,Mg1B6O16
Ba3Si2(B3O8)2,mp-1019526,5.4031,1.96475868,0.0,"{56: 3, 14: 2, 5: 6, 8: 16}","[5, 8, 14, 56]",56816142563,Ba3Si2B6O16
Sr3Ge2(B3O8)2,mp-1020650,4.4324,1.96453542,0.0023315776851893,"{38: 3, 32: 2, 5: 6, 8: 16}","[5, 8, 32, 38]",56816322383,Sr3Ge2B6O16
Ba3Ge2(B3O8)2,mp-1194165,4.1759,1.87465826,0.0,"{56: 3, 32: 2, 5: 6, 8: 16}","[5, 8, 32, 56]",56816322563,Ba3Ge2B6O16
CaMgB6O17,mp-1204390,0.0,0.21995464,0.4636990532666782,"{20: 1, 12: 1, 5: 6, 8: 17}","[5, 8, 12, 20]",56817121201,Ca1Mg1B6O17
KNaSr8(BO3)6,mp-1223494,3.7852,5.29456769,0.0091247801470633,"{19: 1, 11: 1, 38: 8, 5: 6, 8: 18}","[5, 8, 11, 19, 38]",56818111191388,K1Na1Sr8B6O18