formula,material_id,band_gap,efermi,energy_above_hull,comp_atoms,sorted_keys_comp_atoms,comp_number,new_formula
CaB12(H3O)8,mp-1238166,1.1290000000000002,-2.11167553,0.4208319524888804,"{20: 1, 5: 12, 1: 24, 8: 8}","[1, 5, 8, 20]",12451288201,Ca1B12H24O8
K3Gd(BH4)6,mp-1194976,2.7268,-0.58312658,0.005723456617655387,"{19: 3, 64: 1, 5: 6, 1: 24}","[1, 5, 19, 64]",12456193641,K3Gd1B6H24
Cs2B12H2OF12,mp-1198494,2.7322,2.02279731,0.16733290625159913,"{55: 2, 5: 12, 1: 2, 8: 1, 9: 12}","[1, 5, 8, 9, 55]",1251281912552,Cs2B12H2O1F12
BH2N,mp-29475,5.2948,-2.62264785,0.012248568333332877,"{5: 1, 1: 2, 7: 1}","[1, 5, 7]",125171,B1H2N1
BH2NCl2,mp-720847,5.8178,-0.48825376,0.006040841111111028,"{5: 1, 1: 2, 7: 1, 17: 2}","[1, 5, 7, 17]",125171172,B1H2N1Cl2
BH2S3N3F4,mp-1214776,2.1892,-0.64167764,0.12461004586538316,"{5: 1, 1: 2, 16: 3, 7: 3, 9: 4}","[1, 5, 7, 9, 16]",12517394163,B1H2S3N3F4
NaMn2Si3BH2O11,mp-1197081,0.0,3.97583483,0.0,"{11: 1, 25: 2, 14: 3, 5: 1, 1: 2, 8: 11}","[1, 5, 8, 11, 14, 25]",1251811111143252,Na1Mn2Si3B1H2O11
Co2BP4H2Pb4ClO18,mp-1199458,3.0187,2.92687104,0.03698180968751341,"{27: 2, 5: 1, 15: 4, 1: 2, 82: 4, 17: 1, 8: 18}","[1, 5, 8, 15, 17, 27, 82]",1251818154171272824,Co2B1P4H2Pb4Cl1O18
BH2OF3,mp-707009,7.567699999999999,-4.20431548,0.0,"{5: 1, 1: 2, 8: 1, 9: 3}","[1, 5, 8, 9]",12518193,B1H2O1F3
AgBH2OF4,mp-24058,3.044,-1.38990709,0.0,"{47: 1, 5: 1, 1: 2, 8: 1, 9: 4}","[1, 5, 8, 9, 47]",12518194471,Ag1B1H2O1F4
B(HO)2,mp-1202159,4.79,2.70717456,0.1528819290833381,"{5: 1, 1: 2, 8: 2}","[1, 5, 8]",125182,B1H2O2
Mg3BH2O5F,mp-1222264,3.8004,5.33677652,0.0,"{12: 3, 5: 1, 1: 2, 8: 5, 9: 1}","[1, 5, 8, 9, 12]",12518591123,Mg3B1H2O5F1
MnBP(HO3)2,mp-1200751,4.1606000000000005,5.79760076,0.006047251515155949,"{25: 1, 5: 1, 15: 1, 1: 2, 8: 6}","[1, 5, 8, 15, 25]",125186151251,Mn1B1P1H2O6
CoBP(HO3)2,mp-1238930,2.8865,1.61958411,0.0535494951515183,"{27: 1, 5: 1, 15: 1, 1: 2, 8: 6}","[1, 5, 8, 15, 27]",125186151271,Co1B1P1H2O6
ZnBP(HO3)2,mp-1198157,4.7538,0.23897814,0.0037159903030277164,"{30: 1, 5: 1, 15: 1, 1: 2, 8: 6}","[1, 5, 8, 15, 30]",125186151301,Zn1B1P1H2O6
NaSi2BH2O7,mp-862999,3.9917,0.64089417,0.10351017493589953,"{11: 1, 14: 2, 5: 1, 1: 2, 8: 7}","[1, 5, 8, 11, 14]",125187111142,Na1Si2B1H2O7
NaCoBP2H2O9,mp-562382,3.0603,1.42239577,0.015817401124996522,"{11: 1, 27: 1, 5: 1, 15: 2, 1: 2, 8: 9}","[1, 5, 8, 11, 15, 27]",125189111152271,Na1Co1B1P2H2O9
KMnBP2H2O9,mp-1197780,4.6073,5.56320623,0.0,"{19: 1, 25: 1, 5: 1, 15: 2, 1: 2, 8: 9}","[1, 5, 8, 15, 19, 25]",125189152191251,K1Mn1B1P2H2O9
Ca(BH)2,mp-1078932,0.02939999999999987,3.07643902,0.20694081133333242,"{20: 1, 5: 2, 1: 2}","[1, 5, 20]",1252201,Ca1B2H2
Rb3B2P3H2O13,mp-1199257,5.2981,4.91801183,0.0,"{37: 3, 5: 2, 15: 3, 1: 2, 8: 13}","[1, 5, 8, 15, 37]",1252813153373,Rb3B2P3H2O13
Mn4Si4SnB2(HO9)2,mp-726800,2.7959000000000005,2.98482616,0.0,"{25: 4, 14: 4, 50: 1, 5: 2, 1: 2, 8: 18}","[1, 5, 8, 14, 25, 50]",1252818144254501,Mn4Si4Sn1B2H2O18
CaB2H2O7,mp-1214470,0.8222,0.19027787,0.062495369166665427,"{20: 1, 5: 2, 1: 2, 8: 7}","[1, 5, 8, 20]",125287201,Ca1B2H2O7
CaB2(HO4)2,mp-1214282,0.0,0.26921602,0.17904448557692376,"{20: 1, 5: 2, 1: 2, 8: 8}","[1, 5, 8, 20]",125288201,Ca1B2H2O8
KB3(HO3)2,mp-605642,4.8267,-0.89121719,0.02371668705638008,"{19: 1, 5: 3, 1: 2, 8: 6}","[1, 5, 8, 19]",125386191,K1B3H2O6
Na3B3H2O7,mp-720583,4.5439,0.3125207,0.0,"{11: 3, 5: 3, 1: 2, 8: 7}","[1, 5, 8, 11]",125387113,Na3B3H2O7
CeB4H2ClO8,mp-1203793,0.4502999999999995,3.94966013,0.0,"{58: 1, 5: 4, 1: 2, 17: 1, 8: 8}","[1, 5, 8, 17, 58]",125488171581,Ce1B4H2Cl1O8
Rb2B10(H5N)5,mp-1197795,3.8973000000000004,-1.7583738,0.18983056014880528,"{37: 2, 5: 10, 1: 25, 7: 5}","[1, 5, 7, 37]",12551075372,Rb2B10H25N5
Na3B5(HO5)2,mp-722369,4.6581,1.05780641,0.005478604604176596,"{11: 3, 5: 5, 1: 2, 8: 10}","[1, 5, 8, 11]",1255810113,Na3B5H2O10
SrCaB5H2ClO10,mp-24705,4.9698,1.26823945,0.010287405125001037,"{38: 1, 20: 1, 5: 5, 1: 2, 17: 1, 8: 10}","[1, 5, 8, 17, 20, 38]",1255810171201381,Sr1Ca1B5H2Cl1O10
Ca2B5H2ClO10,mp-24595,5.0182,1.2909527,0.004010313249988684,"{20: 2, 5: 5, 1: 2, 17: 1, 8: 10}","[1, 5, 8, 17, 20]",1255810171202,Ca2B5H2Cl1O10
Sr2B5H2O11,mp-699248,0.6891000000000002,0.62117547,0.04772233150000105,"{38: 2, 5: 5, 1: 2, 8: 11}","[1, 5, 8, 38]",1255811382,Sr2B5H2O11
B5H2Pb2O11,mp-707942,0.15910000000000024,2.13786667,0.05289536369861114,"{5: 5, 1: 2, 82: 2, 8: 11}","[1, 5, 8, 82]",1255811822,B5H2Pb2O11
K3B5PH2O13,mp-1224640,0.09010000000000001,-0.47751726,0.014786480263135005,"{19: 3, 5: 5, 15: 1, 1: 2, 8: 13}","[1, 5, 8, 15, 19]",1255813151193,K3B5P1H2O13
Na2Ca3B5H2S2ClO18,mp-707645,5.481,1.10791672,0.0016932169805068398,"{11: 2, 20: 3, 5: 5, 1: 2, 16: 2, 17: 1, 8: 18}","[1, 5, 8, 11, 16, 17, 20]",1255818112162171203,Na2Ca3B5H2S2Cl1O18
KB5H2O9,mp-1197999,5.7166999999999994,4.45530837,0.003602644852949588,"{19: 1, 5: 5, 1: 2, 8: 9}","[1, 5, 8, 19]",125589191,K1B5H2O9
K2B6H2O11,mp-558951,5.3623,-0.77450055,0.0010260814696305687,"{19: 2, 5: 6, 1: 2, 8: 11}","[1, 5, 8, 19]",1256811192,K2B6H2O11
Sr3B6H2O13,mp-1201690,5.3122,6.61917638,0.0,"{38: 3, 5: 6, 1: 2, 8: 13}","[1, 5, 8, 38]",1256813383,Sr3B6H2O13
KB6H2OF6,mp-1201717,2.6705,1.74862663,0.1725379660575843,"{19: 1, 5: 6, 1: 2, 8: 1, 9: 6}","[1, 5, 8, 9, 19]",12568196191,K1B6H2O1F6
Ca2B8H2O15,mp-706291,5.576099999999999,0.78525889,0.0,"{20: 2, 5: 8, 1: 2, 8: 15}","[1, 5, 8, 20]",1258815202,Ca2B8H2O15
K4Ge2B8H2O19,mp-1203238,4.1044,-0.02003536,0.001057666059971929,"{19: 4, 32: 2, 5: 8, 1: 2, 8: 19}","[1, 5, 8, 19, 32]",1258819194322,K4Ge2B8H2O19
MnB10(H13O4)2,mp-1196077,4.1228,-1.40130687,0.18864719240123495,"{25: 1, 5: 10, 1: 26, 8: 8}","[1, 5, 8, 25]",12651088251,Mn1B10H26O8
CoB10(H13O4)2,mp-1198299,2.7696,-1.22081012,0.20904356451543205,"{27: 1, 5: 10, 1: 26, 8: 8}","[1, 5, 8, 27]",12651088271,Co1B10H26O8
ZnB10(H13O4)2,mp-1201107,4.006,-1.43249975,0.2052228878209874,"{30: 1, 5: 10, 1: 26, 8: 8}","[1, 5, 8, 30]",12651088301,Zn1B10H26O8
B20H26O,mp-28092,1.0827,-1.20292376,0.20409366823877306,"{5: 20, 1: 26, 8: 1}","[1, 5, 8]",12652081,B20H26O1
CoB12H28(NO15)2,mp-735475,0.6787999999999998,1.08011831,0.028619566392697138,"{27: 1, 5: 12, 1: 28, 7: 2, 8: 30}","[1, 5, 7, 8, 27]",12851272830271,Co1B12H28N2O30
K2SrB8(HO)28,mp-1198667,5.1198,-1.0948352,0.016271574916046916,"{19: 2, 38: 1, 5: 8, 1: 28, 8: 28}","[1, 5, 8, 19, 38]",12858828192381,K2Sr1B8H28O28
AlB3(H5N)6,mp-1205240,5.5390999999999995,-2.65663049,0.008373726250001212,"{13: 1, 5: 3, 1: 30, 7: 6}","[1, 5, 7, 13]",1305376131,Al1B3H30N6
CsNaB10H31N7,mp-1199766,2.8805,-1.66915801,0.17241287146000328,"{55: 1, 11: 1, 5: 10, 1: 31, 7: 7}","[1, 5, 7, 11, 55]",13151077111551,Cs1Na1B10H31N7
Mg4B8H31,mp-1201512,1.439,-2.47157698,0.04362368323643384,"{12: 4, 5: 8, 1: 31}","[1, 5, 12]",13158124,Mg4B8H31
Mg3CoB8P8(H8O13)4,mp-1223058,3.5011,4.03502699,0.014947593421895888,"{12: 3, 27: 1, 5: 8, 15: 8, 1: 32, 8: 52}","[1, 5, 8, 12, 15, 27]",13258852123158271,Mg3Co1B8P8H32O52
LaB12H33Cl2O11,mp-1225247,1.1464999999999999,-0.35606223,0.2764488662970761,"{57: 1, 5: 12, 1: 33, 17: 2, 8: 11}","[1, 5, 8, 17, 57]",133512811172571,La1B12H33Cl2O11
Be2BH3O5,mp-1227442,5.6261,-0.45647157,0.0,"{4: 2, 5: 1, 1: 3, 8: 5}","[1, 4, 5, 8]",13425185,Be2B1H3O5
BH3,mp-634117,5.3252,-4.29169418,0.01222323375000034,"{5: 1, 1: 3}","[1, 5]",1351,B1H3
NaB10H3Pb4O21,mp-1210485,0.010099999999999998,2.27496975,0.2664319551602734,"{11: 1, 5: 10, 1: 3, 82: 4, 8: 21}","[1, 5, 8, 11, 82]",13510821111824,Na1B10H3Pb4O21
BH3NF3,mp-24160,7.7194,-3.57946278,0.0,"{5: 1, 1: 3, 7: 1, 9: 3}","[1, 5, 7, 9]",13517193,B1H3N1F3
BH3NF4,mp-697120,7.5583,-2.86280768,0.04854479314814952,"{5: 1, 1: 3, 7: 1, 9: 4}","[1, 5, 7, 9]",13517194,B1H3N1F4
NaAlBP2H3O10,mp-24646,5.7883000000000004,1.59693791,0.005887876799775427,"{11: 1, 13: 1, 5: 1, 15: 2, 1: 3, 8: 10}","[1, 5, 8, 11, 13, 15]",1351810111131152,Na1Al1B1P2H3O10
NaVBP2H3O10,mp-510020,2.1429,2.04252028,0.0004954466666653445,"{11: 1, 23: 1, 5: 1, 15: 2, 1: 3, 8: 10}","[1, 5, 8, 11, 15, 23]",1351810111152231,Na1V1B1P2H3O10
NaGaBP2H3O10,mp-1199672,4.9585,5.8467352,0.004326949299768401,"{11: 1, 31: 1, 5: 1, 15: 2, 1: 3, 8: 10}","[1, 5, 8, 11, 15, 31]",1351810111152311,Na1Ga1B1P2H3O10
KGaBP2H3O10,mp-695655,0.0,1.17071573,1.3045026176678256,"{19: 1, 31: 1, 5: 1, 15: 2, 1: 3, 8: 10}","[1, 5, 8, 15, 19, 31]",1351810152191311,K1Ga1B1P2H3O10
K3BP3(HO4)3,mp-1202621,4.8533,-0.33383931,0.01547831817235057,"{19: 3, 5: 1, 15: 3, 1: 3, 8: 12}","[1, 5, 8, 15, 19]",1351812153193,K3B1P3H3O12
BH3OF4,mp-696379,7.657299999999999,-3.8748985,0.0,"{5: 1, 1: 3, 8: 1, 9: 4}","[1, 5, 8, 9]",13518194,B1H3O1F4
B(HO)3,mp-23791,6.0572,-2.79796467,0.0,"{5: 1, 1: 3, 8: 3}","[1, 5, 8]",135183,B1H3O3
Mg3B(HO2)3,mp-554719,3.4202000000000004,1.69467912,0.011741920576921139,"{12: 3, 5: 1, 1: 3, 8: 6}","[1, 5, 8, 12]",135186123,Mg3B1H3O6
BP4(HO2)3,mp-1200474,4.364,-0.60535557,0.24763703536905357,"{5: 1, 15: 4, 1: 3, 8: 6}","[1, 5, 8, 15]",135186154,B1P4H3O6
B2H3,mp-27876,3.074,-2.18793893,0.03457064714772695,"{5: 2, 1: 3}","[1, 5]",1352,B2H3
CaB2H3,mp-1191384,0.0,2.93769908,0.31258529611111197,"{20: 1, 5: 2, 1: 3}","[1, 5, 20]",1352201,Ca1B2H3
K(BH)3,mp-23950,5.0082,-1.15176661,0.047473820857143245,"{19: 1, 5: 3, 1: 3}","[1, 5, 19]",1353191,K1B3H3
Cs(BH)3,mp-23951,4.324199999999999,-0.80282733,0.05287730621921227,"{55: 1, 5: 3, 1: 3}","[1, 5, 55]",1353551,Cs1B3H3
Zn8B3H3O14,mp-555808,2.4989,-0.57679101,0.02418119901785687,"{30: 8, 5: 3, 1: 3, 8: 14}","[1, 5, 8, 30]",1353814308,Zn8B3H3O14
NaMg2Al6VSi6B3H3O31,mp-1221055,5.109,6.07133373,0.007555752525134629,"{11: 1, 12: 2, 13: 6, 23: 1, 14: 6, 5: 3, 1: 3, 8: 31}","[1, 5, 8, 11, 12, 13, 14, 23]",1353831111122136146231,Na1Mg2Al6V1Si6B3H3O31
NaMg3V3Cr3Si6B3H3O31,mp-1221086,1.4672,3.71815716,0.0,"{11: 1, 12: 3, 23: 3, 24: 3, 14: 6, 5: 3, 1: 3, 8: 31}","[1, 5, 8, 11, 12, 14, 23, 24]",1353831111123146233243,Na1Mg3V3Cr3Si6B3H3O31
CaB3H3O7,mp-722262,5.7435,0.7302591,0.0,"{20: 1, 5: 3, 1: 3, 8: 7}","[1, 5, 8, 20]",135387201,Ca1B3H3O7
ZnB3H3O7,mp-1196460,4.677700000000001,-0.04293205,0.008201045267852258,"{30: 1, 5: 3, 1: 3, 8: 7}","[1, 5, 8, 30]",135387301,Zn1B3H3O7
CrB3(HO3)3,mp-778931,1.778,-2.19864546,0.051601858187500405,"{24: 1, 5: 3, 1: 3, 8: 9}","[1, 5, 8, 24]",135389241,Cr1B3H3O9
B3H3SeO9,mp-778385,3.2394,-1.67590957,0.024192746067707382,"{5: 3, 1: 3, 34: 1, 8: 9}","[1, 5, 8, 34]",135389341,B3H3Se1O9
Zn8B4H3O15F,mp-1215828,3.0449,-0.89369947,0.004783236129029866,"{30: 8, 5: 4, 1: 3, 8: 15, 9: 1}","[1, 5, 8, 9, 30]",135481591308,Zn8B4H3O15F1
BiB4(HO3)3,mp-1202291,4.2330000000000005,0.22498424,0.007563921176469535,"{83: 1, 5: 4, 1: 3, 8: 9}","[1, 5, 8, 83]",135489831,Bi1B4H3O9
Na2B5H3O10,mp-720312,4.9795,0.20344952,0.0048626867533005935,"{11: 2, 5: 5, 1: 3, 8: 10}","[1, 5, 8, 11]",1355810112,Na2B5H3O10
CaB5H3O10,mp-757666,5.1418,0.14416091,0.012626356210512668,"{20: 1, 5: 5, 1: 3, 8: 10}","[1, 5, 8, 20]",1355810201,Ca1B5H3O10
Ca2B5H3O11,mp-1194894,5.5382,0.84176055,0.024053423928571682,"{20: 2, 5: 5, 1: 3, 8: 11}","[1, 5, 8, 20]",1355811202,Ca2B5H3O11
Sr2B5H3O11,mp-1201098,5.1638,0.62964048,0.0004428440476162976,"{38: 2, 5: 5, 1: 3, 8: 11}","[1, 5, 8, 38]",1355811382,Sr2B5H3O11
CaB6(HO4)3,mp-1214321,0.0,-1.96454387,0.7839072093522939,"{20: 1, 5: 6, 1: 3, 8: 12}","[1, 5, 8, 20]",1356812201,Ca1B6H3O12
Na6Mg3B9P6H3O38,mp-1198429,0.0,0.74262775,0.05861736874359735,"{11: 6, 12: 3, 5: 9, 15: 6, 1: 3, 8: 38}","[1, 5, 8, 11, 12, 15]",1359838116123156,Na6Mg3B9P6H3O38
Na6Co3B9P6H3O38,mp-1204177,0.2221000000000002,1.06295415,0.09043578641025718,"{11: 6, 27: 3, 5: 9, 15: 6, 1: 3, 8: 38}","[1, 5, 8, 11, 15, 27]",1359838116156273,Na6Co3B9P6H3O38
Na6Zn3B9P6H3O38,mp-1204092,0.0,0.4201261,0.07279407355843581,"{11: 6, 30: 3, 5: 9, 15: 6, 1: 3, 8: 38}","[1, 5, 8, 11, 15, 30]",1359838116156303,Na6Zn3B9P6H3O38
MgB12(H3O)12,mp-1203384,2.0732,-0.75515777,0.2389762301479923,"{12: 1, 5: 12, 1: 36, 8: 12}","[1, 5, 8, 12]",136512812121,Mg1B12H36O12
B20H42N4O3,mp-1202539,4.4239,3.11874849,0.18456190455163224,"{5: 20, 1: 42, 7: 4, 8: 3}","[1, 5, 7, 8]",1425207483,B20H42N4O3
CsNaB10(H2O9)2,mp-1226923,5.7673000000000005,5.0135821,0.0007185972794001572,"{55: 1, 11: 1, 5: 10, 1: 4, 8: 18}","[1, 5, 8, 11, 55]",14510818111551,Cs1Na1B10H4O18
K4B10H4O19,mp-1197401,5.1432,-0.39851045,0.0,"{19: 4, 5: 10, 1: 4, 8: 19}","[1, 5, 8, 19]",14510819194,K4B10H4O19
NaBH4,mp-38725,6.3086,-2.36026639,0.0,"{11: 1, 5: 1, 1: 4}","[1, 5, 11]",1451111,Na1B1H4
KZnB(H2Cl)2,mp-1105530,4.885,-2.36205056,0.015613747268519163,"{19: 1, 30: 1, 5: 1, 1: 4, 17: 2}","[1, 5, 17, 19, 30]",1451172191301,K1Zn1B1H4Cl2
KBH4,mp-37722,6.0959,-3.31419747,0.0,"{19: 1, 5: 1, 1: 4}","[1, 5, 19]",1451191,K1B1H4
Cs2B12H4F9,mp-1213928,3.3402000000000003,-0.7460994,0.15505137337791464,"{55: 2, 5: 12, 1: 4, 9: 9}","[1, 5, 9, 55]",1451299552,Cs2B12H4F9
RbBH4,mp-1219553,6.0935,-3.50256994,0.0,"{37: 1, 5: 1, 1: 4}","[1, 5, 37]",1451371,Rb1B1H4
CsBH4,mp-1225884,5.7194,-3.02448507,0.0,"{55: 1, 5: 1, 1: 4}","[1, 5, 55]",1451551,Cs1B1H4
TbBH4,mp-2647009,0.0,5.24926768,0.21981845881064466,"{65: 1, 5: 1, 1: 4}","[1, 5, 65]",1451651,Tb1B1H4
DyBH4,mp-2647060,0.0,5.26502593,0.23319548703834236,"{66: 1, 5: 1, 1: 4}","[1, 5, 66]",1451661,Dy1B1H4
HoBH4,mp-2647019,0.0,5.21646542,0.25082482062989087,"{67: 1, 5: 1, 1: 4}","[1, 5, 67]",1451671,Ho1B1H4
ErBH4,mp-2646946,0.0,5.29067724,0.2634710091314574,"{68: 1, 5: 1, 1: 4}","[1, 5, 68]",1451681,Er1B1H4
TmBH4,mp-2646998,0.0,5.26442159,0.28093717078247415,"{69: 1, 5: 1, 1: 4}","[1, 5, 69]",1451691,Tm1B1H4
BH4N,mp-27341,5.9404,-2.40936286,0.042937087083335435,"{5: 1, 1: 4, 7: 1}","[1, 5, 7]",145171,B1H4N1
LuBH4,mp-2647094,0.0,5.33337646,0.3400165083040072,"{71: 1, 5: 1, 1: 4}","[1, 5, 71]",1451711,Lu1B1H4
Na2BH4N,mp-1221388,0.0,-0.50143327,0.5863840722916676,"{11: 2, 5: 1, 1: 4, 7: 1}","[1, 5, 7, 11]",145171112,Na2B1H4N1
BPH4NO4F,mp-1195775,5.8383,-0.53331022,0.0,"{5: 1, 15: 1, 1: 4, 7: 1, 8: 4, 9: 1}","[1, 5, 7, 8, 9, 15]",1451718491151,B1P1H4N1O4F1
BAsH4NO4F,mp-1191775,4.3662,-0.8169602,0.046418157928239445,"{5: 1, 33: 1, 1: 4, 7: 1, 8: 4, 9: 1}","[1, 5, 7, 8, 9, 33]",1451718491331,B1As1H4N1O4F1
ZnBP2H4NO8,mp-24657,4.8437,0.092167,0.0,"{30: 1, 5: 1, 15: 2, 1: 4, 7: 1, 8: 8}","[1, 5, 7, 8, 15, 30]",14517188152301,Zn1B1P2H4N1O8
Ge3BH4NO8,mp-1204732,3.2039,-0.12805501,0.017278330962579247,"{32: 3, 5: 1, 1: 4, 7: 1, 8: 8}","[1, 5, 7, 8, 32]",14517188323,Ge3B1H4N1O8
BH4NF4,mp-720391,7.481199999999999,-3.53165251,0.0,"{5: 1, 1: 4, 7: 1, 9: 4}","[1, 5, 7, 9]",14517194,B1H4N1F4
NaCoBP2H4O11,mp-1211027,0.12109999999999999,0.84117554,0.15150792320833695,"{11: 1, 27: 1, 5: 1, 15: 2, 1: 4, 8: 11}","[1, 5, 8, 11, 15, 27]",1451811111152271,Na1Co1B1P2H4O11
Na4Al3Si3B(HO3)4,mp-694981,4.9472,-0.202779,0.0,"{11: 4, 13: 3, 14: 3, 5: 1, 1: 4, 8: 12}","[1, 5, 8, 11, 13, 14]",1451812114133143,Na4Al3Si3B1H4O12
Na4Al3Ge3B(HO3)4,mp-535042,4.2134,-0.96581547,0.049812988981483564,"{11: 4, 13: 3, 32: 3, 5: 1, 1: 4, 8: 12}","[1, 5, 8, 11, 13, 32]",1451812114133323,Na4Al3Ge3B1H4O12
Na4Ga3Si3B(HO3)4,mp-534870,4.2524,-0.67632136,0.0,"{11: 4, 31: 3, 14: 3, 5: 1, 1: 4, 8: 12}","[1, 5, 8, 11, 14, 31]",1451812114143313,Na4Ga3Si3B1H4O12
Na4Ga3Ge3B(HO3)4,mp-1203580,3.5637999999999996,2.07604304,0.059550497847220996,"{11: 4, 31: 3, 32: 3, 5: 1, 1: 4, 8: 12}","[1, 5, 8, 11, 31, 32]",1451812114313323,Na4Ga3Ge3B1H4O12
K6Al4Si6BH4ClO24,mp-1199737,4.5193,0.41368791,0.004205976809787515,"{19: 6, 13: 4, 14: 6, 5: 1, 1: 4, 17: 1, 8: 24}","[1, 5, 8, 13, 14, 17, 19]",1451824134146171196,K6Al4Si6B1H4Cl1O24
BH4O2F3,mp-696656,6.8268,-3.2091329,0.0,"{5: 1, 1: 4, 8: 2, 9: 3}","[1, 5, 8, 9]",14518293,B1H4O2F3
NaB(HO)4,mp-707419,4.873,-1.1172146,0.0061265320833356895,"{11: 1, 5: 1, 1: 4, 8: 4}","[1, 5, 8, 11]",145184111,Na1B1H4O4
Na2BH4ClO4,mp-690684,4.583799999999999,-0.28511003,0.00563654361111432,"{11: 2, 5: 1, 1: 4, 17: 1, 8: 4}","[1, 5, 8, 11, 17]",145184112171,Na2B1H4Cl1O4
Ca(BH2)2,mp-1214284,0.24619999999999997,0.86139403,0.2946042601373655,"{20: 1, 5: 2, 1: 4}","[1, 5, 20]",1452201,Ca1B2H4
CaB2(H2O3)2,mp-696618,5.5553,0.69274811,0.015054116730769174,"{20: 1, 5: 2, 1: 4, 8: 6}","[1, 5, 8, 20]",145286201,Ca1B2H4O6
B3H4,mp-29446,2.315,-2.71978786,0.16777314435267776,"{5: 3, 1: 4}","[1, 5]",1453,B3H4
B3H4NO5,mp-1200137,5.5239,6.20095286,0.0,"{5: 3, 1: 4, 7: 1, 8: 5}","[1, 5, 7, 8]",14537185,B3H4N1O5
NaB3H4O7,mp-720642,5.3518,-0.51938692,0.0,"{11: 1, 5: 3, 1: 4, 8: 7}","[1, 5, 8, 11]",145387111,Na1B3H4O7
Na3B3(HO2)4,mp-1203588,4.7627999999999995,0.04351065,0.0,"{11: 3, 5: 3, 1: 4, 8: 8}","[1, 5, 8, 11]",145388113,Na3B3H4O8
Ca2B3H4ClO8,mp-1204342,5.5358,6.06587917,0.0,"{20: 2, 5: 3, 1: 4, 17: 1, 8: 8}","[1, 5, 8, 17, 20]",145388171202,Ca2B3H4Cl1O8
RbNaB4H4O13,mp-1179953,0.8300000000000001,-0.38300848,0.030194952835136846,"{37: 1, 11: 1, 5: 4, 1: 4, 8: 13}","[1, 5, 8, 11, 37]",1454813111371,Rb1Na1B4H4O13
B5H4,mp-1201949,2.8736,-4.00620817,0.32544114785564027,"{5: 5, 1: 4}","[1, 5]",1455,B5H4
B5PH4Cl,mp-758806,4.1342,-1.42707913,0.026803186940909107,"{5: 5, 15: 1, 1: 4, 17: 1}","[1, 5, 15, 17]",1455151171,B5P1H4Cl1
B5H4NO10,mp-721905,0.0,-1.77907724,0.35600496243749724,"{5: 5, 1: 4, 7: 1, 8: 10}","[1, 5, 7, 8]",145571810,B5H4N1O10
B5H4NO8,mp-1196660,5.7298,-0.90785593,0.0,"{5: 5, 1: 4, 7: 1, 8: 8}","[1, 5, 7, 8]",14557188,B5H4N1O8
B5(H2N)2,mp-29306,2.8741000000000003,-2.44632287,0.4950058994848483,"{5: 5, 1: 4, 7: 2}","[1, 5, 7]",145572,B5H4N2
NaB5(H2O5)2,mp-721294,5.5723,-1.62250221,0.0,"{11: 1, 5: 5, 1: 4, 8: 10}","[1, 5, 8, 11]",1455810111,Na1B5H4O10
KB5(H2O5)2,mp-1199251,6.1032,4.85152267,0.0007936925568374775,"{19: 1, 5: 5, 1: 4, 8: 10}","[1, 5, 8, 19]",1455810191,K1B5H4O10
Na3B5H4O11,mp-720296,4.606,0.33955042,0.006880505634019762,"{11: 3, 5: 5, 1: 4, 8: 11}","[1, 5, 8, 11]",1455811113,Na3B5H4O11
CaB5H4O9,mp-1214219,1.9247,2.97692023,0.15536123116776057,"{20: 1, 5: 5, 1: 4, 8: 9}","[1, 5, 8, 20]",145589201,Ca1B5H4O9
KB6P(H2O7)2,mp-758840,5.8809000000000005,4.82134234,0.0,"{19: 1, 5: 6, 15: 1, 1: 4, 8: 14}","[1, 5, 8, 15, 19]",1456814151191,K1B6P1H4O14
KB6H4(OF3)2,mp-1200547,2.7101,1.55155443,0.22678503551863294,"{19: 1, 5: 6, 1: 4, 8: 2, 9: 6}","[1, 5, 8, 9, 19]",14568296191,K1B6H4O2F6
CaB8H4O15,mp-23701,5.6011,-0.55559444,0.0,"{20: 1, 5: 8, 1: 4, 8: 15}","[1, 5, 8, 20]",1458815201,Ca1B8H4O15
B8H4PbO15,mp-1200630,4.763299999999999,4.90457742,0.0,"{5: 8, 1: 4, 82: 1, 8: 15}","[1, 5, 8, 82]",1458815821,B8H4Pb1O15
B40H51F3,mp-1247878,0.9112999999999998,-2.62831495,0.18061341003657194,"{5: 40, 1: 51, 9: 3}","[1, 5, 9]",15154093,B40H51F3
SrCaB14H5O26,mp-1210468,0.00969999999999982,-1.31779791,0.5978258726142522,"{38: 1, 20: 1, 5: 14, 1: 5, 8: 26}","[1, 5, 8, 20, 38]",15514826201381,Sr1Ca1B14H5O26
BH5NCl,mp-1106172,5.4121,-1.8079802,0.058422613854166805,"{5: 1, 1: 5, 7: 1, 17: 1}","[1, 5, 7, 17]",155171171,B1H5N1Cl1
KBH5N,mp-1203671,4.2976,3.20917102,0.10251293494791724,"{19: 1, 5: 1, 1: 5, 7: 1}","[1, 5, 7, 19]",155171191,K1B1H5N1
AlBP2H5NO9,mp-24757,5.068999999999999,1.0173083,0.0015117843969232325,"{13: 1, 5: 1, 15: 2, 1: 5, 7: 1, 8: 9}","[1, 5, 7, 8, 13, 15]",15517189131152,Al1B1P2H5N1O9
VBP2H5NO9,mp-24710,1.7666000000000002,1.64962631,0.0,"{23: 1, 5: 1, 15: 2, 1: 5, 7: 1, 8: 9}","[1, 5, 7, 8, 15, 23]",15517189152231,V1B1P2H5N1O9
GaBP2H5NO9,mp-1198425,4.6499,0.43938955,0.005111285844308533,"{31: 1, 5: 1, 15: 2, 1: 5, 7: 1, 8: 9}","[1, 5, 7, 8, 15, 31]",15517189152311,Ga1B1P2H5N1O9
InBP2H5NO9,mp-752709,4.0764000000000005,1.08561608,0.0,"{49: 1, 5: 1, 15: 2, 1: 5, 7: 1, 8: 9}","[1, 5, 7, 8, 15, 49]",15517189152491,In1B1P2H5N1O9
BH5(NF2)2,mp-706612,6.5929,-1.97772667,0.10386951781246268,"{5: 1, 1: 5, 7: 2, 9: 4}","[1, 5, 7, 9]",15517294,B1H5N2F4
CaCoBP2H5O11,mp-1199897,3.3187000000000006,1.17449395,0.03176238162698741,"{20: 1, 27: 1, 5: 1, 15: 2, 1: 5, 8: 11}","[1, 5, 8, 15, 20, 27]",1551811152201271,Ca1Co1B1P2H5O11
BH5(OF2)2,mp-1196968,7.263999999999999,-3.65475017,0.0,"{5: 1, 1: 5, 8: 2, 9: 4}","[1, 5, 8, 9]",15518294,B1H5O2F4
B2H5,mp-27990,6.2615,-4.03449094,0.007053553750000496,"{5: 2, 1: 5}","[1, 5]",1552,B2H5