formula,material_id,band_gap,efermi,energy_above_hull,comp_atoms,sorted_keys_comp_atoms,comp_number,new_formula
MgGaBO4,mp-1210623,3.112,2.97386515,0.003821235505949261,"{12: 1, 31: 1, 5: 1, 8: 4}","[5, 8, 12, 31]",5184121311,Mg1Ga1B1O4
Mg2BO4,mp-1210705,0.26590000000000025,2.14474993,0.05679497187500182,"{12: 2, 5: 1, 8: 4}","[5, 8, 12]",5184122,Mg2B1O4
Mg3BO4,mp-1099256,0.5821999999999994,6.77994295,0.7309013773437503,"{12: 3, 5: 1, 8: 4}","[5, 8, 12]",5184123,Mg3B1O4
CaAlBO4,mp-559759,4.4509,0.79674122,0.0,"{20: 1, 13: 1, 5: 1, 8: 4}","[5, 8, 13, 20]",5184131201,Ca1Al1B1O4
SrAlBO4,mp-21563,4.297899999999999,1.16877225,0.06923542267858718,"{38: 1, 13: 1, 5: 1, 8: 4}","[5, 8, 13, 38]",5184131381,Sr1Al1B1O4
AlBPbO4,mp-558137,2.7567000000000004,4.17669567,0.0,"{13: 1, 5: 1, 82: 1, 8: 4}","[5, 8, 13, 82]",5184131821,Al1B1Pb1O4
BPO4,mp-3589,7.2565,0.44506705,0.0,"{5: 1, 15: 1, 8: 4}","[5, 8, 15]",5184151,B1P1O4
CaGaBO4,mp-557855,3.9612,0.06466586,0.0,"{20: 1, 31: 1, 5: 1, 8: 4}","[5, 8, 20, 31]",5184201311,Ca1Ga1B1O4
VBO4,mp-754594,2.6635,-1.43874565,0.0,"{23: 1, 5: 1, 8: 4}","[5, 8, 23]",5184231,V1B1O4
CrBPbO4,mp-21100,1.9943,4.01608272,0.0,"{24: 1, 5: 1, 82: 1, 8: 4}","[5, 8, 24, 82]",5184241821,Cr1B1Pb1O4
MnBPbO4,mp-19882,0.9108999999999998,4.12846965,0.0,"{25: 1, 5: 1, 82: 1, 8: 4}","[5, 8, 25, 82]",5184251821,Mn1B1Pb1O4
Mn2BO4,mp-28943,0.5381,3.61528101,0.0,"{25: 2, 5: 1, 8: 4}","[5, 8, 25]",5184252,Mn2B1O4
Co2BO4,mp-1213790,0.42559999999999976,3.08575555,0.2286830953571437,"{27: 2, 5: 1, 8: 4}","[5, 8, 27]",5184272,Co2B1O4
Zn2BO4,mp-1207482,0.0,1.33402555,0.09655778770833123,"{30: 2, 5: 1, 8: 4}","[5, 8, 30]",5184302,Zn2B1O4
SrGaBO4,mp-1197916,3.7683,3.61049662,0.0,"{38: 1, 31: 1, 5: 1, 8: 4}","[5, 8, 31, 38]",5184311381,Sr1Ga1B1O4
GaBPbO4,mp-505743,3.3713999999999995,2.97259706,0.0,"{31: 1, 5: 1, 82: 1, 8: 4}","[5, 8, 31, 82]",5184311821,Ga1B1Pb1O4
BAsO4,mp-3277,4.2615,-0.00840492,0.0,"{5: 1, 33: 1, 8: 4}","[5, 8, 33]",5184331,B1As1O4
NbBO4,mp-8615,2.4588999999999994,3.26847026,0.0,"{41: 1, 5: 1, 8: 4}","[5, 8, 41]",5184411,Nb1B1O4
Cd2BO4,mp-1201604,1.2871,1.38607628,0.10542796348214445,"{48: 2, 5: 1, 8: 4}","[5, 8, 48]",5184482,Cd2B1O4
TaBO4,mp-4624,3.4514,3.57179058,0.0,"{73: 1, 5: 1, 8: 4}","[5, 8, 73]",5184731,Ta1B1O4
BiBPbO4,mp-556601,2.8773,3.37485739,0.0,"{83: 1, 5: 1, 82: 1, 8: 4}","[5, 8, 82, 83]",5184821831,Bi1B1Pb1O4
BPb3O4F,mp-1201056,2.3654,3.23387864,0.007714744166664289,"{5: 1, 82: 3, 8: 4, 9: 1}","[5, 8, 9, 82]",518491823,B1Pb3O4F1
Na2BSO4F3,mp-1191673,5.7662,-0.37085009,0.0,"{11: 2, 5: 1, 16: 1, 8: 4, 9: 3}","[5, 8, 9, 11, 16]",518493112161,Na2B1S1O4F3
NaHoBO5,mp-1188943,0.0,1.06072632,0.2104394258984401,"{11: 1, 67: 1, 5: 1, 8: 5}","[5, 8, 11, 67]",5185111671,Na1Ho1B1O5
NaUBO5,mp-557744,1.9304000000000001,1.64864137,0.0,"{11: 1, 92: 1, 5: 1, 8: 5}","[5, 8, 11, 92]",5185111921,Na1U1B1O5
Mg2TiBO5,mp-1210684,0.0,6.37446672,0.04167837269445318,"{12: 2, 22: 1, 5: 1, 8: 5}","[5, 8, 12, 22]",5185122221,Mg2Ti1B1O5
CaSiBO5,mp-732197,0.4043000000000001,1.81607696,0.08110582348958317,"{20: 1, 14: 1, 5: 1, 8: 5}","[5, 8, 14, 20]",5185141201,Ca1Si1B1O5
LaSiBO5,mp-1222841,4.297999999999999,8.77317808,0.0,"{57: 1, 14: 1, 5: 1, 8: 5}","[5, 8, 14, 57]",5185141571,La1Si1B1O5
CeSiBO5,mp-22225,0.15749999999999975,7.34877735,0.0,"{58: 1, 14: 1, 5: 1, 8: 5}","[5, 8, 14, 58]",5185141581,Ce1Si1B1O5
NdSiBO5,mp-1220077,5.213100000000001,2.91836509,0.0,"{60: 1, 14: 1, 5: 1, 8: 5}","[5, 8, 14, 60]",5185141601,Nd1Si1B1O5
CaBPO5,mp-6667,5.3231,2.89152823,0.00563909244048677,"{20: 1, 5: 1, 15: 1, 8: 5}","[5, 8, 15, 20]",5185151201,Ca1B1P1O5
SrBPO5,mp-6486,5.3873999999999995,2.20907029,0.0,"{38: 1, 5: 1, 15: 1, 8: 5}","[5, 8, 15, 38]",5185151381,Sr1B1P1O5
BPPbO5,mp-21266,4.2593000000000005,3.21893604,0.0,"{5: 1, 15: 1, 82: 1, 8: 5}","[5, 8, 15, 82]",5185151821,B1P1Pb1O5
VCo2BO5,mp-1207853,1.5536000000000003,3.88844724,0.16873751555555572,"{23: 1, 27: 2, 5: 1, 8: 5}","[5, 8, 23, 27]",5185231272,V1Co2B1O5
V3BO5,mp-1207931,0.019400000000000084,5.03004095,0.012894157453702704,"{23: 3, 5: 1, 8: 5}","[5, 8, 23]",5185233,V3B1O5
Mn3BO5,mp-505442,0.0,3.62051711,0.011457892222212607,"{25: 3, 5: 1, 8: 5}","[5, 8, 25]",5185253,Mn3B1O5
Co3BO5,mp-542153,0.0,4.66537062,0.1930054708333424,"{27: 3, 5: 1, 8: 5}","[5, 8, 27]",5185273,Co3B1O5
Zn3BO5,mp-1207490,0.0,1.48441455,0.081226926550924,"{30: 3, 5: 1, 8: 5}","[5, 8, 30]",5185303,Zn3B1O5
LaGeBO5,mp-19957,4.030800000000001,4.05162067,0.005584521041670953,"{57: 1, 32: 1, 5: 1, 8: 5}","[5, 8, 32, 57]",5185321571,La1Ge1B1O5
PrGeBO5,mp-559590,3.9886999999999997,2.0778411,0.005337873368056023,"{59: 1, 32: 1, 5: 1, 8: 5}","[5, 8, 32, 59]",5185321591,Pr1Ge1B1O5
NdGeBO5,mp-540996,4.0084,2.25700909,0.004291426406263454,"{60: 1, 32: 1, 5: 1, 8: 5}","[5, 8, 32, 60]",5185321601,Nd1Ge1B1O5
BAsPbO5,mp-22430,3.3847,2.65011823,0.00437672011218293,"{5: 1, 33: 1, 82: 1, 8: 5}","[5, 8, 33, 82]",5185331821,B1As1Pb1O5
Bi2BO5,mp-754692,0.0,4.08989455,0.040458256458348885,"{83: 2, 5: 1, 8: 5}","[5, 8, 83]",5185832,Bi2B1O5
Na3Mn2BO6,mp-1221286,1.9648999999999999,1.85818012,0.0985045166666918,"{11: 3, 25: 2, 5: 1, 8: 6}","[5, 8, 11, 25]",5186113252,Na3Mn2B1O6
MgBPO6,mp-1202864,0.0,0.73946801,0.20794457345899975,"{12: 1, 5: 1, 15: 1, 8: 6}","[5, 8, 12, 15]",5186121151,Mg1B1P1O6
Mg3BO6,mp-1189526,0.0,0.9408087,0.23059338793750062,"{12: 3, 5: 1, 8: 6}","[5, 8, 12]",5186123,Mg3B1O6
KSi2BO6,mp-1019889,5.3233999999999995,1.02374328,0.0,"{19: 1, 14: 2, 5: 1, 8: 6}","[5, 8, 14, 19]",5186142191,K1Si2B1O6
CsSi2BO6,mp-1019719,5.258900000000001,1.34880935,0.0,"{55: 1, 14: 2, 5: 1, 8: 6}","[5, 8, 14, 55]",5186142551,Cs1Si2B1O6
KGe2BO6,mp-556463,3.498,-0.00208756,0.009678963828925191,"{19: 1, 32: 2, 5: 1, 8: 6}","[5, 8, 19, 32]",5186191322,K1Ge2B1O6
V3BO6,mp-770370,1.0272999999999994,4.35302714,0.007078206625003247,"{23: 3, 5: 1, 8: 6}","[5, 8, 23]",5186233,V3B1O6
Cr3BO6,mp-18551,0.17850000000000055,5.02348651,0.022065506750001518,"{24: 3, 5: 1, 8: 6}","[5, 8, 24]",5186243,Cr3B1O6
LaBMoO6,mp-558445,3.5622999999999996,2.47114044,0.01008726894136025,"{57: 1, 5: 1, 42: 1, 8: 6}","[5, 8, 42, 57]",5186421571,La1B1Mo1O6
CeBMoO6,mp-642871,0.11580000000000013,5.35804197,0.07362411531083168,"{58: 1, 5: 1, 42: 1, 8: 6}","[5, 8, 42, 58]",5186421581,Ce1B1Mo1O6
NdBMoO6,mp-1196885,3.5265000000000004,1.31458458,0.02023789292243805,"{60: 1, 5: 1, 42: 1, 8: 6}","[5, 8, 42, 60]",5186421601,Nd1B1Mo1O6
CsBO6,mp-1087531,0.0,-0.91325212,0.800822520625001,"{55: 1, 5: 1, 8: 6}","[5, 8, 55]",5186551,Cs1B1O6
LaBWO6,mp-1211317,3.8287000000000004,6.31577668,0.026527069254385083,"{57: 1, 5: 1, 74: 1, 8: 6}","[5, 8, 57, 74]",5186571741,La1B1W1O6
Bi3BO6,mp-769033,2.1160000000000005,5.33744346,0.06682987087500081,"{83: 3, 5: 1, 8: 6}","[5, 8, 83]",5186833,Bi3B1O6
NaBO7,mp-1189672,0.28049999999999997,-0.90312395,0.24990870138889143,"{11: 1, 5: 1, 8: 7}","[5, 8, 11]",5187111,Na1B1O7
NaMg6BO7,mp-1030690,1.2988000000000008,5.44861033,0.42545628100901034,"{11: 1, 12: 6, 5: 1, 8: 7}","[5, 8, 11, 12]",5187111126,Na1Mg6B1O7
NaSi2BO7,mp-1191190,0.7714,-0.00942492,0.1651999167424263,"{11: 1, 14: 2, 5: 1, 8: 7}","[5, 8, 11, 14]",5187111142,Na1Si2B1O7
Na2SiBSbO7,mp-771025,2.1623,1.35778545,0.07896003666665585,"{11: 2, 14: 1, 5: 1, 51: 1, 8: 7}","[5, 8, 11, 14, 51]",5187112141511,Na2Si1B1Sb1O7
Na2SiBiBO7,mp-772999,0.07450000000000001,1.16085853,0.08501107749999992,"{11: 2, 14: 1, 83: 1, 5: 1, 8: 7}","[5, 8, 11, 14, 83]",5187112141831,Na2Si1Bi1B1O7
Na2VBPO7,mp-768554,1.2205,0.48647325,0.09037262302085924,"{11: 2, 23: 1, 5: 1, 15: 1, 8: 7}","[5, 8, 11, 15, 23]",5187112151231,Na2V1B1P1O7
Na2MnBPO7,mp-768579,0.0,0.52569803,0.07341930586807166,"{11: 2, 25: 1, 5: 1, 15: 1, 8: 7}","[5, 8, 11, 15, 25]",5187112151251,Na2Mn1B1P1O7
Na2SnBPO7,mp-768592,1.8591999999999997,1.53380699,0.09409582885418555,"{11: 2, 50: 1, 5: 1, 15: 1, 8: 7}","[5, 8, 11, 15, 50]",5187112151501,Na2Sn1B1P1O7
Na2BiBPO7,mp-771773,0.029200000000000004,0.55596393,0.07571295954861235,"{11: 2, 83: 1, 5: 1, 15: 1, 8: 7}","[5, 8, 11, 15, 83]",5187112151831,Na2Bi1B1P1O7
Na2MnBSO7,mp-771142,0.9618,0.29536127,0.09392942510199465,"{11: 2, 25: 1, 5: 1, 16: 1, 8: 7}","[5, 8, 11, 16, 25]",5187112161251,Na2Mn1B1S1O7
Na2BSbSO7,mp-771026,3.4585,0.94556712,0.08768384468750412,"{11: 2, 5: 1, 51: 1, 16: 1, 8: 7}","[5, 8, 11, 16, 51]",5187112161511,Na2B1Sb1S1O7
Na2BiBSO7,mp-772048,3.0667,0.94003245,0.08933213499998072,"{11: 2, 83: 1, 5: 1, 16: 1, 8: 7}","[5, 8, 11, 16, 83]",5187112161831,Na2Bi1B1S1O7
Na2VBAsO7,mp-773190,1.5444,0.31137755,0.08588467642855058,"{11: 2, 23: 1, 5: 1, 33: 1, 8: 7}","[5, 8, 11, 23, 33]",5187112231331,Na2V1B1As1O7
Na2MnBAsO7,mp-771164,0.0,0.19900284,0.05997680166666708,"{11: 2, 25: 1, 5: 1, 33: 1, 8: 7}","[5, 8, 11, 25, 33]",5187112251331,Na2Mn1B1As1O7
Na2CoBAsO7,mp-771767,0.33030000000000004,0.43888625,0.1136413568981478,"{11: 2, 27: 1, 5: 1, 33: 1, 8: 7}","[5, 8, 11, 27, 33]",5187112271331,Na2Co1B1As1O7
Na2SnBAsO7,mp-772625,1.1457999999999997,1.15747517,0.07777974840278024,"{11: 2, 50: 1, 5: 1, 33: 1, 8: 7}","[5, 8, 11, 33, 50]",5187112331501,Na2Sn1B1As1O7
Na2BiBAsO7,mp-1176416,0.1372,0.25753707,0.06863320538265771,"{11: 2, 83: 1, 5: 1, 33: 1, 8: 7}","[5, 8, 11, 33, 83]",5187112331831,Na2Bi1B1As1O7
Na3VSiBO7,mp-771154,1.2076,1.76015681,0.025728259879808313,"{11: 3, 23: 1, 14: 1, 5: 1, 8: 7}","[5, 8, 11, 14, 23]",5187113141231,Na3V1Si1B1O7
Na3CrSiBO7,mp-771269,0.6675000000000002,1.3200296,0.05027060908654146,"{11: 3, 24: 1, 14: 1, 5: 1, 8: 7}","[5, 8, 11, 14, 24]",5187113141241,Na3Cr1Si1B1O7
Na3MnSiBO7,mp-772970,0.7340000000000002,1.27148107,0.019961745304494904,"{11: 3, 25: 1, 14: 1, 5: 1, 8: 7}","[5, 8, 11, 14, 25]",5187113141251,Na3Mn1Si1B1O7
Na3CoSiBO7,mp-756360,0.0,2.03097368,0.06027878913461393,"{11: 3, 27: 1, 14: 1, 5: 1, 8: 7}","[5, 8, 11, 14, 27]",5187113141271,Na3Co1Si1B1O7
Na3SiSnBO7,mp-772986,3.0665000000000004,2.00783043,0.0,"{11: 3, 14: 1, 50: 1, 5: 1, 8: 7}","[5, 8, 11, 14, 50]",5187113141501,Na3Si1Sn1B1O7
Na3SiBSbO7,mp-770708,0.0,3.68660802,0.08062763387019167,"{11: 3, 14: 1, 5: 1, 51: 1, 8: 7}","[5, 8, 11, 14, 51]",5187113141511,Na3Si1B1Sb1O7
Na3SiBiBO7,mp-772711,0.0,2.03771273,0.026838610686827025,"{11: 3, 14: 1, 83: 1, 5: 1, 8: 7}","[5, 8, 11, 14, 83]",5187113141831,Na3Si1Bi1B1O7
Na3VBPO7,mp-756707,1.7686,2.04651687,0.01361331393546461,"{11: 3, 23: 1, 5: 1, 15: 1, 8: 7}","[5, 8, 11, 15, 23]",5187113151231,Na3V1B1P1O7
Na3CrBPO7,mp-756584,2.8333000000000004,1.41798262,0.014073491002746685,"{11: 3, 24: 1, 5: 1, 15: 1, 8: 7}","[5, 8, 11, 15, 24]",5187113151241,Na3Cr1B1P1O7
Na3MnBPO7,mp-768574,1.2012000000000003,1.4740677,0.007923116267177122,"{11: 3, 25: 1, 5: 1, 15: 1, 8: 7}","[5, 8, 11, 15, 25]",5187113151251,Na3Mn1B1P1O7
Na3CoBPO7,mp-756305,0.13690000000000002,1.89406817,0.061959236584253397,"{11: 3, 27: 1, 5: 1, 15: 1, 8: 7}","[5, 8, 11, 15, 27]",5187113151271,Na3Co1B1P1O7
Na3BSbPO7,mp-768556,3.5102,2.30138763,0.046142565281587444,"{11: 3, 5: 1, 51: 1, 15: 1, 8: 7}","[5, 8, 11, 15, 51]",5187113151511,Na3B1Sb1P1O7
Na3BiBPO7,mp-768582,3.6301000000000005,1.63723994,0.020522083202666686,"{11: 3, 83: 1, 5: 1, 15: 1, 8: 7}","[5, 8, 11, 15, 83]",5187113151831,Na3Bi1B1P1O7
Na3MnBSO7,mp-773188,2.1180000000000003,2.32716728,0.0671450534615401,"{11: 3, 25: 1, 5: 1, 16: 1, 8: 7}","[5, 8, 11, 16, 25]",5187113161251,Na3Mn1B1S1O7
Na3CoBSO7,mp-770831,2.0964,1.99811266,0.12671643301282032,"{11: 3, 27: 1, 5: 1, 16: 1, 8: 7}","[5, 8, 11, 16, 27]",5187113161271,Na3Co1B1S1O7
Na3VBAsO7,mp-755361,2.2396000000000003,1.66844463,0.021450095652473244,"{11: 3, 23: 1, 5: 1, 33: 1, 8: 7}","[5, 8, 11, 23, 33]",5187113231331,Na3V1B1As1O7
Na3CrBAsO7,mp-771974,2.178,0.99233874,0.020753601236263464,"{11: 3, 24: 1, 5: 1, 33: 1, 8: 7}","[5, 8, 11, 24, 33]",5187113241331,Na3Cr1B1As1O7
Na3MnBAsO7,mp-770765,1.4399,1.10343035,0.016846963616045763,"{11: 3, 25: 1, 5: 1, 33: 1, 8: 7}","[5, 8, 11, 25, 33]",5187113251331,Na3Mn1B1As1O7
Na3CoBAsO7,mp-771066,0.3547999999999998,1.61578713,0.07760305198260564,"{11: 3, 27: 1, 5: 1, 33: 1, 8: 7}","[5, 8, 11, 27, 33]",5187113271331,Na3Co1B1As1O7
Na3BSbAsO7,mp-770738,2.7266000000000004,2.0692752,0.055300465801281895,"{11: 3, 5: 1, 51: 1, 33: 1, 8: 7}","[5, 8, 11, 33, 51]",5187113331511,Na3B1Sb1As1O7
Na3BiBAsO7,mp-770475,3.0877,1.38390932,0.022576822807113928,"{11: 3, 83: 1, 5: 1, 33: 1, 8: 7}","[5, 8, 11, 33, 83]",5187113331831,Na3Bi1B1As1O7
KMg6BO7,mp-1031257,2.1174999999999997,4.38263828,0.566959332175756,"{19: 1, 12: 6, 5: 1, 8: 7}","[5, 8, 12, 19]",5187126191,K1Mg6B1O7
RbMg6BO7,mp-1033689,0.0,4.34338751,0.6458406776969694,"{37: 1, 12: 6, 5: 1, 8: 7}","[5, 8, 12, 37]",5187126371,Rb1Mg6B1O7
CsMg6BO7,mp-1098281,1.5829,4.93238891,0.2774928593176593,"{55: 1, 12: 6, 5: 1, 8: 7}","[5, 8, 12, 55]",5187126551,Cs1Mg6B1O7
HfMg6BO7,mp-1033374,0.0,5.90579531,0.5526776684166652,"{72: 1, 12: 6, 5: 1, 8: 7}","[5, 8, 12, 72]",5187126721,Hf1Mg6B1O7
SrCo2BPO7,mp-1196974,1.2083,2.83039194,0.3036643692361345,"{38: 1, 27: 2, 5: 1, 15: 1, 8: 7}","[5, 8, 15, 27, 38]",5187151272381,Sr1Co2B1P1O7
Co3BPO7,mp-562300,0.0033000000000003027,3.22202766,0.14348259312499945,"{27: 3, 5: 1, 15: 1, 8: 7}","[5, 8, 15, 27]",5187151273,Co3B1P1O7
Zn3BPO7,mp-1178725,3.0713999999999997,0.97363919,0.0172584537500029,"{30: 3, 5: 1, 15: 1, 8: 7}","[5, 8, 15, 30]",5187151303,Zn3B1P1O7
Cd3BPO7,mp-1195436,2.0403,0.93687451,0.0,"{48: 3, 5: 1, 15: 1, 8: 7}","[5, 8, 15, 48]",5187151483,Cd3B1P1O7
Eu4BClO7,mp-1199302,0.0,1.7656954,0.11043573275641272,"{63: 4, 5: 1, 17: 1, 8: 7}","[5, 8, 17, 63]",5187171634,Eu4B1Cl1O7
Gd4BClO7,mp-1201615,2.9754999999999994,1.7685826,0.0,"{64: 4, 5: 1, 17: 1, 8: 7}","[5, 8, 17, 64]",5187171644,Gd4B1Cl1O7
Tb4BClO7,mp-1199026,4.7323,1.82031669,0.0,"{65: 4, 5: 1, 17: 1, 8: 7}","[5, 8, 17, 65]",5187171654,Tb4B1Cl1O7
Dy4BClO7,mp-1201047,4.7368999999999994,1.79915567,0.0,"{66: 4, 5: 1, 17: 1, 8: 7}","[5, 8, 17, 66]",5187171664,Dy4B1Cl1O7
Ho4BClO7,mp-1201547,4.773199999999999,6.51229293,0.0,"{67: 4, 5: 1, 17: 1, 8: 7}","[5, 8, 17, 67]",5187171674,Ho4B1Cl1O7
Er4BClO7,mp-1204549,4.7594,6.51146241,0.0,"{68: 4, 5: 1, 17: 1, 8: 7}","[5, 8, 17, 68]",5187171684,Er4B1Cl1O7
Tm4BClO7,mp-1202632,4.7685,6.49499928,0.0,"{69: 4, 5: 1, 17: 1, 8: 7}","[5, 8, 17, 69]",5187171694,Tm4B1Cl1O7
BPb7Br3O7,mp-1201413,1.9254000000000002,3.13832462,0.0,"{5: 1, 82: 7, 35: 3, 8: 7}","[5, 8, 35, 82]",5187353827,B1Pb7Br3O7
NaMg6BO8,mp-1030730,3.5359,3.91674536,0.28580905625000064,"{11: 1, 12: 6, 5: 1, 8: 8}","[5, 8, 11, 12]",5188111126,Na1Mg6B1O8
NaSi3BO8,mp-696416,5.3553,7.07829948,0.007339569102574828,"{11: 1, 14: 3, 5: 1, 8: 8}","[5, 8, 11, 14]",5188111143,Na1Si3B1O8
NaB(SO4)2,mp-1020658,6.0379000000000005,-0.34805376,0.0,"{11: 1, 5: 1, 16: 2, 8: 8}","[5, 8, 11, 16]",5188111162,Na1B1S2O8
Na3B(PO4)2,mp-559783,5.168,0.86503743,0.0,"{11: 3, 5: 1, 15: 2, 8: 8}","[5, 8, 11, 15]",5188113152,Na3B1P2O8
Na4Mn3BO8,mp-1221176,1.8668999999999998,3.04658733,0.3223173279687499,"{11: 4, 25: 3, 5: 1, 8: 8}","[5, 8, 11, 25]",5188114253,Na4Mn3B1O8
Mg6AlBO8,mp-1032987,0.017199999999998994,8.20941903,0.43520144109375014,"{12: 6, 13: 1, 5: 1, 8: 8}","[5, 8, 12, 13]",5188126131,Mg6Al1B1O8
Mg6SiBO8,mp-1030869,0.0,8.51825661,0.590299858958331,"{12: 6, 14: 1, 5: 1, 8: 8}","[5, 8, 12, 14]",5188126141,Mg6Si1B1O8
KMg6BO8,mp-1031258,2.5778,3.62686059,0.43756785546875054,"{19: 1, 12: 6, 5: 1, 8: 8}","[5, 8, 12, 19]",5188126191,K1Mg6B1O8
Mg6TiBO8,mp-1031319,0.0,7.45120115,0.47050721504687587,"{12: 6, 22: 1, 5: 1, 8: 8}","[5, 8, 12, 22]",5188126221,Mg6Ti1B1O8
Mg6CrBO8,mp-1099233,0.0,7.96980731,0.3730941060937534,"{12: 6, 24: 1, 5: 1, 8: 8}","[5, 8, 12, 24]",5188126241,Mg6Cr1B1O8
Mg6MnBO8,mp-1032694,0.0,7.72793555,0.42224333756465526,"{12: 6, 25: 1, 5: 1, 8: 8}","[5, 8, 12, 25]",5188126251,Mg6Mn1B1O8
Mg6CoBO8,mp-1032067,0.609,6.58722974,0.38705353552083466,"{12: 6, 27: 1, 5: 1, 8: 8}","[5, 8, 12, 27]",5188126271,Mg6Co1B1O8
Mg6GaBO8,mp-1033258,0.0,8.11271956,0.48246159197916594,"{12: 6, 31: 1, 5: 1, 8: 8}","[5, 8, 12, 31]",5188126311,Mg6Ga1B1O8
RbMg6BO8,mp-1033557,1.6865999999999999,3.87655281,0.5311510193749998,"{37: 1, 12: 6, 5: 1, 8: 8}","[5, 8, 12, 37]",5188126371,Rb1Mg6B1O8
Mg6BSbO8,mp-1033199,0.21389999999999976,7.37820684,0.6531553505468732,"{12: 6, 5: 1, 51: 1, 8: 8}","[5, 8, 12, 51]",5188126511,Mg6B1Sb1O8
CsMg6BO8,mp-1099263,0.6152999999999995,4.12016595,0.6542978306249978,"{55: 1, 12: 6, 5: 1, 8: 8}","[5, 8, 12, 55]",5188126551,Cs1Mg6B1O8
LaMg6BO8,mp-1030977,0.21410000000000018,7.42687104,0.5728359802215586,"{57: 1, 12: 6, 5: 1, 8: 8}","[5, 8, 12, 57]",5188126571,La1Mg6B1O8
CeMg6BO8,mp-1031104,0.0,7.528482,0.5460913962008052,"{58: 1, 12: 6, 5: 1, 8: 8}","[5, 8, 12, 58]",5188126581,Ce1Mg6B1O8
HfMg6BO8,mp-1033138,0.0,8.103668,0.5591419074843724,"{72: 1, 12: 6, 5: 1, 8: 8}","[5, 8, 12, 72]",5188126721,Hf1Mg6B1O8
Mg6BWO8,mp-1033247,0.0,8.12652596,0.604383984687499,"{12: 6, 5: 1, 74: 1, 8: 8}","[5, 8, 12, 74]",5188126741,Mg6B1W1O8
Mg6BiBO8,mp-1033200,0.0,6.96835959,0.6614012714062509,"{12: 6, 83: 1, 5: 1, 8: 8}","[5, 8, 12, 83]",5188126831,Mg6Bi1B1O8
BP(PbO2)4,mp-1201606,3.0004999999999997,6.68026291,0.0,"{5: 1, 15: 1, 82: 4, 8: 8}","[5, 8, 15, 82]",5188151824,B1P1Pb4O8
Th2BPO8,mp-1204611,4.532800000000001,4.55079,0.03958833510417392,"{90: 2, 5: 1, 15: 1, 8: 8}","[5, 8, 15, 90]",5188151902,Th2B1P1O8
KZnB(PO4)2,mp-554673,4.8588,0.10765782,0.0,"{19: 1, 30: 1, 5: 1, 15: 2, 8: 8}","[5, 8, 15, 19, 30]",5188152191301,K1Zn1B1P2O8
KSrB(PO4)2,mp-1223450,5.2873,0.40219493,0.0,"{19: 1, 38: 1, 5: 1, 15: 2, 8: 8}","[5, 8, 15, 19, 38]",5188152191381,K1Sr1B1P2O8
KBP2PbO8,mp-1223679,4.5984,1.04512747,0.0,"{19: 1, 5: 1, 15: 2, 82: 1, 8: 8}","[5, 8, 15, 19, 82]",5188152191821,K1B1P2Pb1O8
K2B(PO4)2,mp-1211975,0.0,-0.39822965,0.02138010277243474,"{19: 2, 5: 1, 15: 2, 8: 8}","[5, 8, 15, 19]",5188152192,K2B1P2O8
RbZnB(PO4)2,mp-557658,4.8807,-0.04554781,0.0,"{37: 1, 30: 1, 5: 1, 15: 2, 8: 8}","[5, 8, 15, 30, 37]",5188152301371,Rb1Zn1B1P2O8
CsZnB(PO4)2,mp-560244,4.9295,5.02259324,0.0,"{55: 1, 30: 1, 5: 1, 15: 2, 8: 8}","[5, 8, 15, 30, 55]",5188152301551,Cs1Zn1B1P2O8
KB(SO4)2,mp-1019804,6.2377,-0.29893832,0.0,"{19: 1, 5: 1, 16: 2, 8: 8}","[5, 8, 16, 19]",5188162191,K1B1S2O8
Ca2BAsO8,mp-1095596,0.0,0.23336953,0.2453097237648736,"{20: 2, 5: 1, 33: 1, 8: 8}","[5, 8, 20, 33]",5188202331,Ca2B1As1O8
VB(PbO2)4,mp-1201529,0.0002999999999993008,6.07798636,0.0,"{23: 1, 5: 1, 82: 4, 8: 8}","[5, 8, 23, 82]",5188231824,V1B1Pb4O8
Cs2(B2O3)9,mp-1178471,5.0938,4.17156887,0.023462128919570446,"{55: 2, 5: 18, 8: 27}","[5, 8, 55]",518827552,Cs2B18O27
Cs2Na2Sr(B3O5)6,mp-1019611,5.6254,-0.17050102,0.0,"{55: 2, 11: 2, 38: 1, 5: 18, 8: 30}","[5, 8, 11, 38, 55]",518830112381552,Cs2Na2Sr1B18O30
Sm4B18Cl3O38,mp-1202477,0.0,0.10704277,0.20760050398544383,"{62: 4, 5: 18, 17: 3, 8: 38}","[5, 8, 17, 62]",518838173624,Sm4B18Cl3O38
NaZnBP2O9,mp-1210507,0.10260000000000002,-0.66464883,0.17208668357142898,"{11: 1, 30: 1, 5: 1, 15: 2, 8: 9}","[5, 8, 11, 15, 30]",5189111152301,Na1Zn1B1P2O9
MgAl3SiBO9,mp-1210669,4.841799999999999,2.50178719,0.0,"{12: 1, 13: 3, 14: 1, 5: 1, 8: 9}","[5, 8, 12, 13, 14]",5189121133141,Mg1Al3Si1B1O9
KAlBP2O9,mp-1204336,0.20610000000000006,0.86546131,0.049977816827878385,"{19: 1, 13: 1, 5: 1, 15: 2, 8: 9}","[5, 8, 13, 15, 19]",5189131152191,K1Al1B1P2O9
Al5BO9,mp-3281,4.9384999999999994,2.53200228,0.0,"{13: 5, 5: 1, 8: 9}","[5, 8, 13]",5189135,Al5B1O9
ZnBP2PbO9,mp-1192901,0.3284,1.94088616,0.08119351089923033,"{30: 1, 5: 1, 15: 2, 82: 1, 8: 9}","[5, 8, 15, 30, 82]",5189152301821,Zn1B1P2Pb1O9
BP2Pb2O9,mp-1182507,0.023499999999999854,2.71404721,0.06280945565477936,"{5: 1, 15: 2, 82: 2, 8: 9}","[5, 8, 15, 82]",5189152822,B1P2Pb2O9
V5BO9,mp-770506,1.2132,2.19554434,0.05877124916666965,"{23: 5, 5: 1, 8: 9}","[5, 8, 23]",5189235,V5B1O9
La3BWO9,mp-554773,3.7947999999999995,4.27413773,0.0,"{57: 3, 5: 1, 74: 1, 8: 9}","[5, 8, 57, 74]",5189573741,La3B1W1O9
Pr3BWO9,mp-558051,3.8077999999999994,2.0939295,0.0,"{59: 3, 5: 1, 74: 1, 8: 9}","[5, 8, 59, 74]",5189593741,Pr3B1W1O9
Nd3BWO9,mp-561272,3.8249000000000004,1.98128812,0.0,"{60: 3, 5: 1, 74: 1, 8: 9}","[5, 8, 60, 74]",5189603741,Nd3B1W1O9