formula,material_id,band_gap,efermi,energy_above_hull,comp_atoms,sorted_keys_comp_atoms,comp_number,new_formula
CaSi2(BO4)2,mp-6419,5.6644000000000005,2.29934372,0.0010242946794907,"{20: 1, 14: 2, 5: 2, 8: 8}","[5, 8, 14, 20]",5288142201,Ca1Si2B2O8
BaSi2(BO4)2,mp-555387,5.5233,1.72666201,0.0,"{56: 1, 14: 2, 5: 2, 8: 8}","[5, 8, 14, 56]",5288142561,Ba1Si2B2O8
TiCo3(BO4)2,mp-1217061,1.4874,3.20634634,0.2374078444642844,"{22: 1, 27: 3, 5: 2, 8: 8}","[5, 8, 22, 27]",5288221273,Ti1Co3B2O8
Sm2Ge(BO4)2,mp-1203325,4.589,6.75737545,0.0,"{62: 2, 32: 1, 5: 2, 8: 8}","[5, 8, 32, 62]",5288321622,Sm2Ge1B2O8
Eu2Ge(BO4)2,mp-1019739,0.0,2.19242846,0.0225644287820525,"{63: 2, 32: 1, 5: 2, 8: 8}","[5, 8, 32, 63]",5288321632,Eu2Ge1B2O8
Gd2Ge(BO4)2,mp-1196136,3.1838,5.34773133,0.0140292639102472,"{64: 2, 32: 1, 5: 2, 8: 8}","[5, 8, 32, 64]",5288321642,Gd2Ge1B2O8
SrGe2(BO4)2,mp-1020611,3.8131,0.96462816,0.0119076171153693,"{38: 1, 32: 2, 5: 2, 8: 8}","[5, 8, 32, 38]",5288322381,Sr1Ge2B2O8
Ba(BO4)2,mp-1201084,0.0,-1.57166306,0.6945156744318064,"{56: 1, 5: 2, 8: 8}","[5, 8, 56]",5288561,Ba1B2O8
Ga4B2O9,mp-1224948,2.6855,1.42401421,0.0335124046666663,"{31: 4, 5: 2, 8: 9}","[5, 8, 31]",5289314,Ga4B2O9
Pr2B2MoO9,mp-556474,3.3843,1.41695622,0.0087528480357121,"{59: 2, 5: 2, 42: 1, 8: 9}","[5, 8, 42, 59]",5289421592,Pr2B2Mo1O9
BaB2O9,mp-1196854,0.0972999999999999,-1.53205628,0.7817268191666713,"{56: 1, 5: 2, 8: 9}","[5, 8, 56]",5289561,Ba1B2O9
Na2B29,mp-29953,0.0,4.71893179,0.055172106367741,"{11: 2, 5: 29}","[5, 11]",529112,Na2B29
PuB2,mp-580,0.0,11.7119878,0.0197142495833304,"{94: 1, 5: 2}","[5, 94]",52941,Pu1B2
BaB2F8,mp-558430,8.0511,-2.61481884,0.0,"{56: 1, 5: 2, 9: 8}","[5, 9, 56]",5298561,Ba1B2F8
Ca(Er2B15)2,mp-1227415,0.0,6.33261623,0.0490424330000003,"{20: 1, 68: 4, 5: 30}","[5, 20, 68]",530201684,Ca1Er4B30
Ba13B30(PbO30)2,mp-1229148,4.0522,0.82371106,0.0102106756190458,"{56: 13, 5: 30, 82: 2, 8: 60}","[5, 8, 56, 82]",5308605613822,Ba13B30Pb2O60
Nb10(SiB)3,mp-1220752,0.0,6.16947639,0.0112222868749931,"{41: 10, 14: 3, 5: 3}","[5, 14, 41]",531434110,Nb10Si3B3
Pr2B3Cl,mp-567730,0.0,6.10824659,0.3113039063095204,"{59: 2, 5: 3, 17: 1}","[5, 17, 59]",53171592,Pr2B3Cl1
V5B3,mp-1188836,0.0,6.48645153,0.0579147171874989,"{23: 5, 5: 3}","[5, 23]",53235,V5B3
Cr2B3,mp-12054,0.0,8.80764971,0.0454774246666662,"{24: 2, 5: 3}","[5, 24]",53242,Cr2B3
Cr2(BW)3,mp-1226102,0.0,7.92252296,0.0965934693750014,"{24: 2, 5: 3, 74: 3}","[5, 24, 74]",53242743,Cr2B3W3
Cr2B3Os,mp-1226478,0.0,8.73972222,0.1369955937500009,"{24: 2, 5: 3, 76: 1}","[5, 24, 76]",53242761,Cr2B3Os1
Fe(BRh2)3,mp-1225537,0.0,6.8713422,0.0034719007500019,"{26: 1, 5: 3, 45: 6}","[5, 26, 45]",53261456,Fe1B3Rh6
Sm2Fe17B3,mp-1190200,0.0,4.79669525,0.0850205188731072,"{62: 2, 26: 17, 5: 3}","[5, 26, 62]",532617622,Sm2Fe17B3
Nd2Fe23B3,mp-568158,0.0,4.88295615,0.0085326097991078,"{60: 2, 26: 23, 5: 3}","[5, 26, 60]",532623602,Nd2Fe23B3
Co(BRh2)3,mp-1226641,0.0,6.90926389,0.0169927454999978,"{27: 1, 5: 3, 45: 6}","[5, 27, 45]",53271456,Co1B3Rh6
Gd2CoB3,mp-1224781,0.0,4.78741773,0.1334949611666651,"{64: 2, 27: 1, 5: 3}","[5, 27, 64]",53271642,Gd2Co1B3
Nd2Co23B3,mp-1210590,0.0,5.38520543,0.019948813092542,"{60: 2, 27: 23, 5: 3}","[5, 27, 60]",532723602,Nd2Co23B3
Y2Co7B3,mp-1190692,0.0,5.42671531,0.0015092869627126,"{39: 2, 27: 7, 5: 3}","[5, 27, 39]",53277392,Y2Co7B3
Ce2Co7B3,mp-504616,0.0,7.36030303,0.0197069069791675,"{58: 2, 27: 7, 5: 3}","[5, 27, 58]",53277582,Ce2Co7B3
Pr2Co7B3,mp-3867,0.0,5.48858878,0.0324545605275536,"{59: 2, 27: 7, 5: 3}","[5, 27, 59]",53277592,Pr2Co7B3
Nd2Co7B3,mp-582394,0.0,5.43555639,0.0225937761967021,"{60: 2, 27: 7, 5: 3}","[5, 27, 60]",53277602,Nd2Co7B3
Sm2Co7B3,mp-505207,0.0,5.44215602,0.0163209487377571,"{62: 2, 27: 7, 5: 3}","[5, 27, 62]",53277622,Sm2Co7B3
Tb2Co7B3,mp-1191177,0.0,5.46957537,0.0010380782031207,"{65: 2, 27: 7, 5: 3}","[5, 27, 65]",53277652,Tb2Co7B3
Dy2Co7B3,mp-569158,0.0,5.30997019,0.0020435510984793,"{66: 2, 27: 7, 5: 3}","[5, 27, 66]",53277662,Dy2Co7B3
Ho2Co7B3,mp-976597,0.0,5.24938393,0.0037221251893875,"{67: 2, 27: 7, 5: 3}","[5, 27, 67]",53277672,Ho2Co7B3
Er2Co7B3,mp-1190704,0.0,5.23445379,0.0052150181691876,"{68: 2, 27: 7, 5: 3}","[5, 27, 68]",53277682,Er2Co7B3
Tm2Co7B3,mp-1190854,0.0,5.11291326,0.0065402797756419,"{69: 2, 27: 7, 5: 3}","[5, 27, 69]",53277692,Tm2Co7B3
CeNi2B3,mp-1226793,0.0,7.80441218,0.1267863915277649,"{58: 1, 28: 2, 5: 3}","[5, 28, 58]",53282581,Ce1Ni2B3
La2(Ni2B)3,mp-1223681,0.0,8.38582019,0.1269206794861705,"{57: 2, 28: 6, 5: 3}","[5, 28, 57]",53286572,La2Ni6B3
Cu2B3Ir4,mp-1225826,0.0,8.78612965,0.0,"{29: 2, 5: 3, 77: 4}","[5, 29, 77]",53292774,Cu2B3Ir4
Tl3B3Se10,mp-542058,1.3101000000000005,2.46153021,0.002668514777774,"{81: 3, 5: 3, 34: 10}","[5, 34, 81]",533410813,Tl3B3Se10
B3Mo,mp-1080111,0.0,7.45676016,0.0025448793749998,"{5: 3, 42: 1}","[5, 42]",53421,B3Mo1
U4(BRu4)3,mp-1216857,0.0,9.60860663,0.0058159778947342,"{92: 4, 5: 3, 44: 12}","[5, 44, 92]",534412924,U4B3Ru12
B3Ru7,mp-17535,0.0,8.40883721,0.0346023739999985,"{5: 3, 44: 7}","[5, 44]",53447,B3Ru7
Pr4(BRh4)3,mp-1219901,0.0,5.50694969,0.0405749107894708,"{59: 4, 5: 3, 45: 12}","[5, 45, 59]",534512594,Pr4B3Rh12
B3Rh7,mp-1106065,0.0,6.93587886,0.0124827504999984,"{5: 3, 45: 7}","[5, 45]",53457,B3Rh7
B3C10N3,mp-642462,0.1720999999999999,3.96878864,0.5900396796874983,"{5: 3, 6: 10, 7: 3}","[5, 6, 7]",5361073,B3C10N3
Y4Fe4Co12B3C,mp-1216386,0.0,5.38764092,0.0105149782481097,"{39: 4, 26: 4, 27: 12, 5: 3, 6: 1}","[5, 6, 26, 27, 39]",53612642712394,Y4Fe4Co12B3C1
Nd4Fe4Co12B3C,mp-1220278,0.0,5.31923216,0.0093958688178288,"{60: 4, 26: 4, 27: 12, 5: 3, 6: 1}","[5, 6, 26, 27, 60]",53612642712604,Nd4Fe4Co12B3C1
Y4Co16B3C,mp-1216253,0.0,5.25155337,0.0180920680317946,"{39: 4, 27: 16, 5: 3, 6: 1}","[5, 6, 27, 39]",53612716394,Y4Co16B3C1
Nb3B3C,mp-29979,0.0,7.45160365,0.018052289285718,"{41: 3, 5: 3, 6: 1}","[5, 6, 41]",5361413,Nb3B3C1
Ba5B3CNO9,mp-560326,3.3351,1.32570309,0.0229542333552599,"{56: 5, 5: 3, 6: 1, 7: 1, 8: 9}","[5, 6, 7, 8, 56]",53617189565,Ba5B3C1N1O9
Ca4Mn3B3CO15,mp-532650,1.4971000000000003,2.99513436,0.0,"{20: 4, 25: 3, 5: 3, 6: 1, 8: 15}","[5, 6, 8, 20, 25]",5361815204253,Ca4Mn3B3C1O15
Y2B3C2,mp-29896,0.0,5.25910663,0.0,"{39: 2, 5: 3, 6: 2}","[5, 6, 39]",5362392,Y2B3C2
Nb4B3C2,mp-29980,0.0,7.38545146,0.0502051602777804,"{41: 4, 5: 3, 6: 2}","[5, 6, 41]",5362414,Nb4B3C2
Mn23(BC)3,mp-1222106,0.0,6.9109562,0.008207707116524,"{25: 23, 5: 3, 6: 3}","[5, 6, 25]",53632523,Mn23B3C3
Fe23(BC)3,mp-1224758,0.0,6.10342673,0.0341335431896556,"{26: 23, 5: 3, 6: 3}","[5, 6, 26]",53632623,Fe23B3C3
B3C3N7,mp-1246452,3.5977,-2.51104288,0.3932768676923093,"{5: 3, 6: 3, 7: 7}","[5, 6, 7]",536377,B3C3N7
U4B3C5,mp-1216723,0.0,11.37129945,0.003155470833331,"{92: 4, 5: 3, 6: 5}","[5, 6, 92]",5365924,U4B3C5
Tm2Si9B36C,mp-1216853,1.2089,6.635513,0.0,"{69: 2, 14: 9, 5: 36, 6: 1}","[5, 6, 14, 69]",53661149692,Tm2Si9B36C1
CaB3(CO)6,mp-1214927,0.0345999999999997,-2.74237407,1.5396978010351523,"{20: 1, 5: 3, 6: 6, 8: 6}","[5, 6, 8, 20]",536686201,Ca1B3C6O6
B36O5,mp-32715,2.341600000000001,5.14984137,0.0164852912195128,"{5: 36, 8: 5}","[5, 8]",53685,B36O5
Cr46(BC3)3,mp-1227102,0.0,7.40959266,0.0221023580172392,"{24: 46, 5: 3, 6: 9}","[5, 6, 24]",53692446,Cr46B3C9
Fe46(BC3)3,mp-1226402,0.0,6.21834896,0.0500836506465525,"{26: 46, 5: 3, 6: 9}","[5, 6, 26]",53692646,Fe46B3C9
Sr7SiB3NO13,mp-1256705,0.6242000000000001,3.23918273,0.1514238126249907,"{38: 7, 14: 1, 5: 3, 7: 1, 8: 13}","[5, 7, 8, 14, 38]",5371813141387,Sr7Si1B3N1O13
Ba7SiB3NO13,mp-1256464,0.6212,2.78672547,0.122723915099991,"{56: 7, 14: 1, 5: 3, 7: 1, 8: 13}","[5, 7, 8, 14, 56]",5371813141567,Ba7Si1B3N1O13
GaB3N4,mp-1019740,3.710900000000001,6.50225485,0.3997247250000004,"{31: 1, 5: 3, 7: 4}","[5, 7, 31]",5374311,Ga1B3N4
Ba3B3N5,mp-1246449,2.0126,2.70844954,0.1130789518181831,"{56: 3, 5: 3, 7: 5}","[5, 7, 56]",5375563,Ba3B3N5
Re7B3,mp-1106180,0.0,8.21885379,0.0086543453000018,"{75: 7, 5: 3}","[5, 75]",53757,Re7B3
NaSr4(BN2)3,mp-10811,1.9666,2.35374992,0.0,"{11: 1, 38: 4, 5: 3, 7: 6}","[5, 7, 11, 38]",5376111384,Na1Sr4B3N6
Ba4Na(BN2)3,mp-9705,2.0441,2.22650252,0.0,"{56: 4, 11: 1, 5: 3, 7: 6}","[5, 7, 11, 56]",5376111564,Ba4Na1B3N6
Ca5(BN2)3,mp-1213996,0.0,5.76071359,0.0339437369642876,"{20: 5, 5: 3, 7: 6}","[5, 7, 20]",5376205,Ca5B3N6
B3Ir2,mp-1228647,0.0,9.13854441,0.0608532261666674,"{5: 3, 77: 2}","[5, 77]",53772,B3Ir2
K3B3O10,mp-1181183,0.6386999999999999,-1.37751782,0.3169106890624995,"{19: 3, 5: 3, 8: 10}","[5, 8, 19]",53810193,K3B3O10
CaB3O10,mp-1182657,0.4029000000000002,-1.74507399,0.4675491233481725,"{20: 1, 5: 3, 8: 10}","[5, 8, 20]",53810201,Ca1B3O10
Ca4YB3O10,mp-1214020,4.4498,1.66218681,0.0,"{20: 4, 39: 1, 5: 3, 8: 10}","[5, 8, 20, 39]",53810204391,Ca4Y1B3O10
Rb3B3O10,mp-1202870,0.0188000000000001,-1.51649812,0.3519477574999996,"{37: 3, 5: 3, 8: 10}","[5, 8, 37]",53810373,Rb3B3O10
Cd4BiB3O10,mp-1189868,2.2263,1.90626369,0.0031544555208231,"{48: 4, 83: 1, 5: 3, 8: 10}","[5, 8, 48, 83]",53810484831,Cd4Bi1B3O10
Pr4B3O10F,mp-1219930,4.5125,2.55385495,0.0166154481944467,"{59: 4, 5: 3, 8: 10, 9: 1}","[5, 8, 9, 59]",5381091594,Pr4B3O10F1
B3Pb6O10F,mp-1195003,2.7688,2.9553295,0.001726543666666,"{5: 3, 82: 6, 8: 10, 9: 1}","[5, 8, 9, 82]",5381091826,B3Pb6O10F1
Mg5Nb(BO4)3,mp-1196847,3.0182,2.68701085,0.0,"{12: 5, 41: 1, 5: 3, 8: 12}","[5, 8, 12, 41]",53812125411,Mg5Nb1B3O12
Mg5Ta(BO4)3,mp-1196921,3.8219,2.77406648,0.0,"{12: 5, 73: 1, 5: 3, 8: 12}","[5, 8, 12, 73]",53812125731,Mg5Ta1B3O12
Ca(BO4)3,mp-1204932,0.1449,-1.54401494,0.4823769002734375,"{20: 1, 5: 3, 8: 12}","[5, 8, 20]",53812201,Ca1B3O12
Bi4(BO4)3,mp-769052,0.0,3.82447152,0.0869197113157884,"{83: 4, 5: 3, 8: 12}","[5, 8, 83]",53812834,Bi4B3O12
Ba7GeB3ClO13,mp-1194658,3.5944000000000003,2.01334041,0.0078956798666665,"{56: 7, 32: 1, 5: 3, 17: 1, 8: 13}","[5, 8, 17, 32, 56]",53813171321567,Ba7Ge1B3Cl1O13
Ba7GeB3BrO13,mp-1194795,3.5639000000000003,1.74063617,0.0022971547666656,"{56: 7, 32: 1, 5: 3, 35: 1, 8: 13}","[5, 8, 32, 35, 56]",53813321351567,Ba7Ge1B3Br1O13
B3Pb10Br3O13,mp-1229254,2.4354,5.07891672,0.0,"{5: 3, 82: 10, 35: 3, 8: 13}","[5, 8, 35, 82]",538133538210,B3Pb10Br3O13
La5B3O13,mp-1211502,0.0,4.91837374,0.0449903797619022,"{57: 5, 5: 3, 8: 13}","[5, 8, 57]",53813575,La5B3O13
Gd5B3O13,mp-1212669,0.0,2.14089172,0.0369240108333315,"{64: 5, 5: 3, 8: 13}","[5, 8, 64]",53813645,Gd5B3O13
Dy5B3O13,mp-1212938,0.0,2.25965197,0.0306977578571423,"{66: 5, 5: 3, 8: 13}","[5, 8, 66]",53813665,Dy5B3O13
UAl4B3O14,mp-1202393,0.3679999999999999,1.68928889,0.0694243190151073,"{92: 1, 13: 4, 5: 3, 8: 14}","[5, 8, 13, 92]",53814134921,U1Al4B3O14
Ni8B3SbO15,mp-1220223,0.0,6.02953088,0.0107126023148067,"{28: 8, 5: 3, 51: 1, 8: 15}","[5, 8, 28, 51]",53815288511,Ni8B3Sb1O15
Ba4La4Cu4(BO6)3,mp-1228428,0.4382000000000001,4.8883497,0.0706617126893975,"{56: 4, 57: 4, 29: 4, 5: 3, 8: 18}","[5, 8, 29, 56, 57]",53818294564574,Ba4La4Cu4B3O18
NaMg6Al3Si6(BO10)3,mp-1221241,0.0,0.21123119,0.1888809158858828,"{11: 1, 12: 6, 13: 3, 14: 6, 5: 3, 8: 30}","[5, 8, 11, 12, 13, 14]",53830111126133146,Na1Mg6Al3Si6B3O30
KNa2Si12(BO10)3,mp-15541,5.124700000000001,0.84233362,0.000742305434036,"{19: 1, 11: 2, 14: 12, 5: 3, 8: 30}","[5, 8, 11, 14, 19]",538301121412191,K1Na2Si12B3O30
NaAl6Fe3Si6B3O30F,mp-18401,2.5556,2.80988045,0.0211707485047885,"{11: 1, 13: 6, 26: 3, 14: 6, 5: 3, 8: 30, 9: 1}","[5, 8, 9, 11, 13, 14, 26]",5383091111136146263,Na1Al6Fe3Si6B3O30F1
NaMg3Al6Si6B3O31,mp-728227,0.0,2.5355272,0.0872123299454434,"{11: 1, 12: 3, 13: 6, 14: 6, 5: 3, 8: 31}","[5, 8, 11, 12, 13, 14]",53831111123136146,Na1Mg3Al6Si6B3O31
NaAl6Fe3Si6B3O31,mp-818418,0.0,2.94320067,0.0368706893452195,"{11: 1, 13: 6, 26: 3, 14: 6, 5: 3, 8: 31}","[5, 8, 11, 13, 14, 26]",53831111136146263,Na1Al6Fe3Si6B3O31
KB3O5,mp-559636,5.2382,-0.42139659,0.0008996413580382,"{19: 1, 5: 3, 8: 5}","[5, 8, 19]",5385191,K1B3O5
RbB3O5,mp-561055,5.373,-0.60363985,0.0009588383024832,"{37: 1, 5: 3, 8: 5}","[5, 8, 37]",5385371,Rb1B3O5
AgB3O5,mp-1194753,2.3274000000000004,2.11267989,0.0182373872916645,"{47: 1, 5: 3, 8: 5}","[5, 8, 47]",5385471,Ag1B3O5
KCd(BO2)3,mp-1196758,3.7622,-0.63280447,0.000930977062282,"{19: 1, 48: 1, 5: 3, 8: 6}","[5, 8, 19, 48]",5386191481,K1Cd1B3O6
Ca(BO2)3,mp-729083,0.5526,0.98763858,0.0753370674375251,"{20: 1, 5: 3, 8: 6}","[5, 8, 20]",5386201,Ca1B3O6
RbCd(BO2)3,mp-1197285,3.8078,3.17386395,0.0,"{37: 1, 48: 1, 5: 3, 8: 6}","[5, 8, 37, 48]",5386371481,Rb1Cd1B3O6
Y(BO2)3,mp-754903,5.446999999999999,2.26315362,0.0,"{39: 1, 5: 3, 8: 6}","[5, 8, 39]",5386391,Y1B3O6
CsBa(BO2)3,mp-556936,4.0415,0.40276056,0.0032533906060585,"{55: 1, 56: 1, 5: 3, 8: 6}","[5, 8, 55, 56]",5386551561,Cs1Ba1B3O6
La(BO2)3,mp-4658,4.543200000000001,3.29187839,0.0041628505999984,"{57: 1, 5: 3, 8: 6}","[5, 8, 57]",5386571,La1B3O6
Eu(BO2)3,mp-22248,0.0,1.66644999,0.001491596000001,"{63: 1, 5: 3, 8: 6}","[5, 8, 63]",5386631,Eu1B3O6
Gd(BO2)3,mp-1204314,2.693,2.36303368,0.0,"{64: 1, 5: 3, 8: 6}","[5, 8, 64]",5386641,Gd1B3O6
CaAlB3O7,mp-556532,5.376600000000001,3.77080741,0.0164166424107374,"{20: 1, 13: 1, 5: 3, 8: 7}","[5, 8, 13, 20]",5387131201,Ca1Al1B3O7
CsZn2B3O7,mp-1195000,3.5131,-0.53907232,0.0106519546794778,"{55: 1, 30: 2, 5: 3, 8: 7}","[5, 8, 30, 55]",5387302551,Cs1Zn2B3O7
RbGeB3O7,mp-1199892,4.5867,4.10131514,0.0043255274305185,"{37: 1, 32: 1, 5: 3, 8: 7}","[5, 8, 32, 37]",5387321371,Rb1Ge1B3O7
CsGeB3O7,mp-558804,4.5981,-0.26852646,0.0003384931249827,"{55: 1, 32: 1, 5: 3, 8: 7}","[5, 8, 32, 55]",5387321551,Cs1Ge1B3O7
Y3B3O7,mp-1100889,0.8694999999999995,5.26743495,0.431412476072655,"{39: 3, 5: 3, 8: 7}","[5, 8, 39]",5387393,Y3B3O7
Tm3B3O7,mp-1100989,0.9318999999999996,5.31231989,0.4196403478942212,"{69: 3, 5: 3, 8: 7}","[5, 8, 69]",5387693,Tm3B3O7
Ca2B3ClO8,mp-1214203,0.0913,-0.0530469,0.3265415619642891,"{20: 2, 5: 3, 17: 1, 8: 8}","[5, 8, 17, 20]",5388171202,Ca2B3Cl1O8
Ga2B3O8,mp-1195223,0.0,3.27265279,0.0611082325480776,"{31: 2, 5: 3, 8: 8}","[5, 8, 31]",5388312,Ga2B3O8
Dy2B3O8,mp-1200687,0.1170999999999997,2.71805786,0.0468703250961564,"{66: 2, 5: 3, 8: 8}","[5, 8, 66]",5388662,Dy2B3O8
Ho2B3O8,mp-1198383,0.1139000000000001,2.70964933,0.0634964813942318,"{67: 2, 5: 3, 8: 8}","[5, 8, 67]",5388672,Ho2B3O8
NaCa4(BO3)3,mp-554240,4.0868,2.21804984,0.008593400294111,"{11: 1, 20: 4, 5: 3, 8: 9}","[5, 8, 11, 20]",5389111204,Na1Ca4B3O9
NaSr4(BO3)3,mp-560768,3.9798,1.7408485,0.0145129401470596,"{11: 1, 38: 4, 5: 3, 8: 9}","[5, 8, 11, 38]",5389111384,Na1Sr4B3O9
Ba4Na(BO3)3,mp-6575,3.9839,1.72217156,0.0,"{56: 4, 11: 1, 5: 3, 8: 9}","[5, 8, 11, 56]",5389111564,Ba4Na1B3O9
Na3La2(BO3)3,mp-560129,3.7902,2.79457394,0.0007626682353034,"{11: 3, 57: 2, 5: 3, 8: 9}","[5, 8, 11, 57]",5389113572,Na3La2B3O9
Ba3B3Pb2ClO9,mp-1195317,3.3652,2.23903423,0.0,"{56: 3, 5: 3, 82: 2, 17: 1, 8: 9}","[5, 8, 17, 56, 82]",5389171563822,Ba3B3Pb2Cl1O9
Ba5B3ClO9,mp-1201345,3.7516,1.33544356,0.0,"{56: 5, 5: 3, 17: 1, 8: 9}","[5, 8, 17, 56]",5389171565,Ba5B3Cl1O9
Eu5B3ClO9,mp-1202692,0.3195000000000005,4.83784603,0.0,"{63: 5, 5: 3, 17: 1, 8: 9}","[5, 8, 17, 63]",5389171635,Eu5B3Cl1O9
KZn4(BO3)3,mp-6652,2.8200000000000003,0.05049456,0.0108281888235239,"{19: 1, 30: 4, 5: 3, 8: 9}","[5, 8, 19, 30]",5389191304,K1Zn4B3O9
Ca(BO3)3,mp-1193777,0.0423999999999999,-1.17067987,0.5263988038941951,"{20: 1, 5: 3, 8: 9}","[5, 8, 20]",5389201,Ca1B3O9
Sr3Sc(BO3)3,mp-17562,4.626,1.74079342,0.0,"{38: 3, 21: 1, 5: 3, 8: 9}","[5, 8, 21, 38]",5389211383,Sr3Sc1B3O9
Ba3Sc(BO3)3,mp-14972,3.4742,2.17289252,0.0,"{56: 3, 21: 1, 5: 3, 8: 9}","[5, 8, 21, 56]",5389211563,Ba3Sc1B3O9
RbZn4(BO3)3,mp-542143,2.7812,0.21524588,0.0014655592463235,"{37: 1, 30: 4, 5: 3, 8: 9}","[5, 8, 30, 37]",5389304371,Rb1Zn4B3O9
CsZn4(BO3)3,mp-1019723,2.826,0.43159451,0.0064949257843025,"{55: 1, 30: 4, 5: 3, 8: 9}","[5, 8, 30, 55]",5389304551,Cs1Zn4B3O9
Sr5B3BrO9,mp-560233,3.8991,1.59927817,0.0048043863472138,"{38: 5, 5: 3, 35: 1, 8: 9}","[5, 8, 35, 38]",5389351385,Sr5B3Br1O9
Ba3B3Pb2BrO9,mp-1194742,3.2581,2.24832247,0.0,"{56: 3, 5: 3, 82: 2, 35: 1, 8: 9}","[5, 8, 35, 56, 82]",5389351563822,Ba3B3Pb2Br1O9
Ba5B3BrO9,mp-1199246,3.8019,1.27152282,0.0,"{56: 5, 5: 3, 35: 1, 8: 9}","[5, 8, 35, 56]",5389351565,Ba5B3Br1O9
RbB3Te2O9,mp-769383,3.3025,1.16990203,0.0962849094814872,"{37: 1, 5: 3, 52: 2, 8: 9}","[5, 8, 37, 52]",5389371522,Rb1B3Te2O9
Rb3Y2(BO3)3,mp-556206,4.1682,0.61947406,0.0,"{37: 3, 39: 2, 5: 3, 8: 9}","[5, 8, 37, 39]",5389373392,Rb3Y2B3O9
Sr3Y(BO3)3,mp-17025,4.4109,1.42538234,0.0023692458333322,"{38: 3, 39: 1, 5: 3, 8: 9}","[5, 8, 38, 39]",5389383391,Sr3Y1B3O9
Ba3Y(BO3)3,mp-6310,3.8153,1.89148802,0.0,"{56: 3, 39: 1, 5: 3, 8: 9}","[5, 8, 39, 56]",5389391563,Ba3Y1B3O9
Ba3In(BO3)3,mp-866313,3.4937,2.05940277,0.0,"{56: 3, 49: 1, 5: 3, 8: 9}","[5, 8, 49, 56]",5389491563,Ba3In1B3O9
Ba3Dy(BO3)3,mp-1214848,3.8533,2.20817585,0.0,"{56: 3, 66: 1, 5: 3, 8: 9}","[5, 8, 56, 66]",5389563661,Ba3Dy1B3O9
Ba3Ho(BO3)3,mp-14384,3.8238,1.96327694,0.0,"{56: 3, 67: 1, 5: 3, 8: 9}","[5, 8, 56, 67]",5389563671,Ba3Ho1B3O9
Ba3Er(BO3)3,mp-1214885,3.8599,2.06538599,0.0,"{56: 3, 68: 1, 5: 3, 8: 9}","[5, 8, 56, 68]",5389563681,Ba3Er1B3O9
Ba3Tm(BO3)3,mp-14385,3.8436,1.97555337,0.0,"{56: 3, 69: 1, 5: 3, 8: 9}","[5, 8, 56, 69]",5389563691,Ba3Tm1B3O9
Ba3Lu(BO3)3,mp-14386,3.8583,1.91001276,0.0,"{56: 3, 71: 1, 5: 3, 8: 9}","[5, 8, 56, 71]",5389563711,Ba3Lu1B3O9
Bi2(BO3)3,mp-755446,0.0,3.05809612,0.1048244676785703,"{83: 2, 5: 3, 8: 9}","[5, 8, 83]",5389832,Bi2B3O9
Ca5B3O9F,mp-6632,4.236800000000001,1.58075555,0.004723573055557,"{20: 5, 5: 3, 8: 9, 9: 1}","[5, 8, 9, 20]",538991205,Ca5B3O9F1
Ba3Zn2B3O9F,mp-1195688,3.3811,4.44104757,0.0183365872222314,"{56: 3, 30: 2, 5: 3, 8: 9, 9: 1}","[5, 8, 9, 30, 56]",538991302563,Ba3Zn2B3O9F1
Sr5B3O9F,mp-560818,4.1747,1.22886804,0.0025502062499969,"{38: 5, 5: 3, 8: 9, 9: 1}","[5, 8, 9, 38]",538991385,Sr5B3O9F1
Eu5B3O9F,mp-1196201,0.1094999999999997,5.2086536,0.010755783888884,"{63: 5, 5: 3, 8: 9, 9: 1}","[5, 8, 9, 63]",538991635,Eu5B3O9F1
Ba3Sr4B3O9F5,mp-1182538,4.3528,1.33117904,0.0173902503819203,"{56: 3, 38: 4, 5: 3, 8: 9, 9: 5}","[5, 8, 9, 38, 56]",538995384563,Ba3Sr4B3O9F5
Sm11(CoB)40,mp-649331,0.0,5.94939681,0.0149373581868159,"{62: 11, 27: 40, 5: 40}","[5, 27, 62]",54027406211,Sm11Co40B40
MgB4,mp-365,0.3640999999999996,6.93534503,0.0,"{12: 1, 5: 4}","[5, 12]",54121,Mg1B4
Co19(Si2B)4,mp-1226660,0.0,7.97621267,0.0243677140322571,"{27: 19, 14: 8, 5: 4}","[5, 14, 27]",541482719,Co19Si8B4
Ba2Sr5B4S13,mp-1214648,2.5476,4.72932619,0.0061079072916765,"{56: 2, 38: 5, 5: 4, 16: 13}","[5, 16, 38, 56]",541613385562,Ba2Sr5B4S13
Ba7B4S13,mp-562764,2.5225,1.86209067,0.0,"{56: 7, 5: 4, 16: 13}","[5, 16, 56]",541613567,Ba7B4S13
Ca2B4Rh5,mp-8895,0.0,5.69555978,0.0014867174999642,"{20: 2, 5: 4, 45: 5}","[5, 20, 45]",54202455,Ca2B4Rh5
ScFeB4,mp-1191106,0.0,7.15143174,0.0,"{21: 1, 26: 1, 5: 4}","[5, 21, 26]",54211261,Sc1Fe1B4
ZrScB4,mp-1215212,0.0,6.5357353,0.9661065116666664,"{40: 1, 21: 1, 5: 4}","[5, 21, 40]",54211401,Zr1Sc1B4
Sc(BRu)4,mp-1200617,0.0,7.16608678,0.0376315114814875,"{21: 1, 5: 4, 44: 4}","[5, 21, 44]",54211444,Sc1B4Ru4
ScB4Os3,mp-10504,0.0,8.14903382,0.0079418618750004,"{21: 1, 5: 4, 76: 3}","[5, 21, 76]",54211763,Sc1B4Os3
Sc2B4Os5,mp-1192274,0.0,8.0948376,0.0289184831818154,"{21: 2, 5: 4, 76: 5}","[5, 21, 76]",54212765,Sc2B4Os5
Sc3Nb3(B2Ru5)2,mp-1219392,0.0,6.65733567,0.0025227289999989,"{21: 3, 41: 3, 5: 4, 44: 10}","[5, 21, 41, 44]",542134134410,Sc3Nb3B4Ru10
TiVB4,mp-1216667,0.0,8.6139644,0.0092285833333338,"{22: 1, 23: 1, 5: 4}","[5, 22, 23]",54221231,Ti1V1B4
TiCrB4,mp-1216966,0.0,8.8242422,0.0468831841666652,"{22: 1, 24: 1, 5: 4}","[5, 22, 24]",54221241,Ti1Cr1B4
ZrTiB4,mp-1215178,0.0,7.74654337,0.0195071533333326,"{40: 1, 22: 1, 5: 4}","[5, 22, 40]",54221401,Zr1Ti1B4
TiB4Mo,mp-1217026,0.0,9.43938636,0.0600825908333337,"{22: 1, 5: 4, 42: 1}","[5, 22, 42]",54221421,Ti1B4Mo1
HfTiB4,mp-1224263,0.0,8.10614359,0.0130065483333314,"{72: 1, 22: 1, 5: 4}","[5, 22, 72]",54221721,Hf1Ti1B4
Ti3B4Mo3,mp-1217082,0.0,7.95569254,0.0249239129999967,"{22: 3, 5: 4, 42: 3}","[5, 22, 42]",54223423,Ti3B4Mo3