formula,material_id,band_gap,efermi,energy_above_hull,comp_atoms,sorted_keys_comp_atoms,comp_number,new_formula
KLi(BH4)2,mp-1197966,6.1328,2.82669408,0.0028645987500013,"{19: 1, 3: 1, 5: 2, 1: 8}","[1, 3, 5, 19]",183152191,K1Li1B2H8
LiCu2B2H8(ClO4)2,mp-1236222,0.0,2.2494837,0.0743877875000036,"{3: 1, 29: 2, 5: 2, 1: 8, 17: 2, 8: 8}","[1, 3, 5, 8, 17, 29]",18315288172292,Li1Cu2B2H8Cl2O8
LiB3H8,mp-1211100,6.1396,2.28682036,0.0284574529326917,"{3: 1, 5: 3, 1: 8}","[1, 3, 5]",183153,Li1B3H8
BH8CN,mp-567989,6.158,-3.0939285,0.1306607990909087,"{5: 1, 1: 8, 6: 1, 7: 1}","[1, 5, 6, 7]",18516171,B1H8C1N1
AgBH8C4(N2F)4,mp-759882,3.7801,-0.79750091,0.0777545305769278,"{47: 1, 5: 1, 1: 8, 6: 4, 7: 8, 9: 4}","[1, 5, 6, 7, 9, 47]",1851647894471,Ag1B1H8C4N8F4
NaB(H4N)2,mp-1201964,5.144,2.91144281,0.2135253372222205,"{11: 1, 5: 1, 1: 8, 7: 2}","[1, 5, 7, 11]",185172111,Na1B1H8N2
NaB(H4O)2,mp-23784,5.8288,-2.99405839,0.0956597440624866,"{11: 1, 5: 1, 1: 8, 8: 2}","[1, 5, 8, 11]",185182111,Na1B1H8O2
NaBH8O7,mp-721727,3.8757,-0.94736938,0.0088826132843111,"{11: 1, 5: 1, 1: 8, 8: 7}","[1, 5, 8, 11]",185187111,Na1B1H8O7
KNa(BH4)2,mp-23758,6.352399999999999,-2.94979201,0.0022197137499997,"{19: 1, 11: 1, 5: 2, 1: 8}","[1, 5, 11, 19]",1852111191,K1Na1B2H8
Mn(BH4)2,mp-1204859,1.827,-0.04148603,0.0104271688257551,"{25: 1, 5: 2, 1: 8}","[1, 5, 25]",1852251,Mn1B2H8
Ba(BH4)2,mp-2647015,5.6574,-2.94902519,0.0,"{56: 1, 5: 2, 1: 8}","[1, 5, 56]",1852561,Ba1B2H8
Sm(BH4)2,mp-1194497,0.0,2.74180408,0.0544656335606079,"{62: 1, 5: 2, 1: 8}","[1, 5, 62]",1852621,Sm1B2H8
B2H8N,mp-1197839,5.6386,2.85302436,0.0844228519772718,"{5: 2, 1: 8, 7: 1}","[1, 5, 7]",185271,B2H8N1
MgB2P2H8O13,mp-542843,5.6109,-0.0884814,0.0090049745445153,"{12: 1, 5: 2, 15: 2, 1: 8, 8: 13}","[1, 5, 8, 12, 15]",1852813121152,Mg1B2P2H8O13
MgCu2B2H8(ClO4)2,mp-1234759,0.8907000000000003,3.55351052,0.1506133641304385,"{12: 1, 29: 2, 5: 2, 1: 8, 17: 2, 8: 8}","[1, 5, 8, 12, 17, 29]",185288121172292,Mg1Cu2B2H8Cl2O8
CaCu2B2H8(ClO4)2,mp-1233800,1.4312,3.01616732,0.1069381406521756,"{20: 1, 29: 2, 5: 2, 1: 8, 17: 2, 8: 8}","[1, 5, 8, 17, 20, 29]",185288172201292,Ca1Cu2B2H8Cl2O8
CaB2(HO)8,mp-1199389,5.3334,0.25514427,0.0341887714473552,"{20: 1, 5: 2, 1: 8, 8: 8}","[1, 5, 8, 20]",185288201,Ca1B2H8O8
BaB2(HO)8,mp-720736,0.2518,-0.09388243,0.6264750883333363,"{56: 1, 5: 2, 1: 8, 8: 8}","[1, 5, 8, 56]",185288561,Ba1B2H8O8
NaB3H8,mp-1190348,5.775,-2.53674339,0.0264072226602563,"{11: 1, 5: 3, 1: 8}","[1, 5, 11]",1853111,Na1B3H8
CsB3H8,mp-1191955,5.973,-2.88220498,0.0048663778846149,"{55: 1, 5: 3, 1: 8}","[1, 5, 55]",1853551,Cs1B3H8
Na2B4H8O11,mp-706655,4.5752,-0.62988187,0.000950124516641,"{11: 2, 5: 4, 1: 8, 8: 11}","[1, 5, 8, 11]",1854811112,Na2B4H8O11
B5H8,mp-29611,5.4267,-2.64730127,0.0327043726398601,"{5: 5, 1: 8}","[1, 5]",1855,B5H8
B5H8CO6,mp-1203656,3.8611,-0.60348998,0.3302161768541669,"{5: 5, 1: 8, 6: 1, 8: 6}","[1, 5, 6, 8]",18556186,B5H8C1O6
B5H8NO12,mp-721584,0.0,-2.71485668,0.2876142064743607,"{5: 5, 1: 8, 7: 1, 8: 12}","[1, 5, 7, 8]",185571812,B5H8N1O12
RbB5(H2O3)4,mp-721194,0.0,-1.78942505,1.03893230735577,"{37: 1, 5: 5, 1: 8, 8: 12}","[1, 5, 8, 37]",1855812371,Rb1B5H8O12
NaB5H8O13,mp-1195228,0.5206,-2.14919711,0.1047408436111227,"{11: 1, 5: 5, 1: 8, 8: 13}","[1, 5, 8, 11]",1855813111,Na1B5H8O13
NaCaB5H8O13,mp-705528,4.884399999999999,0.13663421,0.0101920716964123,"{11: 1, 20: 1, 5: 5, 1: 8, 8: 13}","[1, 5, 8, 11, 20]",1855813111201,Na1Ca1B5H8O13
K2GaB5(H4O7)2,mp-1196254,5.0529,3.41848748,0.0161376705416635,"{19: 2, 31: 1, 5: 5, 1: 8, 8: 14}","[1, 5, 8, 19, 31]",1855814192311,K2Ga1B5H8O14
Rb2GaB5(H4O7)2,mp-1201112,5.194599999999999,3.55360629,0.0044121681333324,"{37: 2, 31: 1, 5: 5, 1: 8, 8: 14}","[1, 5, 8, 31, 37]",1855814311372,Rb2Ga1B5H8O14
CaB6(H4O7)2,mp-1198301,5.1002,-0.52329229,0.0122035594581166,"{20: 1, 5: 6, 1: 8, 8: 14}","[1, 5, 8, 20]",1856814201,Ca1B6H8O14
SrB6(H4O7)2,mp-721618,5.0646,-0.51807654,0.0040970239347366,"{38: 1, 5: 6, 1: 8, 8: 14}","[1, 5, 8, 38]",1856814381,Sr1B6H8O14
CsB6H8O7,mp-707883,2.0083,3.53596827,0.2807780147727223,"{55: 1, 5: 6, 1: 8, 8: 7}","[1, 5, 8, 55]",185687551,Cs1B6H8O7
RbB6(HO)8,mp-1203229,1.837,2.62603236,0.4648336680978264,"{37: 1, 5: 6, 1: 8, 8: 8}","[1, 5, 8, 37]",185688371,Rb1B6H8O8
B9H8S,mp-27202,4.0429,-2.36865916,0.0193989780849603,"{5: 9, 1: 8, 16: 1}","[1, 5, 16]",1859161,B9H8S1
NaCa2B9(H2O5)4,mp-722342,5.1407,0.27958391,0.007783257249998,"{11: 1, 20: 2, 5: 9, 1: 8, 8: 20}","[1, 5, 8, 11, 20]",1859820111202,Na1Ca2B9H8O20
LiB(H3N)3,mp-1194702,4.086399999999999,2.8377013,0.1795020225595225,"{3: 1, 5: 1, 1: 9, 7: 3}","[1, 3, 5, 7]",19315173,Li1B1H9N3
Li2B2H9N,mp-1200773,4.6523,2.79243824,0.1026252986904738,"{3: 2, 5: 2, 1: 9, 7: 1}","[1, 3, 5, 7]",19325271,Li2B2H9N1
RbB10H9,mp-27650,4.4008,-1.23136192,0.0799094603257639,"{37: 1, 5: 10, 1: 9}","[1, 5, 37]",19510371,Rb1B10H9
K2B10H9O,mp-705892,0.0,-1.09363199,0.4382820321027871,"{19: 2, 5: 10, 1: 9, 8: 1}","[1, 5, 8, 19]",1951081192,K2B10H9O1
Mg3B11(H3O8)3,mp-733898,3.715100000000001,0.69726396,0.2749034796755261,"{12: 3, 5: 11, 1: 9, 8: 24}","[1, 5, 8, 12]",19511824123,Mg3B11H9O24
BPH9C2,mp-758984,5.6154,-2.45537531,0.0834560020192309,"{5: 1, 15: 1, 1: 9, 6: 2}","[1, 5, 6, 15]",195162151,B1P1H9C2
BH9(CO)3,mp-558506,5.7775,-2.37927138,0.1717719661718746,"{5: 1, 1: 9, 6: 3, 8: 3}","[1, 5, 6, 8]",19516383,B1H9C3O3
B20Te2H9C4,mp-1201814,0.4224,0.83524901,0.6251976116812008,"{5: 20, 52: 2, 1: 9, 6: 4}","[1, 5, 6, 52]",1952064522,B20Te2H9C4
Mg3B2H9SO13F,mp-1181947,4.2701,4.07373416,0.0900790031321863,"{12: 3, 5: 2, 1: 9, 16: 1, 8: 13, 9: 1}","[1, 5, 8, 9, 12, 16]",195281391123161,Mg3B2H9S1O13F1
B5H9,mp-1338697,5.964700000000001,-3.44933921,0.0192347789204552,"{5: 5, 1: 9}","[1, 5]",1955,B5H9
B5H9N,mp-27893,3.7741,-0.15593281,0.0644280701333341,"{5: 5, 1: 9, 7: 1}","[1, 5, 7]",195571,B5H9N1
Li10B14Cl2O25,mp-23122,6.4019,0.84404014,0.0026865945833289,"{3: 10, 5: 14, 17: 2, 8: 25}","[3, 5, 8, 17]",310514825172,Li10B14Cl2O25
Li11Mn12(BO3)12,mp-766526,0.0,1.80976615,0.0220010891901409,"{3: 11, 25: 12, 5: 12, 8: 36}","[3, 5, 8, 25]",3115128362512,Li11Mn12B12O36
Li11Fe12(BO3)12,mp-766960,1.0162999999999998,2.3447121,0.0151413167957468,"{3: 11, 26: 12, 5: 12, 8: 36}","[3, 5, 8, 26]",3115128362612,Li11Fe12B12O36
Li11Fe3B24(PbO24)2,mp-694909,1.1731000000000005,1.9726365,0.0078251639796596,"{3: 11, 26: 3, 5: 24, 82: 2, 8: 48}","[3, 5, 8, 26, 82]",311524848263822,Li11Fe3B24Pb2O48
LiBeBO3,mp-1020026,6.0842,0.56879199,0.0133947354166616,"{3: 1, 4: 1, 5: 1, 8: 3}","[3, 4, 5, 8]",31415183,Li1Be1B1O3
Li14Be6(BO3)9,mp-1210986,0.0084,0.21744774,0.0,"{3: 14, 4: 6, 5: 9, 8: 27}","[3, 4, 5, 8]",3144659827,Li14Be6B9O27
Ba2LiB10O19,mp-1200459,0.0363,0.33986771,0.0898115084228443,"{56: 2, 3: 1, 5: 10, 8: 19}","[3, 5, 8, 56]",31510819562,Ba2Li1B10O19
LiB11,mp-1180507,0.0,6.69553348,0.2083970384722224,"{3: 1, 5: 11}","[3, 5]",31511,Li1B11
LiMg14B,mp-1026806,0.0,3.35214526,0.1973120648263888,"{3: 1, 12: 14, 5: 1}","[3, 5, 12]",31511214,Li1Mg14B1
LiSiB,mp-1100392,0.2852999999999994,6.87877015,0.049326017329748,"{3: 1, 14: 1, 5: 1}","[3, 5, 14]",3151141,Li1Si1B1
SrLiBS3,mp-557962,2.3921999999999994,2.18920777,0.0008485134722171,"{38: 1, 3: 1, 5: 1, 16: 3}","[3, 5, 16, 38]",3151163381,Sr1Li1B1S3
BaLiBS3,mp-554076,2.1531,2.28187516,0.0,"{56: 1, 3: 1, 5: 1, 16: 3}","[3, 5, 16, 56]",3151163561,Ba1Li1B1S3
LiSnB,mp-1100396,0.415,7.43951428,0.34614873888889,"{3: 1, 50: 1, 5: 1}","[3, 5, 50]",3151501,Li1Sn1B1
LiBC2(O2F)2,mp-1105683,3.7501,1.97390046,0.0759653950416678,"{3: 1, 5: 1, 6: 2, 8: 4, 9: 2}","[3, 5, 6, 8, 9]",3151628492,Li1B1C2O4F2
LiB(CN)4,mp-13590,6.3482,-4.27369338,0.3398268968749995,"{3: 1, 5: 1, 6: 4, 7: 4}","[3, 5, 6, 7]",31516474,Li1B1C4N4
LiB(CO2)4,mp-556165,3.3042,-0.8276171,0.1044510776785729,"{3: 1, 5: 1, 6: 4, 8: 8}","[3, 5, 6, 8]",31516488,Li1B1C4O8
LiZnBP2O11,mp-1212219,0.5107999999999999,0.17900293,0.4800384218229174,"{3: 1, 30: 1, 5: 1, 15: 2, 8: 11}","[3, 5, 8, 15, 30]",3151811152301,Li1Zn1B1P2O11
LiBP2Pb4O11,mp-1203380,2.5899,3.64163765,0.0050771167763201,"{3: 1, 5: 1, 15: 2, 82: 4, 8: 11}","[3, 5, 8, 15, 82]",3151811152824,Li1B1P2Pb4O11
LiBS4(ClO3)4,mp-555090,4.6226,-1.68784203,0.0091171009090809,"{3: 1, 5: 1, 16: 4, 17: 4, 8: 12}","[3, 5, 8, 16, 17]",3151812164174,Li1B1S4Cl4O12
LiMg14BO15,mp-1035344,1.9504,6.32004374,0.1801206775682358,"{3: 1, 12: 14, 5: 1, 8: 15}","[3, 5, 8, 12]",31518151214,Li1Mg14B1O15
LiMg14BO16,mp-1035346,3.989700000000001,3.97663333,0.1283395753906253,"{3: 1, 12: 14, 5: 1, 8: 16}","[3, 5, 8, 12]",31518161214,Li1Mg14B1O16
LiBO2,mp-14232,7.281099999999999,2.03734182,0.0,"{3: 1, 5: 1, 8: 2}","[3, 5, 8]",315182,Li1B1O2
LiBO3,mp-1185302,0.0,3.07860258,0.9669265611166632,"{3: 1, 5: 1, 8: 3}","[3, 5, 8]",315183,Li1B1O3
LiMg30BO31,mp-1040125,2.3588,6.15569842,0.0852585251526241,"{3: 1, 12: 30, 5: 1, 8: 31}","[3, 5, 8, 12]",31518311230,Li1Mg30B1O31
LiMg30BO32,mp-1040099,4.2494,3.87434337,0.063567836601563,"{3: 1, 12: 30, 5: 1, 8: 32}","[3, 5, 8, 12]",31518321230,Li1Mg30B1O32
LiVBO3,mp-756785,1.5335,3.39857925,0.080137201970488,"{3: 1, 23: 1, 5: 1, 8: 3}","[3, 5, 8, 23]",315183231,Li1V1B1O3
LiMnBO3,mp-19131,2.5636,2.09211943,0.0006715470833311,"{3: 1, 25: 1, 5: 1, 8: 3}","[3, 5, 8, 25]",315183251,Li1Mn1B1O3
LiFeBO3,mp-777049,3.1611,2.07881619,0.0,"{3: 1, 26: 1, 5: 1, 8: 3}","[3, 5, 8, 26]",315183261,Li1Fe1B1O3
LiCoBO3,mp-756840,2.6172999999999997,1.52715898,0.1314747504166682,"{3: 1, 27: 1, 5: 1, 8: 3}","[3, 5, 8, 27]",315183271,Li1Co1B1O3
LiNiBO3,mp-755271,2.7845,2.16185862,0.0273769623611128,"{3: 1, 28: 1, 5: 1, 8: 3}","[3, 5, 8, 28]",315183281,Li1Ni1B1O3
LiCuBO3,mp-753471,0.032,2.64997416,0.1014982174999952,"{3: 1, 29: 1, 5: 1, 8: 3}","[3, 5, 8, 29]",315183291,Li1Cu1B1O3
LiZnBO3,mp-1222376,3.5248,0.4024355,0.0203416004166649,"{3: 1, 30: 1, 5: 1, 8: 3}","[3, 5, 8, 30]",315183301,Li1Zn1B1O3
LiCdBO3,mp-6126,2.1156,0.91058458,0.0,"{3: 1, 48: 1, 5: 1, 8: 3}","[3, 5, 8, 48]",315183481,Li1Cd1B1O3
LiBSbO3,mp-756853,0.4794999999999998,3.7433663,0.1044723759722243,"{3: 1, 5: 1, 51: 1, 8: 3}","[3, 5, 8, 51]",315183511,Li1B1Sb1O3
BaLiBO3,mp-6499,4.1341,1.34066471,0.0,"{56: 1, 3: 1, 5: 1, 8: 3}","[3, 5, 8, 56]",315183561,Ba1Li1B1O3
LiSiBO4,mp-8874,6.4308,1.50490708,0.0052598948809512,"{3: 1, 14: 1, 5: 1, 8: 4}","[3, 5, 8, 14]",315184141,Li1Si1B1O4
LiVBO4,mp-756511,2.5334000000000003,1.95183553,0.0550765914285538,"{3: 1, 23: 1, 5: 1, 8: 4}","[3, 5, 8, 23]",315184231,Li1V1B1O4
LiMnBO4,mp-1176642,1.0745000000000002,2.90500493,0.0623012100680293,"{3: 1, 25: 1, 5: 1, 8: 4}","[3, 5, 8, 25]",315184251,Li1Mn1B1O4
LiFeBO4,mp-776554,0.0666999999999999,2.10232626,0.1204350520059573,"{3: 1, 26: 1, 5: 1, 8: 4}","[3, 5, 8, 26]",315184261,Li1Fe1B1O4
LiGeBO4,mp-8873,4.526400000000001,0.65414942,0.0043996282142844,"{3: 1, 32: 1, 5: 1, 8: 4}","[3, 5, 8, 32]",315184321,Li1Ge1B1O4
LiNdBO4,mp-1104249,0.2064999999999999,1.65963645,0.1616334438190474,"{3: 1, 60: 1, 5: 1, 8: 4}","[3, 5, 8, 60]",315184601,Li1Nd1B1O4
LiV2BO5,mp-770361,1.4777999999999998,3.51540601,0.0089754720833195,"{3: 1, 23: 2, 5: 1, 8: 5}","[3, 5, 8, 23]",315185232,Li1V2B1O5
LiBi2BO5,mp-768636,1.731800000000001,4.52949673,0.098425231666658,"{3: 1, 83: 2, 5: 1, 8: 5}","[3, 5, 8, 83]",315185832,Li1Bi2B1O5
LiUBO5,mp-556156,1.9059,1.46107554,0.0048343981250003,"{3: 1, 92: 1, 5: 1, 8: 5}","[3, 5, 8, 92]",315185921,Li1U1B1O5
LiSi2BO6,mp-556531,5.2825,1.22960876,0.005015607458338,"{3: 1, 14: 2, 5: 1, 8: 6}","[3, 5, 8, 14]",315186142,Li1Si2B1O6
Na3LiMnBPO7,mp-759559,2.4324000000000003,2.18875649,0.0812800127678547,"{11: 3, 3: 1, 25: 1, 5: 1, 15: 1, 8: 7}","[3, 5, 8, 11, 15, 25]",315187113151251,Na3Li1Mn1B1P1O7
LiMg6BO7,mp-1031116,1.1802,5.56210529,0.3960794163076953,"{3: 1, 12: 6, 5: 1, 8: 7}","[3, 5, 8, 12]",315187126,Li1Mg6B1O7
LiB(SO4)2,mp-1020106,6.3874,-0.93225024,0.0,"{3: 1, 5: 1, 16: 2, 8: 8}","[3, 5, 8, 16]",315188162,Li1B1S2O8
LiMg9B20,mp-35040,0.0,5.84987977,0.0237937270775203,"{3: 1, 12: 9, 5: 20}","[3, 5, 12]",31520129,Li1Mg9B20
LiV5(BO5)2,mp-756548,0.0,4.90075499,0.0215039861776666,"{3: 1, 23: 5, 5: 2, 8: 10}","[3, 5, 8, 23]",3152810235,Li1V5B2O10
LiAlB2O5,mp-557104,5.1361,-0.24867002,0.0006171097777745,"{3: 1, 13: 1, 5: 2, 8: 5}","[3, 5, 8, 13]",315285131,Li1Al1B2O5
LiVB2O5,mp-768913,2.2631,1.97143143,0.046809842777753,"{3: 1, 23: 1, 5: 2, 8: 5}","[3, 5, 8, 23]",315285231,Li1V1B2O5
LiCrB2O5,mp-768542,2.4891,1.52587479,0.0511305542361029,"{3: 1, 24: 1, 5: 2, 8: 5}","[3, 5, 8, 24]",315285241,Li1Cr1B2O5
LiMnB2O5,mp-768442,1.2317999999999998,1.11234141,0.0438759754513959,"{3: 1, 25: 1, 5: 2, 8: 5}","[3, 5, 8, 25]",315285251,Li1Mn1B2O5
LiFeB2O5,mp-774231,2.6882,-0.51505284,0.0441365009027858,"{3: 1, 26: 1, 5: 2, 8: 5}","[3, 5, 8, 26]",315285261,Li1Fe1B2O5
LiCoB2O5,mp-770781,0.8749,-0.38308322,0.1133741586203731,"{3: 1, 27: 1, 5: 2, 8: 5}","[3, 5, 8, 27]",315285271,Li1Co1B2O5
LiB2SbO5,mp-770808,2.5312,1.80282919,0.0989795870138818,"{3: 1, 5: 2, 51: 1, 8: 5}","[3, 5, 8, 51]",315285511,Li1B2Sb1O5
LiBiB2O5,mp-768795,2.9716,2.55672807,0.0518050147222224,"{3: 1, 83: 1, 5: 2, 8: 5}","[3, 5, 8, 83]",315285831,Li1Bi1B2O5
LiMn2(BO3)2,mp-780663,0.2473,1.8921654,0.0713696195909214,"{3: 1, 25: 2, 5: 2, 8: 6}","[3, 5, 8, 25]",315286252,Li1Mn2B2O6
LiFe2(BO3)2,mp-764904,2.219,1.41114752,0.0495011821874973,"{3: 1, 26: 2, 5: 2, 8: 6}","[3, 5, 8, 26]",315286262,Li1Fe2B2O6
LiCo2(BO3)2,mp-763318,0.6716,1.276159,0.1985208980729087,"{3: 1, 27: 2, 5: 2, 8: 6}","[3, 5, 8, 27]",315286272,Li1Co2B2O6
LiNb(BO3)2,mp-761857,2.7438,-0.59390247,0.0876413432244778,"{3: 1, 41: 1, 5: 2, 8: 6}","[3, 5, 8, 41]",315286411,Li1Nb1B2O6
LiB2SbO6,mp-761862,2.9711,0.59317779,0.0721569768333152,"{3: 1, 5: 2, 51: 1, 8: 6}","[3, 5, 8, 51]",315286511,Li1B2Sb1O6
Cs2LiNd(BO3)2,mp-1194993,4.4762,5.39944128,0.0,"{55: 2, 3: 1, 60: 1, 5: 2, 8: 6}","[3, 5, 8, 55, 60]",315286552601,Cs2Li1Nd1B2O6
LiBi(BO3)2,mp-1176797,1.3642,3.11872321,0.0318441469666703,"{3: 1, 83: 1, 5: 2, 8: 6}","[3, 5, 8, 83]",315286831,Li1Bi1B2O6
SrLiAl2B2O7,mp-1235374,0.0,5.59822936,0.1813654020672972,"{38: 1, 3: 1, 13: 2, 5: 2, 8: 7}","[3, 5, 8, 13, 38]",315287132381,Sr1Li1Al2B2O7
LiB3,mp-1222413,0.0918999999999998,3.63390307,0.0,"{3: 1, 5: 3}","[3, 5]",3153,Li1B3
BaLi(BS2)3,mp-557892,2.7298,1.04190424,0.0,"{56: 1, 3: 1, 5: 3, 16: 6}","[3, 5, 16, 56]",3153166561,Ba1Li1B3S6
Ba4Li(BN2)3,mp-1214440,2.4764,1.98526056,0.0225376736904783,"{56: 4, 3: 1, 5: 3, 7: 6}","[3, 5, 7, 56]",315376564,Ba4Li1B3N6
LiBi4B3O11,mp-768774,3.3149,2.75339235,0.0693892931578874,"{3: 1, 83: 4, 5: 3, 8: 11}","[3, 5, 8, 83]",3153811834,Li1Bi4B3O11
LiY6B3O14,mp-555489,4.3885000000000005,1.9353929,0.0125100199479142,"{3: 1, 39: 6, 5: 3, 8: 14}","[3, 5, 8, 39]",3153814396,Li1Y6B3O14
LiEu6B3O14,mp-1213345,0.0,1.78548464,0.1380186233333606,"{3: 1, 63: 6, 5: 3, 8: 14}","[3, 5, 8, 63]",3153814636,Li1Eu6B3O14
LiGd6B3O14,mp-581285,2.8936,1.97755602,0.008145955578696,"{3: 1, 64: 6, 5: 3, 8: 14}","[3, 5, 8, 64]",3153814646,Li1Gd6B3O14
LiEr6B3O14,mp-1211593,4.8612,6.61595561,0.017893081961807,"{3: 1, 68: 6, 5: 3, 8: 14}","[3, 5, 8, 68]",3153814686,Li1Er6B3O14
LiBi6B3O14,mp-778009,2.5046,4.15959571,0.0415264793749878,"{3: 1, 83: 6, 5: 3, 8: 14}","[3, 5, 8, 83]",3153814836,Li1Bi6B3O14
LiB3O5,mp-3660,6.3532,0.60535045,0.0065684697222208,"{3: 1, 5: 3, 8: 5}","[3, 5, 8]",315385,Li1B3O5
LiMn3(BO3)3,mp-776450,0.0,1.71447311,0.083091084101543,"{3: 1, 25: 3, 5: 3, 8: 9}","[3, 5, 8, 25]",315389253,Li1Mn3B3O9
Sr4Li(BO3)3,mp-554003,4.1874,1.72892339,0.0174610116176481,"{38: 4, 3: 1, 5: 3, 8: 9}","[3, 5, 8, 38]",315389384,Sr4Li1B3O9
LiAlB4,mp-995282,0.0,5.4439783,0.1332352229166664,"{3: 1, 13: 1, 5: 4}","[3, 5, 13]",3154131,Li1Al1B4
Sr2LiSc(B2O5)2,mp-8796,4.420299999999999,1.42251077,0.0019636626620354,"{38: 2, 3: 1, 21: 1, 5: 4, 8: 10}","[3, 5, 8, 21, 38]",3154810211382,Sr2Li1Sc1B4O10
Sr2LiIn(B2O5)2,mp-14854,3.7658,1.8302702,0.0105322210416547,"{38: 2, 3: 1, 49: 1, 5: 4, 8: 10}","[3, 5, 8, 38, 49]",3154810382491,Sr2Li1In1B4O10
LiMn4(BO3)4,mp-850920,0.0,1.4490929,0.0964111111309655,"{3: 1, 25: 4, 5: 4, 8: 12}","[3, 5, 8, 25]",3154812254,Li1Mn4B4O12
LiFe4(BO3)4,mp-774381,1.7777999999999998,1.21072942,0.074066825476196,"{3: 1, 26: 4, 5: 4, 8: 12}","[3, 5, 8, 26]",3154812264,Li1Fe4B4O12
Ba2Li(BO2)5,mp-6075,4.951700000000001,0.9678418,0.0,"{56: 2, 3: 1, 5: 5, 8: 10}","[3, 5, 8, 56]",3155810562,Ba2Li1B5O10
LiB5O13,mp-1180610,0.0582,-1.31954454,0.5278604850146182,"{3: 1, 5: 5, 8: 13}","[3, 5, 8]",3155813,Li1B5O13
LiB6C,mp-569450,1.3922,4.52697635,0.0,"{3: 1, 5: 6, 6: 1}","[3, 5, 6]",315661,Li1B6C1
LiB6S4(Cl3O4)2,mp-1196966,1.5094,-0.45434765,0.5758632730111115,"{3: 1, 5: 6, 16: 4, 17: 6, 8: 8}","[3, 5, 8, 16, 17]",315688164176,Li1B6S4Cl6O8
LiMn2(B4O7)2,mp-1235124,0.1751000000000004,6.30714153,0.1922612364142732,"{3: 1, 25: 2, 5: 8, 8: 14}","[3, 5, 8, 25]",3158814252,Li1Mn2B8O14
LiFe8(BO3)8,mp-849747,1.7294999999999998,1.08721294,0.0804319525609535,"{3: 1, 26: 8, 5: 8, 8: 24}","[3, 5, 8, 26]",3158824268,Li1Fe8B8O24
BaLi(B3O5)3,mp-17672,5.7835,-0.40054561,0.0,"{56: 1, 3: 1, 5: 9, 8: 15}","[3, 5, 8, 56]",3159815561,Ba1Li1B9O15
Li19V8(BO3)16,mp-1178191,0.5949000000000002,1.99477143,0.0786797108997312,"{3: 19, 23: 8, 5: 16, 8: 48}","[3, 5, 8, 23]",319516848238,Li19V8B16O48
Li20B54O,mp-685320,0.0,3.04302367,0.0447181605333328,"{3: 20, 5: 54, 8: 1}","[3, 5, 8]",32055481,Li20B54O1
Sr4Li2B12O23,mp-1020725,4.6951,2.13609458,0.0047199554471681,"{38: 4, 3: 2, 5: 12, 8: 23}","[3, 5, 8, 38]",32512823384,Sr4Li2B12O23
Li2BPCO7,mp-756641,5.3729,0.67475073,0.0981567639322893,"{3: 2, 5: 1, 15: 1, 6: 1, 8: 7}","[3, 5, 6, 8, 15]",32516187151,Li2B1P1C1O7
Li2AlBO4,mp-556655,4.864,0.63169094,0.0139915756249973,"{3: 2, 13: 1, 5: 1, 8: 4}","[3, 5, 8, 13]",325184131,Li2Al1B1O4
Li2FeBO4,mp-771016,2.1638,0.20831923,0.0369681728125002,"{3: 2, 26: 1, 5: 1, 8: 4}","[3, 5, 8, 26]",325184261,Li2Fe1B1O4
Li2CoBO4,mp-752707,1.4304,1.43958577,0.0736782693749997,"{3: 2, 27: 1, 5: 1, 8: 4}","[3, 5, 8, 27]",325184271,Li2Co1B1O4
Li2NiBO4,mp-771080,0.9314,1.86466081,0.082430565729167,"{3: 2, 28: 1, 5: 1, 8: 4}","[3, 5, 8, 28]",325184281,Li2Ni1B1O4
Li2BSeO4,mp-770832,2.0982,0.18601169,0.0666074837076768,"{3: 2, 5: 1, 34: 1, 8: 4}","[3, 5, 8, 34]",325184341,Li2B1Se1O4
Li2SnBO4,mp-770833,1.0700000000000005,2.47706564,0.0797183448437479,"{3: 2, 50: 1, 5: 1, 8: 4}","[3, 5, 8, 50]",325184501,Li2Sn1B1O4
Li2BSbO4,mp-770654,1.6851999999999996,2.70604484,0.0729903840624999,"{3: 2, 5: 1, 51: 1, 8: 4}","[3, 5, 8, 51]",325184511,Li2B1Sb1O4
Li2BiBO4,mp-778115,2.3147,2.05101177,0.0637753573958326,"{3: 2, 83: 1, 5: 1, 8: 4}","[3, 5, 8, 83]",325184831,Li2Bi1B1O4
Li2BiBO5,mp-768764,0.0,2.61733329,0.0640571451388929,"{3: 2, 83: 1, 5: 1, 8: 5}","[3, 5, 8, 83]",325185831,Li2Bi1B1O5
Li2SiBSbO7,mp-772132,2.5145,1.30873247,0.0902653784722149,"{3: 2, 14: 1, 5: 1, 51: 1, 8: 7}","[3, 5, 8, 14, 51]",325187141511,Li2Si1B1Sb1O7
Li2VBPO7,mp-771701,1.5137,0.46451037,0.0944313325892833,"{3: 2, 23: 1, 5: 1, 15: 1, 8: 7}","[3, 5, 8, 15, 23]",325187151231,Li2V1B1P1O7
Li2MnBPO7,mp-771706,0.4947,0.64316226,0.0746186780295126,"{3: 2, 25: 1, 5: 1, 15: 1, 8: 7}","[3, 5, 8, 15, 25]",325187151251,Li2Mn1B1P1O7
Li2FeBPO7,mp-777716,0.0,0.43518076,0.264280798318449,"{3: 2, 26: 1, 5: 1, 15: 1, 8: 7}","[3, 5, 8, 15, 26]",325187151261,Li2Fe1B1P1O7
Li2SnBPO7,mp-771707,2.7307,1.32817039,0.0977659010863112,"{3: 2, 50: 1, 5: 1, 15: 1, 8: 7}","[3, 5, 8, 15, 50]",325187151501,Li2Sn1B1P1O7
Li2MnBAsO7,mp-772182,0.4916999999999999,0.28666684,0.0839331520734099,"{3: 2, 25: 1, 5: 1, 33: 1, 8: 7}","[3, 5, 8, 25, 33]",325187251331,Li2Mn1B1As1O7
Li2FeBAsO7,mp-1177952,0.2979,-0.0799481,0.0956077025049539,"{3: 2, 26: 1, 5: 1, 33: 1, 8: 7}","[3, 5, 8, 26, 33]",325187261331,Li2Fe1B1As1O7
NaLi2B(PO4)2,mp-1020646,5.8333,0.88492039,0.0,"{11: 1, 3: 2, 5: 1, 15: 2, 8: 8}","[3, 5, 8, 11, 15]",325188111152,Na1Li2B1P2O8
Li2BF5,mp-1188485,7.5703,-2.25073476,0.0349704858333304,"{3: 2, 5: 1, 9: 5}","[3, 5, 9]",325195,Li2B1F5
Li2B2Se5,mp-30100,1.7047,2.59944206,0.0,"{3: 2, 5: 2, 34: 5}","[3, 5, 34]",3252345,Li2B2Se5