formula,material_id,band_gap,efermi,energy_above_hull,comp_atoms,sorted_keys_comp_atoms,comp_number,new_formula
B2AsCl2,mp-29028,3.4041,-0.83600584,0.1326104995000019,"{5: 2, 33: 1, 17: 2}","[5, 17, 33]",52172331,B2As1Cl2
Na11B21(ClO18)2,mp-1222188,4.6281,0.31297825,0.0063217062142859,"{11: 11, 5: 21, 17: 2, 8: 36}","[5, 8, 11, 17]",5218361111172,Na11B21Cl2O36
Na11B21(BrO18)2,mp-1196557,4.5093,0.16568384,0.0028304246428598,"{11: 11, 5: 21, 35: 2, 8: 36}","[5, 8, 11, 35]",5218361111352,Na11B21Br2O36
CaB2,mp-1009695,0.0,5.05020647,0.1920297424999999,"{20: 1, 5: 2}","[5, 20]",52201,Ca1B2
ScB2Ir3,mp-1077776,0.0,7.83076685,0.0063373897222209,"{21: 1, 5: 2, 77: 3}","[5, 21, 77]",52211773,Sc1B2Ir3
Sc2VB2Ir5,mp-20524,0.0,8.10877289,0.0278399077777731,"{21: 2, 23: 1, 5: 2, 77: 5}","[5, 21, 23, 77]",52212231775,Sc2V1B2Ir5
Sc2CrB2Rh5,mp-542021,0.0,6.58891078,0.0450746950000029,"{21: 2, 24: 1, 5: 2, 45: 5}","[5, 21, 24, 45]",52212241455,Sc2Cr1B2Rh5
Sc2MnB2Rh5,mp-542022,0.0,6.39432092,0.1248679457500054,"{21: 2, 25: 1, 5: 2, 45: 5}","[5, 21, 25, 45]",52212251455,Sc2Mn1B2Rh5
Sc2MnB2Ir5,mp-1208987,0.0,8.19163701,0.0594047732857152,"{21: 2, 25: 1, 5: 2, 77: 5}","[5, 21, 25, 77]",52212251775,Sc2Mn1B2Ir5
Sc2FeB2RuRh4,mp-1219428,0.0,6.62125521,0.0,"{21: 2, 26: 1, 5: 2, 44: 1, 45: 4}","[5, 21, 26, 44, 45]",52212261441454,Sc2Fe1B2Ru1Rh4
Sc2FeB2Ru2Rh3,mp-1219440,0.0,6.47863172,0.0242125130000001,"{21: 2, 26: 1, 5: 2, 44: 2, 45: 3}","[5, 21, 26, 44, 45]",52212261442453,Sc2Fe1B2Ru2Rh3
Sc2FeB2Ru4Rh,mp-1219435,0.0,6.66899288,0.0357653460000051,"{21: 2, 26: 1, 5: 2, 44: 4, 45: 1}","[5, 21, 26, 44, 45]",52212261444451,Sc2Fe1B2Ru4Rh1
Sc2FeB2Rh5,mp-542023,0.0,6.36869266,0.0,"{21: 2, 26: 1, 5: 2, 45: 5}","[5, 21, 26, 45]",52212261455,Sc2Fe1B2Rh5
Sc2FeB2Ir5,mp-22425,0.0,7.97792039,0.0,"{21: 2, 26: 1, 5: 2, 77: 5}","[5, 21, 26, 77]",52212261775,Sc2Fe1B2Ir5
Sc2CoB2Ir5,mp-1208990,0.0,8.02734991,0.0243005188750053,"{21: 2, 27: 1, 5: 2, 77: 5}","[5, 21, 27, 77]",52212271775,Sc2Co1B2Ir5
Sc2CuB2Ir5,mp-1209000,0.0,8.03444141,0.0,"{21: 2, 29: 1, 5: 2, 77: 5}","[5, 21, 29, 77]",52212291775,Sc2Cu1B2Ir5
Nd4Sc3Fe25B2,mp-1221065,0.0,4.78749653,0.0451661698897067,"{60: 4, 21: 3, 26: 25, 5: 2}","[5, 21, 26, 60]",522132625604,Nd4Sc3Fe25B2
Sc3B2Ir5,mp-1209011,0.0167000000000001,7.66038667,0.0,"{21: 3, 5: 2, 77: 5}","[5, 21, 77]",52213775,Sc3B2Ir5
TiCr(BIr)2,mp-1105310,0.0,8.81582086,0.0676758139722224,"{22: 1, 24: 1, 5: 2, 77: 2}","[5, 22, 24, 77]",52221241772,Ti1Cr1B2Ir2
TiB2W,mp-1217023,0.0,8.12371465,0.0158649899999971,"{22: 1, 5: 2, 74: 1}","[5, 22, 74]",52221741,Ti1B2W1
Ti2FeB2RuRh4,mp-1217491,0.0,7.29797669,0.0660116851666678,"{22: 2, 26: 1, 5: 2, 44: 1, 45: 4}","[5, 22, 26, 44, 45]",52222261441454,Ti2Fe1B2Ru1Rh4
Ti2FeB2Ru2Rh3,mp-1217361,0.0,7.3798001,0.045282547250002,"{22: 2, 26: 1, 5: 2, 44: 2, 45: 3}","[5, 22, 26, 44, 45]",52222261442453,Ti2Fe1B2Ru2Rh3
Ti2FeB2Ru3Rh2,mp-1217246,0.0,7.59819263,0.0349010388333344,"{22: 2, 26: 1, 5: 2, 44: 3, 45: 2}","[5, 22, 26, 44, 45]",52222261443452,Ti2Fe1B2Ru3Rh2
Ti2FeB2Ru4Rh,mp-1217239,0.0,7.49128425,0.0005471459166663,"{22: 2, 26: 1, 5: 2, 44: 4, 45: 1}","[5, 22, 26, 44, 45]",52222261444451,Ti2Fe1B2Ru4Rh1
Ti2FeB2Rh5,mp-1189775,0.0,6.91200084,0.0923228075833382,"{22: 2, 26: 1, 5: 2, 45: 5}","[5, 22, 26, 45]",52222261455,Ti2Fe1B2Rh5
Nd4Ti3Fe25B2,mp-1223079,0.0,4.90480142,0.0670015533823518,"{60: 4, 22: 3, 26: 25, 5: 2}","[5, 22, 26, 60]",522232625604,Nd4Ti3Fe25B2
VCrB2,mp-1216398,0.0,7.98985502,0.0025949025000002,"{23: 1, 24: 1, 5: 2}","[5, 23, 24]",52231241,V1Cr1B2
VB2Ru,mp-1216407,0.0,8.40265661,0.0733934627777728,"{23: 1, 5: 2, 44: 1}","[5, 23, 44]",52231441,V1B2Ru1
V2B2Ir,mp-1189371,0.0,8.38715901,0.0487303505000085,"{23: 2, 5: 2, 77: 1}","[5, 23, 77]",52232771,V2B2Ir1
Nd4V3Fe25B2,mp-1220671,0.0,4.79476974,0.0618828792647061,"{60: 4, 23: 3, 26: 25, 5: 2}","[5, 23, 26, 60]",522332625604,Nd4V3Fe25B2
CrB2,mp-374,0.0,8.67801104,0.0671251616666648,"{24: 1, 5: 2}","[5, 24]",52241,Cr1B2
MnCrB2,mp-1221636,0.0,7.83507966,0.017936155000001,"{25: 1, 24: 1, 5: 2}","[5, 24, 25]",52241251,Mn1Cr1B2
CrFeB2,mp-1226310,0.0,7.66580235,0.0446465950000014,"{24: 1, 26: 1, 5: 2}","[5, 24, 26]",52241261,Cr1Fe1B2
CrFe3B2,mp-1226213,0.0,7.100984,0.0472149829166657,"{24: 1, 26: 3, 5: 2}","[5, 24, 26]",52241263,Cr1Fe3B2
Nb2CrB2,mp-1079560,0.0,6.46761055,0.0338476140000025,"{41: 2, 24: 1, 5: 2}","[5, 24, 41]",52241412,Nb2Cr1B2
CrB2Mo,mp-1226228,0.0,8.74133415,0.0408887156249999,"{24: 1, 5: 2, 42: 1}","[5, 24, 42]",52241421,Cr1B2Mo1
CrB2Ru,mp-1226273,0.0,8.62985573,0.1067499072916664,"{24: 1, 5: 2, 44: 1}","[5, 24, 44]",52241441,Cr1B2Ru1
CrB2W,mp-1226242,0.0,8.36155516,0.0182246068749982,"{24: 1, 5: 2, 74: 1}","[5, 24, 74]",52241741,Cr1B2W1
CrRe5B2,mp-1226226,0.0,7.86244016,0.0267958540624988,"{24: 1, 75: 5, 5: 2}","[5, 24, 75]",52241755,Cr1Re5B2
Cr2B2Ir,mp-1188995,0.0,8.75079214,0.0572398453750011,"{24: 2, 5: 2, 77: 1}","[5, 24, 77]",52242771,Cr2B2Ir1
Nd4Cr3Fe25B2,mp-1221071,0.0,4.90592019,0.0592137607720584,"{60: 4, 24: 3, 26: 25, 5: 2}","[5, 24, 26, 60]",522432625604,Nd4Cr3Fe25B2
MnB2,mp-585,0.0,8.31025251,0.0691997077777788,"{25: 1, 5: 2}","[5, 25]",52251,Mn1B2
MnCoB2,mp-1221680,0.0,7.69338237,0.0580333131249997,"{25: 1, 27: 1, 5: 2}","[5, 25, 27]",52251271,Mn1Co1B2
FeB2,mp-1101938,0.5153999999999996,8.29298741,0.0,"{26: 1, 5: 2}","[5, 26]",52261,Fe1B2
FeCoB2,mp-1224999,0.0,7.56074908,0.023993178125,"{26: 1, 27: 1, 5: 2}","[5, 26, 27]",52261271,Fe1Co1B2
Zr2FeB2Ru5,mp-1207396,0.0,6.89596382,0.0051348490000009,"{40: 2, 26: 1, 5: 2, 44: 5}","[5, 26, 40, 44]",52261402445,Zr2Fe1B2Ru5
Nb2FeB2,mp-1086660,0.0,6.44571629,0.0497876473333249,"{41: 2, 26: 1, 5: 2}","[5, 26, 41]",52261412,Nb2Fe1B2
Fe(BMo)2,mp-1078299,0.0,8.45350466,0.0,"{26: 1, 5: 2, 42: 2}","[5, 26, 42]",52261422,Fe1B2Mo2
Ta2FeB2,mp-1095076,0.0,6.94099955,0.0454217909999972,"{73: 2, 26: 1, 5: 2}","[5, 26, 73]",52261732,Ta2Fe1B2
Fe(BW)2,mp-1068296,0.0,8.04273877,0.0,"{26: 1, 5: 2, 74: 2}","[5, 26, 74]",52261742,Fe1B2W2
Y(FeB)2,mp-12077,0.0,5.18939541,0.0,"{39: 1, 26: 2, 5: 2}","[5, 26, 39]",52262391,Y1Fe2B2
Tb(FeB)2,mp-12075,0.0,5.14748037,0.0,"{65: 1, 26: 2, 5: 2}","[5, 26, 65]",52262651,Tb1Fe2B2
Dy(FeB)2,mp-568725,0.0,5.15004276,0.0,"{66: 1, 26: 2, 5: 2}","[5, 26, 66]",52262661,Dy1Fe2B2
Ho(FeB)2,mp-571500,0.0,5.14662365,0.0,"{67: 1, 26: 2, 5: 2}","[5, 26, 67]",52262671,Ho1Fe2B2
Er(FeB)2,mp-3190,0.0,5.14708987,0.0,"{68: 1, 26: 2, 5: 2}","[5, 26, 68]",52262681,Er1Fe2B2
Tm(FeB)2,mp-12076,0.0,5.33512499,0.0,"{69: 1, 26: 2, 5: 2}","[5, 26, 69]",52262691,Tm1Fe2B2
Lu(FeB)2,mp-12061,0.0,5.46632729,0.0,"{71: 1, 26: 2, 5: 2}","[5, 26, 71]",52262711,Lu1Fe2B2
CeNd3(Fe14B)2,mp-1227197,0.0,5.0776137,0.0083378996323535,"{58: 1, 60: 3, 26: 28, 5: 2}","[5, 26, 58, 60]",522628581603,Ce1Nd3Fe28B2
Fe3Co3B2,mp-1225207,0.0,5.88787724,0.0166246454166678,"{26: 3, 27: 3, 5: 2}","[5, 26, 27]",52263273,Fe3Co3B2
Fe3Ni3B2,mp-1224887,0.0,7.04329681,0.0460126524999999,"{26: 3, 28: 3, 5: 2}","[5, 26, 28]",52263283,Fe3Ni3B2
UFe3B2,mp-10065,0.0,9.09673064,0.0,"{92: 1, 26: 3, 5: 2}","[5, 26, 92]",52263921,U1Fe3B2
Y3Co13B2,mp-1106148,0.0,4.8941963,0.017488395789468,"{39: 3, 27: 13, 5: 2}","[5, 27, 39]",522713393,Y3Co13B2
Pr3Co13B2,mp-1209806,0.0,4.93454527,0.0328531075156801,"{59: 3, 27: 13, 5: 2}","[5, 27, 59]",522713593,Pr3Co13B2
Nd3Co13B2,mp-4603,0.0,4.77108475,0.0268907622416012,"{60: 3, 27: 13, 5: 2}","[5, 27, 60]",522713603,Nd3Co13B2
NbCoB2,mp-20877,0.0,7.00387008,0.0001676606249993,"{41: 1, 27: 1, 5: 2}","[5, 27, 41]",52271411,Nb1Co1B2
Y(CoB)2,mp-3515,0.0,5.35506598,0.0,"{39: 1, 27: 2, 5: 2}","[5, 27, 39]",52272391,Y1Co2B2
YCo3B2,mp-5019,0.0,5.55547425,0.0,"{39: 1, 27: 3, 5: 2}","[5, 27, 39]",52273391,Y1Co3B2
ZrCo3B2,mp-618324,0.0,6.09374911,0.0411305899999998,"{40: 1, 27: 3, 5: 2}","[5, 27, 40]",52273401,Zr1Co3B2
SmCo3B2,mp-5410,0.0,5.42716204,0.0115085466666657,"{62: 1, 27: 3, 5: 2}","[5, 27, 62]",52273621,Sm1Co3B2
HfCo3B2,mp-7804,0.0,6.13704597,0.0176932799999995,"{72: 1, 27: 3, 5: 2}","[5, 27, 72]",52273721,Hf1Co3B2
Nb3Co5B2,mp-1209993,0.0,6.25574963,0.0685172733787862,"{41: 3, 27: 5, 5: 2}","[5, 27, 41]",52275413,Nb3Co5B2
Pr2Co5B2,mp-1200180,0.0,5.32756158,0.0215453641801062,"{59: 2, 27: 5, 5: 2}","[5, 27, 59]",52275592,Pr2Co5B2
Nd2Co5B2,mp-1198836,0.0,5.29456828,0.0095140049031012,"{60: 2, 27: 5, 5: 2}","[5, 27, 60]",52275602,Nd2Co5B2
Ta3Co5B2,mp-1189575,0.0,6.67939406,0.0874225266666641,"{73: 3, 27: 5, 5: 2}","[5, 27, 73]",52275733,Ta3Co5B2
LaY(Co4B)2,mp-1222740,0.0,6.11602169,0.0125412575833365,"{57: 1, 39: 1, 27: 8, 5: 2}","[5, 27, 39, 57]",52278391571,La1Y1Co8B2
Y3Ni13B2,mp-567863,0.0,6.67984667,0.0120094611111047,"{39: 3, 28: 13, 5: 2}","[5, 28, 39]",522813393,Y3Ni13B2
La3Ni13B2,mp-1190121,0.0,8.33043764,0.0016617066666668,"{57: 3, 28: 13, 5: 2}","[5, 28, 57]",522813573,La3Ni13B2
Pr3Ni13B2,mp-1188184,0.0,6.58133172,0.0064869688888835,"{59: 3, 28: 13, 5: 2}","[5, 28, 59]",522813593,Pr3Ni13B2
Nd3Ni13B2,mp-3071,0.0,6.57180567,0.0063219161111032,"{60: 3, 28: 13, 5: 2}","[5, 28, 60]",522813603,Nd3Ni13B2
Tb3Ni13B2,mp-541883,0.0,6.6090624,0.0103638272222159,"{65: 3, 28: 13, 5: 2}","[5, 28, 65]",522813653,Tb3Ni13B2
Dy3Ni13B2,mp-542729,0.0,6.59008345,0.0039491527777721,"{66: 3, 28: 13, 5: 2}","[5, 28, 66]",522813663,Dy3Ni13B2
Tm3Ni13B2,mp-1188278,0.0,6.40750517,0.0069761627777724,"{69: 3, 28: 13, 5: 2}","[5, 28, 69]",522813693,Tm3Ni13B2
Ba(NiB)2,mp-1190153,0.0,4.99488329,0.2411814796666691,"{56: 1, 28: 2, 5: 2}","[5, 28, 56]",52282561,Ba1Ni2B2
Ho(NiB)2,mp-31009,0.0,6.13450812,0.1926227932000088,"{67: 1, 28: 2, 5: 2}","[5, 28, 67]",52282671,Ho1Ni2B2
Eu3Ni7B2,mp-1225962,0.0,5.78500667,0.0532161518923581,"{63: 3, 28: 7, 5: 2}","[5, 28, 63]",52287633,Eu3Ni7B2
Ho3Ni7B2,mp-1192069,0.0,6.59172412,0.2621174270312476,"{67: 3, 28: 7, 5: 2}","[5, 28, 67]",52287673,Ho3Ni7B2
Ba(BSe3)2,mp-570823,1.7096,2.28997205,0.0,"{56: 1, 5: 2, 34: 6}","[5, 34, 56]",52346561,Ba1B2Se6
Rb2B2Se7,mp-16184,1.4887,0.8709291,0.0,"{37: 2, 5: 2, 34: 7}","[5, 34, 37]",52347372,Rb2B2Se7
Tl2B2Se7,mp-16183,1.2951,2.33581402,0.0,"{81: 2, 5: 2, 34: 7}","[5, 34, 81]",52347812,Tl2B2Se7
YB2,mp-1542,0.0,5.14027682,0.0,"{39: 1, 5: 2}","[5, 39]",52391,Y1B2
YB2Mo,mp-1215920,0.0,6.12539983,0.0977652418055576,"{39: 1, 5: 2, 42: 1}","[5, 39, 42]",52391421,Y1B2Mo1
YB2Ru,mp-1188195,0.0,6.19870173,0.0,"{39: 1, 5: 2, 44: 1}","[5, 39, 44]",52391441,Y1B2Ru1
Y(BRu)2,mp-1208918,0.0,4.62606115,0.5928576077500018,"{39: 1, 5: 2, 44: 2}","[5, 39, 44]",52391442,Y1B2Ru2
YB2Ru3,mp-4382,0.0,6.58740301,0.0,"{39: 1, 5: 2, 44: 3}","[5, 39, 44]",52391443,Y1B2Ru3
YB2Rh3,mp-1024941,0.0,6.15209903,0.0,"{39: 1, 5: 2, 45: 3}","[5, 39, 45]",52391453,Y1B2Rh3
YB2Pd7,mp-13560,0.0,4.79417864,0.1361686880000014,"{39: 1, 5: 2, 46: 7}","[5, 39, 46]",52391467,Y1B2Pd7
YB2Os,mp-1106229,0.0,6.4198959,0.0,"{39: 1, 5: 2, 76: 1}","[5, 39, 76]",52391761,Y1B2Os1
Y(BIr)2,mp-14622,0.0,6.67035995,0.0,"{39: 1, 5: 2, 77: 2}","[5, 39, 77]",52391772,Y1B2Ir2
YB2Ir3,mp-31098,0.0,7.7986614,0.0,"{39: 1, 5: 2, 77: 3}","[5, 39, 77]",52391773,Y1B2Ir3
ZrNbB2,mp-1215223,0.0,5.85670194,0.0434285891666661,"{40: 1, 41: 1, 5: 2}","[5, 40, 41]",52401411,Zr1Nb1B2
Ba3NaB24,mp-1228056,0.0,3.71896047,0.0094543368522144,"{56: 3, 11: 1, 5: 24}","[5, 11, 56]",524111563,Ba3Na1B24
Nb(BMo)2,mp-1079120,0.0,8.18539021,0.0999745970000063,"{41: 1, 5: 2, 42: 2}","[5, 41, 42]",52411422,Nb1B2Mo2
HfNbB2,mp-1224347,0.0,6.2127883,0.0053502125000015,"{72: 1, 41: 1, 5: 2}","[5, 41, 72]",52411721,Hf1Nb1B2
Nb2B2Os,mp-1106338,0.0,7.32664456,0.0300525689999986,"{41: 2, 5: 2, 76: 1}","[5, 41, 76]",52412761,Nb2B2Os1
B2MoRu,mp-1228661,0.0,9.11686786,0.0901294616666632,"{5: 2, 42: 1, 44: 1}","[5, 42, 44]",52421441,B2Mo1Ru1
B2Mo2Ru,mp-1190254,0.0,9.03144474,0.0136277130000017,"{5: 2, 42: 2, 44: 1}","[5, 42, 44]",52422441,B2Mo2Ru1
Ta(BMo)2,mp-1079659,0.0,8.45810952,0.0754203260000068,"{73: 1, 5: 2, 42: 2}","[5, 42, 73]",52422731,Ta1B2Mo2
B2Mo2Os,mp-1188450,0.0,9.25778418,0.0487617515000025,"{5: 2, 42: 2, 76: 1}","[5, 42, 76]",52422761,B2Mo2Os1
B2Mo2Ir,mp-20391,0.0,9.31037433,0.0367264180000006,"{5: 2, 42: 2, 77: 1}","[5, 42, 77]",52422771,B2Mo2Ir1
B2Mo3,mp-1079053,0.0,9.14885023,0.0230033679999976,"{5: 2, 42: 3}","[5, 42]",52423,B2Mo3
Hf9B2Mo3,mp-1224546,0.0,5.52035114,0.1566084589285736,"{72: 9, 5: 2, 42: 3}","[5, 42, 72]",52423729,Hf9B2Mo3
PuTcB2,mp-1188688,0.0,10.50891055,0.008609004900002,"{94: 1, 43: 1, 5: 2}","[5, 43, 94]",52431941,Pu1Tc1B2
ZrUB24,mp-1215198,0.0,7.41841463,0.0141809764743587,"{40: 1, 92: 1, 5: 24}","[5, 40, 92]",524401921,Zr1U1B24
B2RuW,mp-1228657,0.0,8.80514275,0.0915941679545468,"{5: 2, 44: 1, 74: 1}","[5, 44, 74]",52441741,B2Ru1W1
PuB2Ru,mp-1189387,0.0,10.61510982,0.0250412984999961,"{94: 1, 5: 2, 44: 1}","[5, 44, 94]",52441941,Pu1B2Ru1
CeB2Ru2Rh,mp-1226655,0.0,8.27669911,0.0004966946428606,"{58: 1, 5: 2, 44: 2, 45: 1}","[5, 44, 45, 58]",52442451581,Ce1B2Ru2Rh1
Ce(BRu)2,mp-15588,0.0,7.35737345,0.0019292222499949,"{58: 1, 5: 2, 44: 2}","[5, 44, 58]",52442581,Ce1B2Ru2
B24Mo7,mp-1228730,0.0,6.60252332,0.1520672055913969,"{5: 24, 42: 7}","[5, 42]",524427,B24Mo7
LaB2Ru3,mp-29723,0.0,8.57150621,0.0061708838888865,"{57: 1, 5: 2, 44: 3}","[5, 44, 57]",52443571,La1B2Ru3
PrB2Ru3,mp-5939,0.0,6.65709711,0.027026917499997,"{59: 1, 5: 2, 44: 3}","[5, 44, 59]",52443591,Pr1B2Ru3
NdB2Ru3,mp-7099,0.0,6.5765469,0.0176816933333334,"{60: 1, 5: 2, 44: 3}","[5, 44, 60]",52443601,Nd1B2Ru3
SmB2Ru3,mp-3467,0.0,6.43380131,0.024248041666663,"{62: 1, 5: 2, 44: 3}","[5, 44, 62]",52443621,Sm1B2Ru3
Ba(BRh)2,mp-7349,0.0,4.59101132,0.0,"{56: 1, 5: 2, 45: 2}","[5, 45, 56]",52452561,Ba1B2Rh2
LaB2Rh3,mp-3465,0.0,8.15320733,0.0176128713333252,"{57: 1, 5: 2, 45: 3}","[5, 45, 57]",52453571,La1B2Rh3
TbB2Rh3,mp-1072051,0.0,6.2679199,0.0022035104761819,"{65: 1, 5: 2, 45: 3}","[5, 45, 65]",52453651,Tb1B2Rh3
DyB2Rh3,mp-1025143,0.0,6.12924157,0.006018859901955,"{66: 1, 5: 2, 45: 3}","[5, 45, 66]",52453661,Dy1B2Rh3
HoB2Rh3,mp-1025027,0.0,6.10299174,0.0082234447548961,"{67: 1, 5: 2, 45: 3}","[5, 45, 67]",52453671,Ho1B2Rh3
ErB2Rh3,mp-5678,0.0,6.10035034,0.0122056085294071,"{68: 1, 5: 2, 45: 3}","[5, 45, 68]",52453681,Er1B2Rh3
LuB2Rh3,mp-1025024,0.0,6.05882974,0.0242557373333376,"{71: 1, 5: 2, 45: 3}","[5, 45, 71]",52453711,Lu1B2Rh3
Ba3SmB24,mp-1228060,0.0,5.11136439,0.0,"{56: 3, 62: 1, 5: 24}","[5, 56, 62]",524563621,Ba3Sm1B24
La(CeB8)3,mp-1223276,0.0,8.17159848,0.0004073639285717,"{57: 1, 58: 3, 5: 24}","[5, 57, 58]",524571583,La1Ce3B24
La(SmB8)3,mp-1223255,0.0,7.03754636,0.0019278764285743,"{57: 1, 62: 3, 5: 24}","[5, 57, 62]",524571623,La1Sm3B24
B2Pd5,mp-2617,0.0,5.22222431,0.0087540078571421,"{5: 2, 46: 5}","[5, 46]",52465,B2Pd5
Ba(BIr)2,mp-12073,0.0,5.39497764,0.0,"{56: 1, 5: 2, 77: 2}","[5, 56, 77]",52561772,Ba1B2Ir2
ScB2C,mp-8597,0.0,6.6976373,0.0536124890625009,"{21: 1, 5: 2, 6: 1}","[5, 6, 21]",5261211,Sc1B2C1
YCo2B2C,mp-1025070,0.0,5.52487902,0.0273555554166611,"{39: 1, 27: 2, 5: 2, 6: 1}","[5, 6, 27, 39]",5261272391,Y1Co2B2C1
PrCo2B2C,mp-12985,0.0,5.42815015,0.0598480780555448,"{59: 1, 27: 2, 5: 2, 6: 1}","[5, 6, 27, 59]",5261272591,Pr1Co2B2C1
GdCo2B2C,mp-1077521,0.0,5.34017662,0.0221164070833399,"{64: 1, 27: 2, 5: 2, 6: 1}","[5, 6, 27, 64]",5261272641,Gd1Co2B2C1
TbCo2B2C,mp-1024963,0.0,5.55075556,0.0248218454166568,"{65: 1, 27: 2, 5: 2, 6: 1}","[5, 6, 27, 65]",5261272651,Tb1Co2B2C1
TmCo2B2C,mp-1071818,0.0,5.45044231,0.0273454227777794,"{69: 1, 27: 2, 5: 2, 6: 1}","[5, 6, 27, 69]",5261272691,Tm1Co2B2C1
HoNi2B2C,mp-6646,0.0,6.48712228,0.1299117536458327,"{67: 1, 28: 2, 5: 2, 6: 1}","[5, 6, 28, 67]",5261282671,Ho1Ni2B2C1
Cu2B2C,mp-2371187,0.0,2.71249574,0.6960494375833335,"{29: 2, 5: 2, 6: 1}","[5, 6, 29]",5261292,Cu2B2C1
YB2C,mp-9880,0.0,6.08567105,0.0,"{39: 1, 5: 2, 6: 1}","[5, 6, 39]",5261391,Y1B2C1
YB2Rh2C,mp-12737,0.0,5.89998715,0.0044724987499957,"{39: 1, 5: 2, 45: 2, 6: 1}","[5, 6, 39, 45]",5261391452,Y1B2Rh2C1
YB2Pd2C,mp-1024989,0.0,5.46253183,0.0660880496064821,"{39: 1, 5: 2, 46: 2, 6: 1}","[5, 6, 39, 46]",5261391462,Y1B2Pd2C1
TbB2Rh2C,mp-12736,0.0,5.83954003,0.0082042537500051,"{65: 1, 5: 2, 45: 2, 6: 1}","[5, 6, 45, 65]",5261452651,Tb1B2Rh2C1
DyB2Rh2C,mp-571041,0.0,5.83590742,0.0174278162500032,"{66: 1, 5: 2, 45: 2, 6: 1}","[5, 6, 45, 66]",5261452661,Dy1B2Rh2C1
HoB2Rh2C,mp-567969,0.0,5.79439905,0.0296003966071465,"{67: 1, 5: 2, 45: 2, 6: 1}","[5, 6, 45, 67]",5261452671,Ho1B2Rh2C1
ErB2Rh2C,mp-6982,0.0,5.82567596,0.0409068810119093,"{68: 1, 5: 2, 45: 2, 6: 1}","[5, 6, 45, 68]",5261452681,Er1B2Rh2C1
UB2Rh2C,mp-1025127,0.0,8.63966999,0.0416120615476174,"{92: 1, 5: 2, 45: 2, 6: 1}","[5, 6, 45, 92]",5261452921,U1B2Rh2C1
LaB2Pd2C,mp-1024956,0.0,7.09632874,0.0585183587500015,"{57: 1, 5: 2, 46: 2, 6: 1}","[5, 6, 46, 57]",5261462571,La1B2Pd2C1
CeB2Pd2C,mp-1206294,0.0,7.1404161,0.0775588759722234,"{58: 1, 5: 2, 46: 2, 6: 1}","[5, 6, 46, 58]",5261462581,Ce1B2Pd2C1
ThB2Pd2C,mp-1025041,0.0,7.03258897,0.1053894881944339,"{90: 1, 5: 2, 46: 2, 6: 1}","[5, 6, 46, 90]",5261462901,Th1B2Pd2C1
La4B2CI5,mp-672196,0.0,5.82770769,0.0014059729166691,"{57: 4, 5: 2, 6: 1, 53: 5}","[5, 6, 53, 57]",5261535574,La4B2C1I5
LaB2Pt2C,mp-9219,0.0,8.49456992,0.0246026392499949,"{57: 1, 5: 2, 78: 2, 6: 1}","[5, 6, 57, 78]",5261571782,La1B2Pt2C1
CeB2Pt2C,mp-1024975,0.0,8.34432331,0.0332931834722209,"{58: 1, 5: 2, 78: 2, 6: 1}","[5, 6, 58, 78]",5261581782,Ce1B2Pt2C1
PrB2Pt2C,mp-12986,0.0,6.75701252,0.0301493889722328,"{59: 1, 5: 2, 78: 2, 6: 1}","[5, 6, 59, 78]",5261591782,Pr1B2Pt2C1
B2CN,mp-1079333,0.0,8.01110498,0.2398143625520852,"{5: 2, 6: 1, 7: 1}","[5, 6, 7]",526171,B2C1N1
ThB2Pt2C,mp-1072285,0.0,8.28392554,0.0336366787499899,"{90: 1, 5: 2, 78: 2, 6: 1}","[5, 6, 78, 90]",5261782901,Th1B2Pt2C1
UB2C,mp-569471,0.0,10.3149437,0.0345581781249961,"{92: 1, 5: 2, 6: 1}","[5, 6, 92]",5261921,U1B2C1
NpB2C,mp-1095351,0.0,10.82110247,0.0203502639583295,"{93: 1, 5: 2, 6: 1}","[5, 6, 93]",5261931,Np1B2C1
PuB2C,mp-1095228,0.0,10.9816495,0.0375349442187484,"{94: 1, 5: 2, 6: 1}","[5, 6, 94]",5261941,Pu1B2C1
SmB2,mp-10141,0.0,4.79366423,0.1277652823333319,"{62: 1, 5: 2}","[5, 62]",52621,Sm1B2
Sc(BC)2,mp-27693,0.0,5.99502122,0.0449481525000017,"{21: 1, 5: 2, 6: 2}","[5, 6, 21]",5262211,Sc1B2C2
Y(BC)2,mp-1078866,0.0,6.43755361,0.0,"{39: 1, 5: 2, 6: 2}","[5, 6, 39]",5262391,Y1B2C2
ZrB2Mo3C2,mp-1215263,0.0,8.41001489,0.0457102145312493,"{40: 1, 5: 2, 42: 3, 6: 2}","[5, 6, 40, 42]",5262401423,Zr1B2Mo3C2
TaB2Mo3C2,mp-1217964,0.0,9.00489925,0.0062335645312501,"{73: 1, 5: 2, 42: 3, 6: 2}","[5, 6, 42, 73]",5262423731,Ta1B2Mo3C2
Eu(BC)2,mp-1079886,0.0,5.08789171,0.0273499746666665,"{63: 1, 5: 2, 6: 2}","[5, 6, 63]",5262631,Eu1B2C2
Tm(BC)2,mp-10857,0.0,6.34963956,0.009051372,"{69: 1, 5: 2, 6: 2}","[5, 6, 69]",5262691,Tm1B2C2
Lu(BC)2,mp-10858,0.0,6.40694009,0.0275399685000001,"{71: 1, 5: 2, 6: 2}","[5, 6, 71]",5262711,Lu1B2C2
Tb2B2C3,mp-568624,0.0,5.86367898,0.0769354175892811,"{65: 2, 5: 2, 6: 3}","[5, 6, 65]",5263652,Tb2B2C3
B2(CN2)3,mp-2455462,2.2987,-2.89854605,0.1760377443181813,"{5: 2, 6: 3, 7: 6}","[5, 6, 7]",526376,B2C3N6
Th3B2C3,mp-3182,0.0,7.26089832,0.0030123221875051,"{90: 3, 5: 2, 6: 3}","[5, 6, 90]",5263903,Th3B2C3
GdB2,mp-425,0.0,4.82162606,0.068329677333331,"{64: 1, 5: 2}","[5, 64]",52641,Gd1B2
Mn23(BC2)2,mp-1222165,0.0,7.07554356,0.0048855289972227,"{25: 23, 5: 2, 6: 4}","[5, 6, 25]",52642523,Mn23B2C4
Pr5B2C5,mp-571510,0.0,4.35731863,0.0104255663888883,"{59: 5, 5: 2, 6: 5}","[5, 6, 59]",5265595,Pr5B2C5
Ca(BC3)2,mp-1227328,0.6533999999999995,3.66733049,0.029552975555557,"{20: 1, 5: 2, 6: 6}","[5, 6, 20]",5266201,Ca1B2C6
FeB2C6(O3F4)2,mp-555698,4.623200000000001,-2.89343772,0.3121561816304314,"{26: 1, 5: 2, 6: 6, 8: 6, 9: 8}","[5, 6, 8, 9, 26]",52668698261,Fe1B2C6O6F8
Na12B26O45,mp-1180710,4.581300000000001,0.76419403,0.0090385836746991,"{11: 12, 5: 26, 8: 45}","[5, 8, 11]",5268451112,Na12B26O45
CuB2(CN)8,mp-568532,0.8959999999999999,-1.64166193,0.4990456499999975,"{29: 1, 5: 2, 6: 8, 7: 8}","[5, 6, 7, 29]",526878291,Cu1B2C8N8
B2NCl3,mp-1214908,4.3775,-1.29020075,0.0657231606944446,"{5: 2, 7: 1, 17: 3}","[5, 7, 17]",5271173,B2N1Cl3