formula,material_id,band_gap,efermi,energy_above_hull,comp_atoms,sorted_keys_comp_atoms,comp_number,new_formula
HfTaB2,mp-1224291,0.0,6.62510342,0.0099471908333299,"{72: 1, 73: 1, 5: 2}","[5, 72, 73]",52721731,Hf1Ta1B2
Hf3B2Ir5,mp-22409,0.0,7.84357177,0.0537956815000004,"{72: 3, 5: 2, 77: 5}","[5, 72, 77]",52723775,Hf3B2Ir5
Sr(BN)2,mp-1068850,3.4722,2.49187969,0.4150308471999988,"{38: 1, 5: 2, 7: 2}","[5, 7, 38]",5272381,Sr1B2N2
Lu2B2N2O13,mp-1196028,0.1352,-1.15332196,0.1570513225657892,"{71: 2, 5: 2, 7: 2, 8: 13}","[5, 7, 8, 71]",5272813712,Lu2B2N2O13
Hf9B2W3,mp-1224535,0.0,5.1800345,0.1907943892857133,"{72: 9, 5: 2, 74: 3}","[5, 72, 74]",52729743,Hf9B2W3
Ta2B2Os,mp-1189186,0.0,7.92207459,0.0034038705000014,"{73: 2, 5: 2, 76: 1}","[5, 73, 76]",52732761,Ta2B2Os1
La3Ni2B2N3,mp-6114,0.0,8.85545947,0.004735910333343,"{57: 3, 28: 2, 5: 2, 7: 3}","[5, 7, 28, 57]",5273282573,La3Ni2B2N3
B2OsW2,mp-1188234,0.0,8.81657681,0.029688159999992,"{5: 2, 76: 1, 74: 2}","[5, 74, 76]",52742761,B2Os1W2
Ba3(BN2)2,mp-30905,2.5171,1.65712724,0.0,"{56: 3, 5: 2, 7: 4}","[5, 7, 56]",5274563,Ba3B2N4
Ba4B2N4O,mp-553990,2.8024,1.96674257,0.011112585000002,"{56: 4, 5: 2, 7: 4, 8: 1}","[5, 7, 8, 56]",527481564,Ba4B2N4O1
PuReB2,mp-1106002,0.0,10.39781935,0.0038651468181782,"{94: 1, 75: 1, 5: 2}","[5, 75, 94]",52751941,Pu1Re1B2
Ce4B2N5,mp-31017,0.0,8.96409919,0.0064119918181901,"{58: 4, 5: 2, 7: 5}","[5, 7, 58]",5275584,Ce4B2N5
B2Pt3,mp-1228684,0.0,7.07553418,0.0586855640833334,"{5: 2, 78: 3}","[5, 78]",52783,B2Pt3
B2O,mp-614006,0.0,4.82384667,0.9245854276388884,"{5: 2, 8: 1}","[5, 8]",5281,B2O1
Na2Y2B2TeO10,mp-1194587,2.9002000000000003,1.89899593,0.0,"{11: 2, 39: 2, 5: 2, 52: 1, 8: 10}","[5, 8, 11, 39, 52]",52810112392521,Na2Y2B2Te1O10
Na2Dy2B2TeO10,mp-1194796,2.8881,1.86485419,0.0,"{11: 2, 66: 2, 5: 2, 52: 1, 8: 10}","[5, 8, 11, 52, 66]",52810112521662,Na2Dy2B2Te1O10
Na2Tm2B2TeO10,mp-1195532,3.1794,1.85545498,0.0,"{11: 2, 69: 2, 5: 2, 52: 1, 8: 10}","[5, 8, 11, 52, 69]",52810112521692,Na2Tm2B2Te1O10
Ba2Nd2MgCu2(BO5)2,mp-2231110,0.1035000000000003,5.14013834,0.3782731162631743,"{56: 2, 60: 2, 12: 1, 29: 2, 5: 2, 8: 10}","[5, 8, 12, 29, 56, 60]",52810121292562602,Ba2Nd2Mg1Cu2B2O10
Mg3Mn3(BO5)2,mp-555830,0.0,3.87772006,0.01663458027779,"{12: 3, 25: 3, 5: 2, 8: 10}","[5, 8, 12, 25]",52810123253,Mg3Mn3B2O10
Mg5Ti(BO5)2,mp-1222168,0.4541999999999997,3.83670848,0.0584189768055551,"{12: 5, 22: 1, 5: 2, 8: 10}","[5, 8, 12, 22]",52810125221,Mg5Ti1B2O10
Mg5Sn(BO5)2,mp-1198031,3.8299,7.00146312,0.0,"{12: 5, 50: 1, 5: 2, 8: 10}","[5, 8, 12, 50]",52810125501,Mg5Sn1B2O10
Al4Co(BO5)2,mp-19348,1.7495000000000005,5.97355309,0.1183884004223267,"{13: 4, 27: 1, 5: 2, 8: 10}","[5, 8, 13, 27]",52810134271,Al4Co1B2O10
LaCeSi2(BO5)2,mp-1223448,0.3406000000000002,7.14602723,0.0032409024999378,"{57: 1, 58: 1, 14: 2, 5: 2, 8: 10}","[5, 8, 14, 57, 58]",52810142571581,La1Ce1Si2B2O10
K2Ge3(BO5)2,mp-560019,3.8683,0.76516773,0.0009076026688239,"{19: 2, 32: 3, 5: 2, 8: 10}","[5, 8, 19, 32]",52810192323,K2Ge3B2O10
TiNi5(BO5)2,mp-1217013,0.0,5.04985683,0.0344974130554769,"{22: 1, 28: 5, 5: 2, 8: 10}","[5, 8, 22, 28]",52810221285,Ti1Ni5B2O10
VNi5(BO5)2,mp-1216406,0.0,4.36474688,0.0239442947221792,"{23: 1, 28: 5, 5: 2, 8: 10}","[5, 8, 23, 28]",52810231285,V1Ni5B2O10
V5(BO5)2,mp-771822,0.4389000000000003,4.67845587,0.0339562268259818,"{23: 5, 5: 2, 8: 10}","[5, 8, 23]",52810235,V5B2O10
MnNi5(BO5)2,mp-1221366,0.0,4.1619965,0.002404314611101,"{25: 1, 28: 5, 5: 2, 8: 10}","[5, 8, 25, 28]",52810251285,Mn1Ni5B2O10
MnZn5(BO5)2,mp-1221663,0.0,2.11972634,0.0769541239814897,"{25: 1, 30: 5, 5: 2, 8: 10}","[5, 8, 25, 30]",52810251305,Mn1Zn5B2O10
Sr2Mn3(BO5)2,mp-1218788,0.0082999999999999,1.97426401,0.1889233148161695,"{38: 2, 25: 3, 5: 2, 8: 10}","[5, 8, 25, 38]",52810253382,Sr2Mn3B2O10
Mn5Ni(BO5)2,mp-1221544,0.1013000000000001,3.74193099,0.0115327361111301,"{25: 5, 28: 1, 5: 2, 8: 10}","[5, 8, 25, 28]",52810255281,Mn5Ni1B2O10
Co5Sn(BO5)2,mp-1226176,0.3912000000000004,4.56749449,0.2015941777777783,"{27: 5, 50: 1, 5: 2, 8: 10}","[5, 8, 27, 50]",52810275501,Co5Sn1B2O10
Ni5Ge(BO5)2,mp-1220232,0.0769000000000001,5.28609312,0.0556961888889002,"{28: 5, 32: 1, 5: 2, 8: 10}","[5, 8, 28, 32]",52810285321,Ni5Ge1B2O10
ZrNi5(BO5)2,mp-1215311,1.4703,4.60195263,0.0515345622222094,"{40: 1, 28: 5, 5: 2, 8: 10}","[5, 8, 28, 40]",52810285401,Zr1Ni5B2O10
Ni5B2SbO10,mp-1209850,0.0,5.84033256,0.0751014121875037,"{28: 5, 5: 2, 51: 1, 8: 10}","[5, 8, 28, 51]",52810285511,Ni5B2Sb1O10
Cu5Sn(BO5)2,mp-1226321,0.0116000000000004,4.42104853,0.063335205601847,"{29: 5, 50: 1, 5: 2, 8: 10}","[5, 8, 29, 50]",52810295501,Cu5Sn1B2O10
RbB2Se3O10,mp-1196428,0.1596,0.27902096,0.0624070484960999,"{37: 1, 5: 2, 34: 3, 8: 10}","[5, 8, 34, 37]",52810343371,Rb1B2Se3O10
K2B2(SO4)3,mp-1212598,0.5191000000000001,2.07570938,0.334461971795946,"{19: 2, 5: 2, 16: 3, 8: 12}","[5, 8, 16, 19]",52812163192,K2B2S3O12
Ba3Ti3(BO6)2,mp-11772,2.1313,2.35640327,0.0268807877499934,"{56: 3, 22: 3, 5: 2, 8: 12}","[5, 8, 22, 56]",52812223563,Ba3Ti3B2O12
CrB2(PbO2)6,mp-1197022,1.8898,2.95321062,0.0009535368760253,"{24: 1, 5: 2, 82: 6, 8: 12}","[5, 8, 24, 82]",52812241826,Cr1B2Pb6O12
B2Mo(PbO2)6,mp-1196917,2.4454,3.25996041,0.0,"{5: 2, 42: 1, 82: 6, 8: 12}","[5, 8, 42, 82]",52812421826,B2Mo1Pb6O12
B2Pb6WO12,mp-1198358,2.56,5.562958,0.0017165940029757,"{5: 2, 82: 6, 74: 1, 8: 12}","[5, 8, 74, 82]",52812741826,B2Pb6W1O12
Na5B2P3O13,mp-557836,5.0787,0.85901406,0.0,"{11: 5, 5: 2, 15: 3, 8: 13}","[5, 8, 11, 15]",52813115153,Na5B2P3O13
BaB2S3O13,mp-1019539,6.181,0.30519028,0.0,"{56: 1, 5: 2, 16: 3, 8: 13}","[5, 8, 16, 56]",52813163561,Ba1B2S3O13
Mg3B2SO14,mp-1196808,0.0,-0.80888029,0.4196086378749912,"{12: 3, 5: 2, 16: 1, 8: 14}","[5, 8, 12, 16]",52814123161,Mg3B2S1O14
Ba2CaSi4(BO7)2,mp-1019518,4.8764,1.4929108,0.0,"{56: 2, 20: 1, 14: 4, 5: 2, 8: 14}","[5, 8, 14, 20, 56]",52814144201562,Ba2Ca1Si4B2O14
K3LuB2(PO7)2,mp-1181370,0.1966,-0.99306528,0.2520080577870764,"{19: 3, 71: 1, 5: 2, 15: 2, 8: 14}","[5, 8, 15, 19, 71]",52814152193711,K3Lu1B2P2O14
MgAl6FeSi2(BO9)2,mp-1222184,3.727300000000001,3.37706205,0.0,"{12: 1, 13: 6, 26: 1, 14: 2, 5: 2, 8: 18}","[5, 8, 12, 13, 14, 26]",52818121136142261,Mg1Al6Fe1Si2B2O18
Ba2MgFe2B2(P2O9)2,mp-1234736,3.5197,2.81118265,0.024915282758636,"{56: 2, 12: 1, 26: 2, 5: 2, 15: 4, 8: 18}","[5, 8, 12, 15, 26, 56]",52818121154262562,Ba2Mg1Fe2B2P4O18
Al9Cr(BO9)2,mp-1228622,3.9466,2.65024664,0.0032165831000412,"{13: 9, 24: 1, 5: 2, 8: 18}","[5, 8, 13, 24]",52818139241,Al9Cr1B2O18
K4U5B2O21,mp-1224701,0.1466999999999999,0.69022575,0.0639808456126687,"{19: 4, 92: 5, 5: 2, 8: 21}","[5, 8, 19, 92]",52821194925,K4U5B2O21
BaNa4Ti2Si10(BO15)2,mp-1228057,3.4488,1.43932006,0.0,"{56: 1, 11: 4, 22: 2, 14: 10, 5: 2, 8: 30}","[5, 8, 11, 14, 22, 56]",528301141410222561,Ba1Na4Ti2Si10B2O30
Ce6Ge9(BO15)2,mp-683922,0.1823000000000005,7.83270345,0.1057716560638297,"{58: 6, 32: 9, 5: 2, 8: 30}","[5, 8, 32, 58]",52830329586,Ce6Ge9B2O30
Bi24B2O39,mp-775842,2.0695,4.77866042,0.0574073144230791,"{83: 24, 5: 2, 8: 39}","[5, 8, 83]",528398324,Bi24B2O39
CeB2ClO4,mp-556519,0.1345,5.30898349,0.01983305437499,"{58: 1, 5: 2, 17: 1, 8: 4}","[5, 8, 17, 58]",5284171581,Ce1B2Cl1O4
Mn(BO2)2,mp-1199954,4.4584,7.99127579,0.0401718778928543,"{25: 1, 5: 2, 8: 4}","[5, 8, 25]",5284251,Mn1B2O4
Fe(BO2)2,mp-1279062,4.099600000000001,3.65140822,0.0113139076190513,"{26: 1, 5: 2, 8: 4}","[5, 8, 26]",5284261,Fe1B2O4
Ni(BO2)2,mp-555102,0.0,4.84278775,0.0055622017063514,"{28: 1, 5: 2, 8: 4}","[5, 8, 28]",5284281,Ni1B2O4
Cu(BO2)2,mp-4870,0.0,3.34963412,0.0,"{29: 1, 5: 2, 8: 4}","[5, 8, 29]",5284291,Cu1B2O4
B2PdO4,mp-540900,0.7786,3.24578205,0.0124531690476104,"{5: 2, 46: 1, 8: 4}","[5, 8, 46]",5284461,B2Pd1O4
Cd(BO2)2,mp-778103,3.3861,0.93924344,0.0272667023214321,"{48: 1, 5: 2, 8: 4}","[5, 8, 48]",5284481,Cd1B2O4
Ba(BO2)2,mp-540659,4.522399999999999,0.06293808,0.0,"{56: 1, 5: 2, 8: 4}","[5, 8, 56]",5284561,Ba1B2O4
Eu(BO2)2,mp-540879,0.2902999999999993,5.0099785,0.0,"{63: 1, 5: 2, 8: 4}","[5, 8, 63]",5284631,Eu1B2O4
LaB2O4F,mp-1198007,4.9384,7.0298739,0.0058474594409627,"{57: 1, 5: 2, 8: 4, 9: 1}","[5, 8, 9, 57]",528491571,La1B2O4F1
CeB2O4F,mp-1199150,0.2384000000000004,5.44774646,0.0230073217534645,"{58: 1, 5: 2, 8: 4, 9: 1}","[5, 8, 9, 58]",528491581,Ce1B2O4F1
BiB2O4F,mp-558753,4.1919,2.95894464,0.0007315004166699,"{83: 1, 5: 2, 8: 4, 9: 1}","[5, 8, 9, 83]",528491831,Bi1B2O4F1
NaScB2O5,mp-555447,4.9236,0.83891793,0.0,"{11: 1, 21: 1, 5: 2, 8: 5}","[5, 8, 11, 21]",5285111211,Na1Sc1B2O5
CaMgB2O5,mp-6585,5.311999999999999,1.93629679,0.0019687802777799,"{20: 1, 12: 1, 5: 2, 8: 5}","[5, 8, 12, 20]",5285121201,Ca1Mg1B2O5
Si2B2O5,mp-972793,0.0,8.19262314,1.917395639444447,"{14: 2, 5: 2, 8: 5}","[5, 8, 14]",5285142,Si2B2O5
Er2B2Cl2O5,mp-556986,5.0806,-0.76216487,0.0,"{68: 2, 5: 2, 17: 2, 8: 5}","[5, 8, 17, 68]",5285172682,Er2B2Cl2O5
CaMnB2O5,mp-555385,1.5225,5.8032625,0.0045149615277644,"{20: 1, 25: 1, 5: 2, 8: 5}","[5, 8, 20, 25]",5285201251,Ca1Mn1B2O5
BaCaB2O5,mp-1019542,4.4673,0.93304749,0.0,"{56: 1, 20: 1, 5: 2, 8: 5}","[5, 8, 20, 56]",5285201561,Ba1Ca1B2O5
MnCoB2O5,mp-1221788,2.5224,2.50107672,0.1198205637407472,"{25: 1, 27: 1, 5: 2, 8: 5}","[5, 8, 25, 27]",5285251271,Mn1Co1B2O5
Fe2B2O5,mp-19333,3.2492,2.3127903,0.0,"{26: 2, 5: 2, 8: 5}","[5, 8, 26]",5285262,Fe2B2O5
Co2B2O5,mp-510055,0.0,3.50210252,0.2232126680246917,"{27: 2, 5: 2, 8: 5}","[5, 8, 27]",5285272,Co2B2O5
BaCuB2O5,mp-551135,0.5047000000000001,1.89780508,0.0277515377777675,"{56: 1, 29: 1, 5: 2, 8: 5}","[5, 8, 29, 56]",5285291561,Ba1Cu1B2O5
ZnCdB2O5,mp-1207444,2.7413000000000003,3.44640356,0.0197608663888875,"{30: 1, 48: 1, 5: 2, 8: 5}","[5, 8, 30, 48]",5285301481,Zn1Cd1B2O5
SrCdB2O5,mp-1195626,3.5306,1.16383047,0.0,"{38: 1, 48: 1, 5: 2, 8: 5}","[5, 8, 38, 48]",5285381481,Sr1Cd1B2O5
B2TeO5,mp-768235,3.15,0.50786888,0.0620191258333289,"{5: 2, 52: 1, 8: 5}","[5, 8, 52]",5285521,B2Te1O5
Ba2B2O5,mp-771158,3.9978,0.70103267,0.0,"{56: 2, 5: 2, 8: 5}","[5, 8, 56]",5285562,Ba2B2O5
Eu2B2O5,mp-1212596,0.0819,4.8583227,0.0,"{63: 2, 5: 2, 8: 5}","[5, 8, 63]",5285632,Eu2B2O5
TlB2O5,mp-731996,1.2793,0.07858848,0.3219089726302098,"{81: 1, 5: 2, 8: 5}","[5, 8, 81]",5285811,Tl1B2O5
B2Pb2O5,mp-1192421,2.719,3.43233441,0.000604865502626,"{5: 2, 82: 2, 8: 5}","[5, 8, 82]",5285822,B2Pb2O5
BiB2O5,mp-768314,0.0,1.85808819,0.0902472129166662,"{83: 1, 5: 2, 8: 5}","[5, 8, 83]",5285831,Bi1B2O5
ThB2O5,mp-28641,4.8178,1.60202761,0.0091799287500009,"{90: 1, 5: 2, 8: 5}","[5, 8, 90]",5285901,Th1B2O5
Na3B2PO5F4,mp-1197849,5.6153,-0.04964214,0.0,"{11: 3, 5: 2, 15: 1, 8: 5, 9: 4}","[5, 8, 9, 11, 15]",528594113151,Na3B2P1O5F4
BaNaSc(BO3)2,mp-1182298,3.8128,1.75196207,0.0,"{56: 1, 11: 1, 21: 1, 5: 2, 8: 6}","[5, 8, 11, 21, 56]",5286111211561,Ba1Na1Sc1B2O6
BaNaY(BO3)2,mp-1182342,3.335,4.94936144,0.006637477121214,"{56: 1, 11: 1, 39: 1, 5: 2, 8: 6}","[5, 8, 11, 39, 56]",5286111391561,Ba1Na1Y1B2O6
Na3V(BO3)2,mp-773603,1.7706999999999995,4.11535807,0.0459345002083253,"{11: 3, 23: 1, 5: 2, 8: 6}","[5, 8, 11, 23]",5286113231,Na3V1B2O6
Na3Cr(BO3)2,mp-773526,2.4378999999999995,4.46384307,0.042320768333333,"{11: 3, 24: 1, 5: 2, 8: 6}","[5, 8, 11, 24]",5286113241,Na3Cr1B2O6
Na3Mn(BO3)2,mp-773605,1.2168,1.53186493,0.034999611249975,"{11: 3, 25: 1, 5: 2, 8: 6}","[5, 8, 11, 25]",5286113251,Na3Mn1B2O6
Na3Fe(BO3)2,mp-772223,2.1688,3.51276976,0.0273174081250031,"{11: 3, 26: 1, 5: 2, 8: 6}","[5, 8, 11, 26]",5286113261,Na3Fe1B2O6
Na3Co(BO3)2,mp-773604,0.9759000000000002,2.18776977,0.0995887579861012,"{11: 3, 27: 1, 5: 2, 8: 6}","[5, 8, 11, 27]",5286113271,Na3Co1B2O6
Na3Ni(BO3)2,mp-772229,0.0,1.26443116,0.0447563910416706,"{11: 3, 28: 1, 5: 2, 8: 6}","[5, 8, 11, 28]",5286113281,Na3Ni1B2O6
Na3Y(BO3)2,mp-556039,3.5665000000000004,1.11141449,0.0,"{11: 3, 39: 1, 5: 2, 8: 6}","[5, 8, 11, 39]",5286113391,Na3Y1B2O6
Na3Bi(BO3)2,mp-775830,3.1381,1.621331,0.0161383783333324,"{11: 3, 83: 1, 5: 2, 8: 6}","[5, 8, 11, 83]",5286113831,Na3Bi1B2O6
BaMgTi(BO3)2,mp-2217557,0.0,5.34604199,0.3332326610605731,"{56: 1, 12: 1, 22: 1, 5: 2, 8: 6}","[5, 8, 12, 22, 56]",5286121221561,Ba1Mg1Ti1B2O6
MgFe2(BO3)2,mp-2240895,2.9047,2.34364565,0.1358053469602262,"{12: 1, 26: 2, 5: 2, 8: 6}","[5, 8, 12, 26]",5286121262,Mg1Fe2B2O6
MgSn(BO3)2,mp-11715,3.623,3.44967299,0.0,"{12: 1, 50: 1, 5: 2, 8: 6}","[5, 8, 12, 50]",5286121501,Mg1Sn1B2O6
Ba2Mg(BO3)2,mp-9259,4.532399999999999,2.41456647,0.0,"{56: 2, 12: 1, 5: 2, 8: 6}","[5, 8, 12, 56]",5286121562,Ba2Mg1B2O6
Ba2YB2ClO6,mp-866310,4.0621,1.35654584,0.0,"{56: 2, 39: 1, 5: 2, 17: 1, 8: 6}","[5, 8, 17, 39, 56]",5286171391562,Ba2Y1B2Cl1O6
Ba2GdB2ClO6,mp-866304,0.0,0.55926524,0.0,"{56: 2, 64: 1, 5: 2, 17: 1, 8: 6}","[5, 8, 17, 56, 64]",5286171562641,Ba2Gd1B2Cl1O6
Ba2HoB2ClO6,mp-558195,4.0845,1.36900005,0.0,"{56: 2, 67: 1, 5: 2, 17: 1, 8: 6}","[5, 8, 17, 56, 67]",5286171562671,Ba2Ho1B2Cl1O6
Ba2LuB2ClO6,mp-1228639,2.1046,1.28887798,0.0,"{56: 2, 71: 1, 5: 2, 17: 1, 8: 6}","[5, 8, 17, 56, 71]",5286171562711,Ba2Lu1B2Cl1O6
KBaY(BO3)2,mp-1223458,3.9314,1.56487405,0.0,"{19: 1, 56: 1, 39: 1, 5: 2, 8: 6}","[5, 8, 19, 39, 56]",5286191391561,K1Ba1Y1B2O6
KNb(BO3)2,mp-1200391,3.5488,-0.24841636,0.0001278383399085,"{19: 1, 41: 1, 5: 2, 8: 6}","[5, 8, 19, 41]",5286191411,K1Nb1B2O6
KB2SbO6,mp-1105367,2.9208000000000007,4.18158,0.0040424400701848,"{19: 1, 5: 2, 51: 1, 8: 6}","[5, 8, 19, 51]",5286191511,K1B2Sb1O6
K3Y(BO3)2,mp-555495,3.1826,1.035122,0.0,"{19: 3, 39: 1, 5: 2, 8: 6}","[5, 8, 19, 39]",5286193391,K3Y1B2O6
Ca(BO3)2,mp-1105926,0.0,-0.45335727,0.3228696761111109,"{20: 1, 5: 2, 8: 6}","[5, 8, 20]",5286201,Ca1B2O6
Ba2Ca(BO3)2,mp-549737,4.080500000000001,1.79360915,0.0,"{56: 2, 20: 1, 5: 2, 8: 6}","[5, 8, 20, 56]",5286201562,Ba2Ca1B2O6
YSc(BO3)2,mp-1215941,4.452,1.93360883,0.007361825333314,"{39: 1, 21: 1, 5: 2, 8: 6}","[5, 8, 21, 39]",5286211391,Y1Sc1B2O6
HoSc(BO3)2,mp-1223873,4.4611,1.80810308,0.009991754999973,"{67: 1, 21: 1, 5: 2, 8: 6}","[5, 8, 21, 67]",5286211671,Ho1Sc1B2O6
ErSc(BO3)2,mp-1225475,4.449,1.80563561,0.0095164924999959,"{68: 1, 21: 1, 5: 2, 8: 6}","[5, 8, 21, 68]",5286211681,Er1Sc1B2O6
BaTi(BO3)2,mp-11659,2.3877,1.75916452,0.0027539935624627,"{56: 1, 22: 1, 5: 2, 8: 6}","[5, 8, 22, 56]",5286221561,Ba1Ti1B2O6
YCr(BO3)2,mp-1232521,3.2276,2.24780261,0.0086785638333282,"{39: 1, 24: 1, 5: 2, 8: 6}","[5, 8, 24, 39]",5286241391,Y1Cr1B2O6
CoCu2(BO3)2,mp-620325,0.0,3.67252636,0.1470453057323189,"{27: 1, 29: 2, 5: 2, 8: 6}","[5, 8, 27, 29]",5286271292,Co1Cu2B2O6
Sr2Cu(BO3)2,mp-9660,0.5013000000000001,2.81627747,0.012883198409078,"{38: 2, 29: 1, 5: 2, 8: 6}","[5, 8, 29, 38]",5286291382,Sr2Cu1B2O6
Ba2Cu(BO3)2,mp-559180,2.1333,2.33827004,0.0048014865908907,"{56: 2, 29: 1, 5: 2, 8: 6}","[5, 8, 29, 56]",5286291562,Ba2Cu1B2O6
CuB2(PbO3)2,mp-554812,0.0,4.62579724,0.0075042975324652,"{29: 1, 5: 2, 82: 2, 8: 6}","[5, 8, 29, 82]",5286291822,Cu1B2Pb2O6
ZnCu2(BO3)2,mp-1207451,0.4604999999999997,2.61959353,0.0728528487499966,"{30: 1, 29: 2, 5: 2, 8: 6}","[5, 8, 29, 30]",5286292301,Zn1Cu2B2O6
SrCu2(BO3)2,mp-1191148,0.0,2.4109306,0.0386164188636355,"{38: 1, 29: 2, 5: 2, 8: 6}","[5, 8, 29, 38]",5286292381,Sr1Cu2B2O6
CdCu2(BO3)2,mp-560100,0.1060000000000003,2.57434879,0.0539517284091157,"{48: 1, 29: 2, 5: 2, 8: 6}","[5, 8, 29, 48]",5286292481,Cd1Cu2B2O6
Cu3(BO3)2,mp-1226691,0.0421,2.9204805,0.0489071818939415,"{29: 3, 5: 2, 8: 6}","[5, 8, 29]",5286293,Cu3B2O6
Ba2Zn(BO3)2,mp-559138,3.3328,0.86298631,0.0,"{56: 2, 30: 1, 5: 2, 8: 6}","[5, 8, 30, 56]",5286301562,Ba2Zn1B2O6
Zn2Cd(BO3)2,mp-1215713,2.4333,0.74300542,0.0294106002272709,"{30: 2, 48: 1, 5: 2, 8: 6}","[5, 8, 30, 48]",5286302481,Zn2Cd1B2O6
BaZn2(BO3)2,mp-557974,3.2287,0.77520449,0.0124995756817991,"{56: 1, 30: 2, 5: 2, 8: 6}","[5, 8, 30, 56]",5286302561,Ba1Zn2B2O6
Zn2B2PbO6,mp-560471,3.3262,0.95854183,0.0,"{30: 2, 5: 2, 82: 1, 8: 6}","[5, 8, 30, 82]",5286302821,Zn2B2Pb1O6
Zn3(BO3)2,mp-557683,2.7833,0.28284038,0.0131024560606061,"{30: 3, 5: 2, 8: 6}","[5, 8, 30]",5286303,Zn3B2O6
RbB2SbO6,mp-1209317,2.3667,3.44168203,0.0400428476666796,"{37: 1, 5: 2, 51: 1, 8: 6}","[5, 8, 37, 51]",5286371511,Rb1B2Sb1O6
SrSn(BO3)2,mp-8000,3.6178,2.19954216,0.0,"{38: 1, 50: 1, 5: 2, 8: 6}","[5, 8, 38, 50]",5286381501,Sr1Sn1B2O6
BaZr(BO3)2,mp-559348,4.1173,1.18226178,0.0,"{56: 1, 40: 1, 5: 2, 8: 6}","[5, 8, 40, 56]",5286401561,Ba1Zr1B2O6
Ba2Cd(BO3)2,mp-1102943,2.8851000000000004,1.65105378,0.0,"{56: 2, 48: 1, 5: 2, 8: 6}","[5, 8, 48, 56]",5286481562,Ba2Cd1B2O6
B2TeO6,mp-779332,2.5855,0.046384,0.0892329921296308,"{5: 2, 52: 1, 8: 6}","[5, 8, 52]",5286521,B2Te1O6
BaHf(BO3)2,mp-1105495,4.7103,5.95017701,0.0,"{56: 1, 72: 1, 5: 2, 8: 6}","[5, 8, 56, 72]",5286561721,Ba1Hf1B2O6
Ba3(BO3)2,mp-755417,4.1693,1.02019382,0.0,"{56: 3, 5: 2, 8: 6}","[5, 8, 56]",5286563,Ba3B2O6
U(BO3)2,mp-31013,2.266,0.52339836,0.0034899057407464,"{92: 1, 5: 2, 8: 6}","[5, 8, 92]",5286921,U1B2O6
Sm3B2(O2F)3,mp-1208857,5.538399999999999,7.15323876,0.0068835917857175,"{62: 3, 5: 2, 8: 6, 9: 3}","[5, 8, 9, 62]",528693623,Sm3B2O6F3
Eu3B2(O2F)3,mp-1213384,0.0,0.94143243,0.0066364926190498,"{63: 3, 5: 2, 8: 6, 9: 3}","[5, 8, 9, 63]",528693633,Eu3B2O6F3
Gd3B2(O2F)3,mp-669375,2.8409000000000004,1.70492351,0.0148433676190418,"{64: 3, 5: 2, 8: 6, 9: 3}","[5, 8, 9, 64]",528693643,Gd3B2O6F3
Dy5B2(O2F3)3,mp-1203431,5.960999999999999,1.18508766,0.0039213701136366,"{66: 5, 5: 2, 8: 6, 9: 9}","[5, 8, 9, 66]",528699665,Dy5B2O6F9
Ho5B2(O2F3)3,mp-1203766,6.0236,7.15922696,0.0173315649999983,"{67: 5, 5: 2, 8: 6, 9: 9}","[5, 8, 9, 67]",528699675,Ho5B2O6F9
Er5B2(O2F3)3,mp-1199169,5.9864,7.07776999,0.0220329468181859,"{68: 5, 5: 2, 8: 6, 9: 9}","[5, 8, 9, 68]",528699685,Er5B2O6F9
Na2Y2B2O7,mp-6331,4.3727,1.80316224,0.0043740552670943,"{11: 2, 39: 2, 5: 2, 8: 7}","[5, 8, 11, 39]",5287112392,Na2Y2B2O7
Na2Eu2B2O7,mp-1210559,0.0037,1.65955513,0.0871331794230627,"{11: 2, 63: 2, 5: 2, 8: 7}","[5, 8, 11, 63]",5287112632,Na2Eu2B2O7
SrAl2B2O7,mp-558669,4.6877,0.26801732,0.0,"{38: 1, 13: 2, 5: 2, 8: 7}","[5, 8, 13, 38]",5287132381,Sr1Al2B2O7
BaAl2B2O7,mp-9844,4.6477,0.12226831,0.0,"{56: 1, 13: 2, 5: 2, 8: 7}","[5, 8, 13, 56]",5287132561,Ba1Al2B2O7
Ca2SiB2O7,mp-752851,5.6806,2.89556316,0.0142852734722236,"{20: 2, 14: 1, 5: 2, 8: 7}","[5, 8, 14, 20]",5287141202,Ca2Si1B2O7
K2Fe2B2O7,mp-1195799,2.4615,-0.17059564,0.0250641756410221,"{19: 2, 26: 2, 5: 2, 8: 7}","[5, 8, 19, 26]",5287192262,K2Fe2B2O7
CaGaBiB2O7,mp-1227107,3.6637,3.36783101,0.0,"{20: 1, 31: 1, 83: 1, 5: 2, 8: 7}","[5, 8, 20, 31, 83]",5287201311831,Ca1Ga1Bi1B2O7
CaBi2B2O7,mp-557371,3.1706,2.90075419,0.0090688119791506,"{20: 1, 83: 2, 5: 2, 8: 7}","[5, 8, 20, 83]",5287201832,Ca1Bi2B2O7
ZnBi2B2O7,mp-555880,2.5198,3.12582373,0.0,"{30: 1, 83: 2, 5: 2, 8: 7}","[5, 8, 30, 83]",5287301832,Zn1Bi2B2O7
Zn4B2O7,mp-686042,1.8634,0.02572981,0.0890565407692314,"{30: 4, 5: 2, 8: 7}","[5, 8, 30]",5287304,Zn4B2O7
Rb2Ga2B2O7,mp-560010,3.6745,-0.35432233,0.0,"{37: 2, 31: 2, 5: 2, 8: 7}","[5, 8, 31, 37]",5287312372,Rb2Ga2B2O7
BaGa2B2O7,mp-560870,3.9842,0.80062278,0.0,"{56: 1, 31: 2, 5: 2, 8: 7}","[5, 8, 31, 56]",5287312561,Ba1Ga2B2O7
B2Se2O7,mp-558521,3.9418,0.64758017,0.0,"{5: 2, 34: 2, 8: 7}","[5, 8, 34]",5287342,B2Se2O7
SrBi2B2O7,mp-558323,2.804,3.15248196,0.0100344334722164,"{38: 1, 83: 2, 5: 2, 8: 7}","[5, 8, 38, 83]",5287381832,Sr1Bi2B2O7
Bi2B2O7,mp-756526,0.0,3.3337728,0.0870963532575768,"{83: 2, 5: 2, 8: 7}","[5, 8, 83]",5287832,Bi2B2O7
AlB2Pb6(OF)7,mp-1229224,2.963,3.1862658,0.044999872699277,"{13: 1, 5: 2, 82: 6, 8: 7, 9: 7}","[5, 8, 9, 13, 82]",528797131826,Al1B2Pb6O7F7
Mg3Ti(BO4)2,mp-1222241,2.2988,2.88260726,0.0121932858928266,"{12: 3, 22: 1, 5: 2, 8: 8}","[5, 8, 12, 22]",5288123221,Mg3Ti1B2O8
MnAlB2(PbO4)2,mp-1221830,0.2911000000000001,4.26507281,0.0015288613392865,"{25: 1, 13: 1, 5: 2, 82: 2, 8: 8}","[5, 8, 13, 25, 82]",5288131251822,Mn1Al1B2Pb2O8
YMn2Al(BO4)2,mp-1216172,2.6991000000000005,3.33844981,0.0602519093809554,"{39: 1, 25: 2, 13: 1, 5: 2, 8: 8}","[5, 8, 13, 25, 39]",5288131252391,Y1Mn2Al1B2O8
AlFeB2(PbO4)2,mp-1229147,1.932,3.51172033,0.0045617445535706,"{13: 1, 26: 1, 5: 2, 82: 2, 8: 8}","[5, 8, 13, 26, 82]",5288131261822,Al1Fe1B2Pb2O8