formula,material_id,band_gap,efermi,energy_above_hull,comp_atoms,sorted_keys_comp_atoms,comp_number,new_formula
ThVB4,mp-1095627,0.0,7.94710453,0.005519591145841218,"{90: 1, 23: 1, 5: 4}","[5, 23, 90]",54231901,Th1V1B4
UVB4,mp-1191272,0.0,9.71983712,0.013313339583334027,"{92: 1, 23: 1, 5: 4}","[5, 23, 92]",54231921,U1V1B4
V3B4,mp-569270,0.0,8.12667364,0.0,"{23: 3, 5: 4}","[5, 23]",54233,V3B4
V3ReB4,mp-1216475,0.0,8.17629871,0.0032252528749978637,"{23: 3, 75: 1, 5: 4}","[5, 23, 75]",54233751,V3Re1B4
CrB4,mp-1078278,0.0,7.74642906,0.0,"{24: 1, 5: 4}","[5, 24]",54241,Cr1B4
Nb5Cr(B2Ru5)2,mp-1220514,0.0,7.38182954,0.00463408918749586,"{41: 5, 24: 1, 5: 4, 44: 10}","[5, 24, 41, 44]",542414154410,Nb5Cr1B4Ru10
CrB4Mo,mp-1226219,0.0,9.50857561,0.09566120500000075,"{24: 1, 5: 4, 42: 1}","[5, 24, 42]",54241421,Cr1B4Mo1
CeCrB4,mp-1191927,0.0,8.47455643,0.0014546262500001461,"{58: 1, 24: 1, 5: 4}","[5, 24, 58]",54241581,Ce1Cr1B4
PrCrB4,mp-1191933,0.3370999999999995,6.03640734,0.03180485249999343,"{59: 1, 24: 1, 5: 4}","[5, 24, 59]",54241591,Pr1Cr1B4
NdCrB4,mp-1190818,0.34860000000000024,6.00073181,0.009585434305554585,"{60: 1, 24: 1, 5: 4}","[5, 24, 60]",54241601,Nd1Cr1B4
SmCrB4,mp-1191882,0.3606999999999996,6.02069513,0.0,"{62: 1, 24: 1, 5: 4}","[5, 24, 62]",54241621,Sm1Cr1B4
GdCrB4,mp-1190957,0.25510000000000055,6.11881946,0.0,"{64: 1, 24: 1, 5: 4}","[5, 24, 64]",54241641,Gd1Cr1B4
TbCrB4,mp-1190703,0.37810000000000077,6.19705232,0.0,"{65: 1, 24: 1, 5: 4}","[5, 24, 65]",54241651,Tb1Cr1B4
DyCrB4,mp-1191253,0.3833000000000002,6.20928539,0.0,"{66: 1, 24: 1, 5: 4}","[5, 24, 66]",54241661,Dy1Cr1B4
HoCrB4,mp-1191543,0.16779999999999973,6.3915491,0.0,"{67: 1, 24: 1, 5: 4}","[5, 24, 67]",54241671,Ho1Cr1B4
ErCrB4,mp-985700,0.16109999999999935,6.50491949,0.0,"{68: 1, 24: 1, 5: 4}","[5, 24, 68]",54241681,Er1Cr1B4
TmCrB4,mp-1191371,0.19639999999999969,6.46897816,0.0,"{69: 1, 24: 1, 5: 4}","[5, 24, 69]",54241691,Tm1Cr1B4
LuCrB4,mp-1190663,0.20979999999999954,6.39931599,0.0,"{71: 1, 24: 1, 5: 4}","[5, 24, 71]",54241711,Lu1Cr1B4
TaCrB4,mp-1217958,0.0,8.77085012,0.018213930833333336,"{73: 1, 24: 1, 5: 4}","[5, 24, 73]",54241731,Ta1Cr1B4
CrRe3B4,mp-1226262,0.0,8.97331648,0.18705541206249876,"{24: 1, 75: 3, 5: 4}","[5, 24, 75]",54241753,Cr1Re3B4
ThCrB4,mp-22528,0.0,8.2941116,0.0,"{90: 1, 24: 1, 5: 4}","[5, 24, 90]",54241901,Th1Cr1B4
UCrB4,mp-1191170,0.0,10.0393045,0.0,"{92: 1, 24: 1, 5: 4}","[5, 24, 92]",54241921,U1Cr1B4
Cr3B4,mp-889,0.0,8.69074069,0.02892977904762084,"{24: 3, 5: 4}","[5, 24]",54243,Cr3B4
Cr3B4Mo3,mp-1226327,0.0,8.54652076,0.14677786706250018,"{24: 3, 5: 4, 42: 3}","[5, 24, 42]",54243423,Cr3B4Mo3
MnB4,mp-1078253,0.0,7.93951429,0.0,"{25: 1, 5: 4}","[5, 25]",54251,Mn1B4
MnB4Mo3,mp-1221732,0.0,8.84313372,0.04866433343750032,"{25: 1, 5: 4, 42: 3}","[5, 25, 42]",54251423,Mn1B4Mo3
CeMnB4,mp-1213778,0.0,8.45736156,0.0,"{58: 1, 25: 1, 5: 4}","[5, 25, 58]",54251581,Ce1Mn1B4
PrMnB4,mp-1191805,0.0,6.3582327,0.03866758833332895,"{59: 1, 25: 1, 5: 4}","[5, 25, 59]",54251591,Pr1Mn1B4
NdMnB4,mp-1191986,0.0,6.28140154,0.013225218888885948,"{60: 1, 25: 1, 5: 4}","[5, 25, 60]",54251601,Nd1Mn1B4
SmMnB4,mp-22785,0.0,6.13780893,0.004008629999992408,"{62: 1, 25: 1, 5: 4}","[5, 25, 62]",54251621,Sm1Mn1B4
GdMnB4,mp-505546,0.0,5.8269035,0.0,"{64: 1, 25: 1, 5: 4}","[5, 25, 64]",54251641,Gd1Mn1B4
TbMnB4,mp-1191670,0.0,6.48677262,0.0,"{65: 1, 25: 1, 5: 4}","[5, 25, 65]",54251651,Tb1Mn1B4
DyMnB4,mp-1190895,0.0,6.52858164,0.0,"{66: 1, 25: 1, 5: 4}","[5, 25, 66]",54251661,Dy1Mn1B4
HoMnB4,mp-978098,0.0,6.46139152,0.0,"{67: 1, 25: 1, 5: 4}","[5, 25, 67]",54251671,Ho1Mn1B4
ErMnB4,mp-1190787,0.0,6.57787564,0.0,"{68: 1, 25: 1, 5: 4}","[5, 25, 68]",54251681,Er1Mn1B4
TmMnB4,mp-1207706,0.0,6.44603774,0.0,"{69: 1, 25: 1, 5: 4}","[5, 25, 69]",54251691,Tm1Mn1B4
MnB4W3,mp-1221699,0.0,8.49677559,0.0,"{25: 1, 5: 4, 74: 3}","[5, 25, 74]",54251743,Mn1B4W3
UMnB4,mp-1190612,0.0,10.04982269,0.0,"{92: 1, 25: 1, 5: 4}","[5, 25, 92]",54251921,U1Mn1B4
Mn2B4Mo,mp-1078108,0.0,8.6121201,0.00807658714285786,"{25: 2, 5: 4, 42: 1}","[5, 25, 42]",54252421,Mn2B4Mo1
Ta(MnB2)2,mp-1077930,0.0,7.84100003,0.0,"{73: 1, 25: 2, 5: 4}","[5, 25, 73]",54252731,Ta1Mn2B4
Mn2B4W,mp-1077988,0.0,8.42192598,0.017351590714291376,"{25: 2, 5: 4, 74: 1}","[5, 25, 74]",54252741,Mn2B4W1
Mn3B4,mp-10118,0.0,7.84524644,0.018044119047617713,"{25: 3, 5: 4}","[5, 25]",54253,Mn3B4
Mn3B4Mo3,mp-1221842,0.0,8.51949,0.0141573482758659,"{25: 3, 5: 4, 42: 3}","[5, 25, 42]",54253423,Mn3B4Mo3
Mn3B4W,mp-1221797,0.0,7.65374853,0.008569488333339592,"{25: 3, 5: 4, 74: 1}","[5, 25, 74]",54253741,Mn3B4W1
Ce3Co11B4,mp-13765,0.0,7.31247059,0.009208174861114138,"{58: 3, 27: 11, 5: 4}","[5, 27, 58]",542711583,Ce3Co11B4
Pr3Co11B4,mp-5457,0.0,5.31189954,0.028043287036291886,"{59: 3, 27: 11, 5: 4}","[5, 27, 59]",542711593,Pr3Co11B4
Nd3Co11B4,mp-5568,0.0,5.23720979,0.019940596627908036,"{60: 3, 27: 11, 5: 4}","[5, 27, 60]",542711603,Nd3Co11B4
Sm3Co11B4,mp-1189913,0.0,5.4120705,0.01144637245915714,"{62: 3, 27: 11, 5: 4}","[5, 27, 62]",542711623,Sm3Co11B4
Gd3Co11B4,mp-605854,0.0,5.1071028,0.0,"{64: 3, 27: 11, 5: 4}","[5, 27, 64]",542711643,Gd3Co11B4
Tb3Co11B4,mp-1188805,0.0,5.32283491,0.003917288715275191,"{65: 3, 27: 11, 5: 4}","[5, 27, 65]",542711653,Tb3Co11B4
Dy3Co11B4,mp-30907,0.0,5.18208566,0.004650330909088396,"{66: 3, 27: 11, 5: 4}","[5, 27, 66]",542711663,Dy3Co11B4
Ho3Co11B4,mp-1189174,0.0,5.13283673,0.007567720808078882,"{67: 3, 27: 11, 5: 4}","[5, 27, 67]",542711673,Ho3Co11B4
Er3Co11B4,mp-1181434,0.0,5.14803268,0.0089793031144767,"{68: 3, 27: 11, 5: 4}","[5, 27, 68]",542711683,Er3Co11B4
Tm3Co11B4,mp-1188803,0.0,5.25960746,0.009755416923077576,"{69: 3, 27: 11, 5: 4}","[5, 27, 69]",542711693,Tm3Co11B4
Lu3Co11B4,mp-1188111,0.0,5.08720006,0.014185807749993451,"{71: 3, 27: 11, 5: 4}","[5, 27, 71]",542711713,Lu3Co11B4
GdCoB4,mp-21230,0.0,5.93857916,0.0,"{64: 1, 27: 1, 5: 4}","[5, 27, 64]",54271641,Gd1Co1B4
TbCoB4,mp-1208336,0.0,6.33906943,0.0,"{65: 1, 27: 1, 5: 4}","[5, 27, 65]",54271651,Tb1Co1B4
DyCoB4,mp-1212868,0.0,6.33113944,0.0,"{66: 1, 27: 1, 5: 4}","[5, 27, 66]",54271661,Dy1Co1B4
HoCoB4,mp-1212117,0.0,6.32290634,0.0,"{67: 1, 27: 1, 5: 4}","[5, 27, 67]",54271671,Ho1Co1B4
ErCoB4,mp-1213100,0.0,6.31946111,0.0,"{68: 1, 27: 1, 5: 4}","[5, 27, 68]",54271681,Er1Co1B4
TmCoB4,mp-1207976,0.0,6.34971701,0.0,"{69: 1, 27: 1, 5: 4}","[5, 27, 69]",54271691,Tm1Co1B4
LuCoB4,mp-1210846,0.0,6.43264807,0.0,"{71: 1, 27: 1, 5: 4}","[5, 27, 71]",54271711,Lu1Co1B4
UCoB4,mp-1191070,0.0,10.02188311,0.0,"{92: 1, 27: 1, 5: 4}","[5, 27, 92]",54271921,U1Co1B4
Nd5Co21B4,mp-505807,0.0,4.84884669,0.02358424267441528,"{60: 5, 27: 21, 5: 4}","[5, 27, 60]",542721605,Nd5Co21B4
Co2B4Mo,mp-10055,0.0,8.64482911,0.012413880000002209,"{27: 2, 5: 4, 42: 1}","[5, 27, 42]",54272421,Co2B4Mo1
ErCo2(B2Rh)2,mp-1225579,0.0,6.4992834,0.09265279155554396,"{68: 1, 27: 2, 5: 4, 45: 2}","[5, 27, 45, 68]",54272452681,Er1Co2B4Rh2
Co2Re5B4,mp-1226558,0.0,8.22250864,0.06402720490909175,"{27: 2, 75: 5, 5: 4}","[5, 27, 75]",54272755,Co2Re5B4
Co3ReB4,mp-1226435,0.0,7.72955242,0.0829476841249992,"{27: 3, 75: 1, 5: 4}","[5, 27, 75]",54273751,Co3Re1B4
Co3(ReB)4,mp-1213771,0.0,7.97668512,0.05617830659091183,"{27: 3, 75: 4, 5: 4}","[5, 27, 75]",54273754,Co3Re4B4
La(CoB)4,mp-1189727,0.0,7.47861555,0.01284958888889065,"{57: 1, 27: 4, 5: 4}","[5, 27, 57]",54274571,La1Co4B4
Ce(CoB)4,mp-22165,0.0,7.72341598,0.0041185368888845275,"{58: 1, 27: 4, 5: 4}","[5, 27, 58]",54274581,Ce1Co4B4
Pr(CoB)4,mp-975663,0.0,6.03022983,0.0,"{59: 1, 27: 4, 5: 4}","[5, 27, 59]",54274591,Pr1Co4B4
Nd(CoB)4,mp-581471,0.0,5.88505956,0.0,"{60: 1, 27: 4, 5: 4}","[5, 27, 60]",54274601,Nd1Co4B4
Sm(CoB)4,mp-1105839,0.0,5.85114942,0.0,"{62: 1, 27: 4, 5: 4}","[5, 27, 62]",54274621,Sm1Co4B4
Gd(CoB)4,mp-1181496,0.0,6.20359726,0.0,"{64: 1, 27: 4, 5: 4}","[5, 27, 64]",54274641,Gd1Co4B4
Tb(CoB)4,mp-1106036,0.0,6.35121326,0.0,"{65: 1, 27: 4, 5: 4}","[5, 27, 65]",54274651,Tb1Co4B4
Dy(CoB)4,mp-1189595,0.0,6.28326675,0.0,"{66: 1, 27: 4, 5: 4}","[5, 27, 66]",54274661,Dy1Co4B4
Ho(CoB)4,mp-1188650,0.0,6.21756145,0.0,"{67: 1, 27: 4, 5: 4}","[5, 27, 67]",54274671,Ho1Co4B4
Er(CoB)4,mp-1189246,0.0,6.20302296,0.0,"{68: 1, 27: 4, 5: 4}","[5, 27, 68]",54274681,Er1Co4B4
Tm(CoB)4,mp-1190291,0.0,6.16830657,0.0,"{69: 1, 27: 4, 5: 4}","[5, 27, 69]",54274691,Tm1Co4B4
Lu(CoB)4,mp-1189538,0.0,6.23130843,0.0,"{71: 1, 27: 4, 5: 4}","[5, 27, 71]",54274711,Lu1Co4B4
U(CoB)4,mp-505343,0.0,8.71026895,0.026119330370371507,"{92: 1, 27: 4, 5: 4}","[5, 27, 92]",54274921,U1Co4B4
Zn5(BRh2)4,mp-569759,0.0,5.92016628,0.005522366764709297,"{30: 5, 5: 4, 45: 8}","[5, 30, 45]",54305458,Zn5B4Rh8
Ga3B4Pt9,mp-28869,0.0,6.90361631,0.0,"{31: 3, 5: 4, 78: 9}","[5, 31, 78]",54313789,Ga3B4Pt9
Tb16B4Br23,mp-29954,0.0,3.07971273,0.0,"{65: 16, 5: 4, 35: 23}","[5, 35, 65]",5435236516,Tb16B4Br23
La4B4Br5,mp-510357,0.0,5.18574308,0.0,"{57: 4, 5: 4, 35: 5}","[5, 35, 57]",54355574,La4B4Br5
Sr(B2Pt3)2,mp-1218890,0.0,5.06942178,0.0,"{38: 1, 5: 4, 78: 6}","[5, 38, 78]",54381786,Sr1B4Pt6
Sr2B4Rh5,mp-8896,0.0,5.49078969,0.0015308172727159786,"{38: 2, 5: 4, 45: 5}","[5, 38, 45]",54382455,Sr2B4Rh5
ZrNbB4,mp-1215211,0.0,7.66473996,0.0,"{40: 1, 41: 1, 5: 4}","[5, 40, 41]",54401411,Zr1Nb1B4
ZrB4Mo,mp-1215250,0.0,8.62552587,0.08648603916666531,"{40: 1, 5: 4, 42: 1}","[5, 40, 42]",54401421,Zr1B4Mo1
HfZrB4,mp-1224184,0.0,7.60098767,0.0028658383333315385,"{72: 1, 40: 1, 5: 4}","[5, 40, 72]",54401721,Hf1Zr1B4
ZrTaB4,mp-1215209,0.0,8.08682465,0.0,"{40: 1, 73: 1, 5: 4}","[5, 40, 73]",54401731,Zr1Ta1B4
ZrB4Ir3,mp-1190085,0.0,8.79295452,0.0,"{40: 1, 5: 4, 77: 3}","[5, 40, 77]",54401773,Zr1B4Ir3
NbB4Mo3,mp-1220383,0.0,8.76437486,0.009737016562500145,"{41: 1, 5: 4, 42: 3}","[5, 41, 42]",54411423,Nb1B4Mo3
HfNbB4,mp-38818,0.0,8.04008519,0.0,"{72: 1, 41: 1, 5: 4}","[5, 41, 72]",54411721,Hf1Nb1B4
Nb3B4,mp-10255,0.0,7.46395444,0.0,"{41: 3, 5: 4}","[5, 41]",54413,Nb3B4
Nb3B4W3,mp-1220641,0.0,7.41926712,0.11408693299999584,"{41: 3, 5: 4, 74: 3}","[5, 41, 74]",54413743,Nb3B4W3
Nb3Re3B4,mp-1220688,0.0,6.97182352,0.1966645675000045,"{41: 3, 75: 3, 5: 4}","[5, 41, 75]",54413753,Nb3Re3B4
B4Mo,mp-1228687,0.0,7.22213635,0.2579644106666681,"{5: 4, 42: 1}","[5, 42]",54421,B4Mo1
B4MoRu2,mp-1228655,0.0,9.38595034,0.07669115785714453,"{5: 4, 42: 1, 44: 2}","[5, 42, 44]",54421442,B4Mo1Ru2
GdB4Mo,mp-1190272,0.0,6.63125897,0.0,"{64: 1, 5: 4, 42: 1}","[5, 42, 64]",54421641,Gd1B4Mo1
TbB4Mo,mp-1191349,0.5646000000000004,6.48340652,0.0,"{65: 1, 5: 4, 42: 1}","[5, 42, 65]",54421651,Tb1B4Mo1
DyB4Mo,mp-864993,0.2812999999999999,6.87944532,0.0,"{66: 1, 5: 4, 42: 1}","[5, 42, 66]",54421661,Dy1B4Mo1
HoB4Mo,mp-1191115,0.5762,6.45062632,0.0,"{67: 1, 5: 4, 42: 1}","[5, 42, 67]",54421671,Ho1B4Mo1
ErB4Mo,mp-1190816,0.5880999999999998,6.48256778,0.0,"{68: 1, 5: 4, 42: 1}","[5, 42, 68]",54421681,Er1B4Mo1
B4MoIr,mp-1228634,0.0,8.24691734,0.03525742763888928,"{5: 4, 42: 1, 77: 1}","[5, 42, 77]",54421771,B4Mo1Ir1
ThB4Mo,mp-5557,0.0,8.53291261,0.0,"{90: 1, 5: 4, 42: 1}","[5, 42, 90]",54421901,Th1B4Mo1
UB4Mo,mp-1103171,0.0,10.05214814,0.015616502673603705,"{92: 1, 5: 4, 42: 1}","[5, 42, 92]",54421921,U1B4Mo1
PuB4Mo,mp-1190919,0.0,10.05588472,0.0,"{94: 1, 5: 4, 42: 1}","[5, 42, 94]",54421941,Pu1B4Mo1
TcB4,mp-1105617,0.0,9.28272138,0.6680655954999963,"{43: 1, 5: 4}","[5, 43]",54431,Tc1B4
PuTcB4,mp-1191553,0.0,10.24047,0.0,"{94: 1, 43: 1, 5: 4}","[5, 43, 94]",54431941,Pu1Tc1B4
EuB4Ru,mp-1191457,0.0,6.19426011,0.0,"{63: 1, 5: 4, 44: 1}","[5, 44, 63]",54441631,Eu1B4Ru1
GdB4Ru,mp-1192291,0.0,6.48489905,0.0,"{64: 1, 5: 4, 44: 1}","[5, 44, 64]",54441641,Gd1B4Ru1
TbB4Ru,mp-867230,0.0,7.04280834,0.0,"{65: 1, 5: 4, 44: 1}","[5, 44, 65]",54441651,Tb1B4Ru1
DyB4Ru,mp-984836,0.0,6.9524076,0.0,"{66: 1, 5: 4, 44: 1}","[5, 44, 66]",54441661,Dy1B4Ru1
HoB4Ru,mp-974392,0.0,6.91925498,0.0,"{67: 1, 5: 4, 44: 1}","[5, 44, 67]",54441671,Ho1B4Ru1
ErB4Ru,mp-1191359,0.0,6.94826181,0.0,"{68: 1, 5: 4, 44: 1}","[5, 44, 68]",54441681,Er1B4Ru1
TmB4Ru,mp-971813,0.0,6.95032465,0.0,"{69: 1, 5: 4, 44: 1}","[5, 44, 69]",54441691,Tm1B4Ru1
LuB4Ru,mp-1191771,0.0,6.95280583,0.0,"{71: 1, 5: 4, 44: 1}","[5, 44, 71]",54441711,Lu1B4Ru1
UB4Ru,mp-1103253,0.0,10.48855247,0.0,"{92: 1, 5: 4, 44: 1}","[5, 44, 92]",54441921,U1B4Ru1
PuB4Ru,mp-1191620,0.0,10.44283583,0.0,"{94: 1, 5: 4, 44: 1}","[5, 44, 94]",54441941,Pu1B4Ru1
ErLu(B2Ru)2,mp-1225723,0.0,6.01782669,0.000725370624999222,"{68: 1, 71: 1, 5: 4, 44: 2}","[5, 44, 68, 71]",54442681711,Er1Lu1B4Ru2
La(BRu)4,mp-7347,0.0,7.88909713,0.0,"{57: 1, 5: 4, 44: 4}","[5, 44, 57]",54444571,La1B4Ru4
Ce(BRu)4,mp-1201565,0.0,8.20492162,0.0,"{58: 1, 5: 4, 44: 4}","[5, 44, 58]",54444581,Ce1B4Ru4
Pr(BRu)4,mp-1200756,0.0,6.99614549,0.0,"{59: 1, 5: 4, 44: 4}","[5, 44, 59]",54444591,Pr1B4Ru4
Nd(BRu)4,mp-1198170,0.0,6.93836502,0.0,"{60: 1, 5: 4, 44: 4}","[5, 44, 60]",54444601,Nd1B4Ru4
Sm(BRu)4,mp-1199012,0.0,6.84862974,0.0,"{62: 1, 5: 4, 44: 4}","[5, 44, 62]",54444621,Sm1B4Ru4
Eu(BRu)4,mp-1199986,0.0,6.73122624,0.0,"{63: 1, 5: 4, 44: 4}","[5, 44, 63]",54444631,Eu1B4Ru4
Tb(BRu)4,mp-1199943,0.0,7.00318067,0.0,"{65: 1, 5: 4, 44: 4}","[5, 44, 65]",54444651,Tb1B4Ru4
Dy(BRu)4,mp-1202990,0.0,6.91933107,0.0,"{66: 1, 5: 4, 44: 4}","[5, 44, 66]",54444661,Dy1B4Ru4
Ho(BRu)4,mp-1204787,0.0,6.91856826,0.0,"{67: 1, 5: 4, 44: 4}","[5, 44, 67]",54444671,Ho1B4Ru4
Er(BRu)4,mp-1196250,0.0,6.95108072,0.0,"{68: 1, 5: 4, 44: 4}","[5, 44, 68]",54444681,Er1B4Ru4
Tm(BRu)4,mp-1197448,0.0,6.87660248,0.0,"{69: 1, 5: 4, 44: 4}","[5, 44, 69]",54444691,Tm1B4Ru4
Lu(BRu)4,mp-568184,0.0,6.9111807,0.0,"{71: 1, 5: 4, 44: 4}","[5, 44, 71]",54444711,Lu1B4Ru4
Th(BRu)4,mp-1203781,0.0,8.10391182,0.0,"{90: 1, 5: 4, 44: 4}","[5, 44, 90]",54444901,Th1B4Ru4
U(BRu)4,mp-15355,0.0,9.45203017,0.0,"{92: 1, 5: 4, 44: 4}","[5, 44, 92]",54444921,U1B4Ru4
Pu(BRu)4,mp-1202529,0.0,9.58091615,0.1558287588888838,"{94: 1, 5: 4, 44: 4}","[5, 44, 94]",54444941,Pu1B4Ru4
La5B4Rh15,mp-1223216,0.0,7.4597717,0.03539527770833484,"{57: 5, 5: 4, 45: 15}","[5, 45, 57]",544515575,La5B4Rh15
Sm5B4Rh15,mp-1219166,0.0,5.41477733,0.02187692125000229,"{62: 5, 5: 4, 45: 15}","[5, 45, 62]",544515625,Sm5B4Rh15
Lu5B4Rh15,mp-1222784,0.0,5.3515847,0.00218332875000371,"{71: 5, 5: 4, 45: 15}","[5, 45, 71]",544515715,Lu5B4Rh15
U5B4Rh15,mp-1216968,0.0,8.70982457,0.04259409398809311,"{92: 5, 5: 4, 45: 15}","[5, 45, 92]",544515925,U5B4Rh15
DyB4Rh,mp-1212866,0.0,6.82245889,0.0,"{66: 1, 5: 4, 45: 1}","[5, 45, 66]",54451661,Dy1B4Rh1
HoB4Rh,mp-1212116,0.0,6.77458803,0.0,"{67: 1, 5: 4, 45: 1}","[5, 45, 67]",54451671,Ho1B4Rh1
ErB4Rh,mp-13342,0.0,6.89298461,0.0,"{68: 1, 5: 4, 45: 1}","[5, 45, 68]",54451681,Er1B4Rh1
TmB4Rh,mp-13343,0.0,6.88721225,0.0,"{69: 1, 5: 4, 45: 1}","[5, 45, 69]",54451691,Tm1B4Rh1
LuB4Rh,mp-1210888,0.0,6.85786726,0.0,"{71: 1, 5: 4, 45: 1}","[5, 45, 71]",54451711,Lu1B4Rh1
DyB4(IrRh)2,mp-1225314,0.0,7.5505995,0.021795007777794417,"{66: 1, 5: 4, 77: 2, 45: 2}","[5, 45, 66, 77]",54452661772,Dy1B4Ir2Rh2
ErB4(IrRh)2,mp-1225576,0.0,7.54522839,0.021803928580253817,"{68: 1, 5: 4, 77: 2, 45: 2}","[5, 45, 68, 77]",54452681772,Er1B4Ir2Rh2
Ce2B4(IrRh)3,mp-1226873,0.0,8.82770752,0.0013558124999910603,"{58: 2, 5: 4, 77: 3, 45: 3}","[5, 45, 58, 77]",54453582773,Ce2B4Ir3Rh3
Ce(BRh)4,mp-1106048,0.0,8.10069639,0.02399187106060907,"{58: 1, 5: 4, 45: 4}","[5, 45, 58]",54454581,Ce1B4Rh4
Pr(BRh)4,mp-1179918,0.0,6.76312217,0.008109044285710354,"{59: 1, 5: 4, 45: 4}","[5, 45, 59]",54454591,Pr1B4Rh4
Nd(BRh)4,mp-973480,0.0,6.77580467,0.0032387169047574105,"{60: 1, 5: 4, 45: 4}","[5, 45, 60]",54454601,Nd1B4Rh4
Sm(BRh)4,mp-978569,0.0,6.66108027,0.0,"{62: 1, 5: 4, 45: 4}","[5, 45, 62]",54454621,Sm1B4Rh4
Gd(BRh)4,mp-1106078,0.0,6.86435757,0.0023992313888854255,"{64: 1, 5: 4, 45: 4}","[5, 45, 64]",54454641,Gd1B4Rh4
Tb(BRh)4,mp-1178967,0.0,6.82059941,0.01137362797980579,"{65: 1, 5: 4, 45: 4}","[5, 45, 65]",54454651,Tb1B4Rh4
Dy(BRh)4,mp-1105740,0.0,6.82422751,0.013317357962965737,"{66: 1, 5: 4, 45: 4}","[5, 45, 66]",54454661,Dy1B4Rh4
Ho(BRh)4,mp-1189784,0.0,6.83663612,0.013033560000000222,"{67: 1, 5: 4, 45: 4}","[5, 45, 67]",54454671,Ho1B4Rh4
Er(BRh)4,mp-1200942,0.0,6.90962433,0.011142580185188322,"{68: 1, 5: 4, 45: 4}","[5, 45, 68]",54454681,Er1B4Rh4
Tm(BRh)4,mp-1204414,0.0,6.91028559,0.011561841000001571,"{69: 1, 5: 4, 45: 4}","[5, 45, 69]",54454691,Tm1B4Rh4
Lu(BRh)4,mp-28001,0.0,6.9053252,0.02016124996296398,"{71: 1, 5: 4, 45: 4}","[5, 45, 71]",54454711,Lu1B4Rh4
Th(BRh)4,mp-1106347,0.0,7.86765682,0.02533943500000646,"{90: 1, 5: 4, 45: 4}","[5, 45, 90]",54454901,Th1B4Rh4
B4Rh5,mp-567926,0.0,6.66563718,0.0,"{5: 4, 45: 5}","[5, 45]",54455,B4Rh5
La2B4Rh5,mp-14696,0.0,8.25429542,0.0,"{57: 2, 5: 4, 45: 5}","[5, 45, 57]",54455572,La2B4Rh5
Eu2B4Rh5,mp-570529,0.0,5.73694285,0.0,"{63: 2, 5: 4, 45: 5}","[5, 45, 63]",54455632,Eu2B4Rh5
LaCe(B2Rh3)2,mp-1223015,0.0,8.19387217,0.026903630833315262,"{57: 1, 58: 1, 5: 4, 45: 6}","[5, 45, 57, 58]",54456571581,La1Ce1B4Rh6
LaB4Rh7,mp-1223027,0.0,7.43304614,0.1967603085416636,"{57: 1, 5: 4, 45: 7}","[5, 45, 57]",54457571,La1B4Rh7
NdB4Rh7,mp-1220226,0.0,6.40789015,0.16850459312499488,"{60: 1, 5: 4, 45: 7}","[5, 45, 60]",54457601,Nd1B4Rh7
SmB4Rh7,mp-1219077,0.0,6.35055863,0.17402284812499236,"{62: 1, 5: 4, 45: 7}","[5, 45, 62]",54457621,Sm1B4Rh7
DyB4Rh7,mp-1225334,0.0,6.3961734,0.19040303145832915,"{66: 1, 5: 4, 45: 7}","[5, 45, 66]",54457661,Dy1B4Rh7
HoB4Rh7,mp-1223938,0.0,6.26792304,0.19368084229166183,"{67: 1, 5: 4, 45: 7}","[5, 45, 67]",54457671,Ho1B4Rh7
ErB4Rh7,mp-1225583,0.0,6.28563105,0.19679673729166236,"{68: 1, 5: 4, 45: 7}","[5, 45, 68]",54457681,Er1B4Rh7
In5B4Ir9,mp-570692,0.0,8.25499847,0.0,"{49: 5, 5: 4, 77: 9}","[5, 49, 77]",54495779,In5B4Ir9
La4B4I5,mp-1223076,0.0,5.6863201,0.0,"{57: 4, 5: 4, 53: 5}","[5, 53, 57]",54535574,La4B4I5
LaB4,mp-7283,0.0,8.38943966,0.0,"{57: 1, 5: 4}","[5, 57]",54571,La1B4
La(ReB)4,mp-1106361,0.0,8.19409969,0.21268745092593022,"{57: 1, 75: 4, 5: 4}","[5, 57, 75]",54571754,La1Re4B4
LaB4(IrOs)2,mp-1223036,0.0,8.62957708,0.0,"{57: 1, 5: 4, 77: 2, 76: 2}","[5, 57, 76, 77]",54571762772,La1B4Ir2Os2
La(BOs)4,mp-1188221,0.0,8.11030039,0.0,"{57: 1, 5: 4, 76: 4}","[5, 57, 76]",54571764,La1B4Os4
La(BIr)4,mp-9596,0.0,8.85527256,0.0,"{57: 1, 5: 4, 77: 4}","[5, 57, 77]",54571774,La1B4Ir4
CeB4,mp-1974,0.0,8.43771437,0.0,"{58: 1, 5: 4}","[5, 58]",54581,Ce1B4
CeReB4,mp-22361,0.0,8.70351381,0.0,"{58: 1, 75: 1, 5: 4}","[5, 58, 75]",54581751,Ce1Re1B4
CeB4(IrOs)2,mp-1226711,0.0,8.54673675,0.005247343333318,"{58: 1, 5: 4, 77: 2, 76: 2}","[5, 58, 76, 77]",54581762772,Ce1B4Ir2Os2
Ce(BOs)4,mp-1188930,0.22689999999999966,8.07229822,0.0,"{58: 1, 5: 4, 76: 4}","[5, 58, 76]",54581764,Ce1B4Os4
Ce(BIr)4,mp-1190481,0.0,8.57203814,0.0,"{58: 1, 5: 4, 77: 4}","[5, 58, 77]",54581774,Ce1B4Ir4
PrB4,mp-12569,0.0,5.84089168,0.0,"{59: 1, 5: 4}","[5, 59]",54591,Pr1B4
PrB4(IrOs)2,mp-1219765,0.0,7.35760457,0.023697087222213753,"{59: 1, 5: 4, 77: 2, 76: 2}","[5, 59, 76, 77]",54591762772,Pr1B4Ir2Os2
Pr(BOs)4,mp-1188588,0.0,6.87743882,0.0,"{59: 1, 5: 4, 76: 4}","[5, 59, 76]",54591764,Pr1B4Os4
Pr(BIr)4,mp-1189206,0.0,7.71126448,0.0,"{59: 1, 5: 4, 77: 4}","[5, 59, 77]",54591774,Pr1B4Ir4
NdB4,mp-1632,0.0,5.79430285,0.0,"{60: 1, 5: 4}","[5, 60]",54601,Nd1B4
Nd(BOs)4,mp-15323,0.0,6.82934698,0.0,"{60: 1, 5: 4, 76: 4}","[5, 60, 76]",54601764,Nd1B4Os4
Nd(BIr)4,mp-9584,0.0,7.61344691,0.0,"{60: 1, 5: 4, 77: 4}","[5, 60, 77]",54601774,Nd1B4Ir4
SmB4,mp-8546,0.0,5.63312143,0.0,"{62: 1, 5: 4}","[5, 62]",54621,Sm1B4
SmReB4,mp-1208888,0.0,6.86125553,0.0,"{62: 1, 75: 1, 5: 4}","[5, 62, 75]",54621751,Sm1Re1B4
SmB4(IrOs)2,mp-1219112,0.0,7.31199154,0.024086556666661707,"{62: 1, 5: 4, 77: 2, 76: 2}","[5, 62, 76, 77]",54621762772,Sm1B4Ir2Os2
Sm(BOs)4,mp-1189226,0.0,6.75659356,0.0,"{62: 1, 5: 4, 76: 4}","[5, 62, 76]",54621764,Sm1B4Os4
Sm(BIr)4,mp-1188143,0.0,7.62407912,0.0,"{62: 1, 5: 4, 77: 4}","[5, 62, 77]",54621774,Sm1B4Ir4
Eu(BOs)4,mp-1189309,0.0,6.53776269,0.0,"{63: 1, 5: 4, 76: 4}","[5, 63, 76]",54631764,Eu1B4Os4
Eu(BIr)4,mp-20578,0.0,7.2684892,0.0,"{63: 1, 5: 4, 77: 4}","[5, 63, 77]",54631774,Eu1B4Ir4
GdB4,mp-1105563,0.0,5.70322629,0.0,"{64: 1, 5: 4}","[5, 64]",54641,Gd1B4