formula,material_id,band_gap,efermi,energy_above_hull,comp_atoms,sorted_keys_comp_atoms,comp_number,new_formula
Ba4Ge2Te5Se3,mp-1228102,0.7326000000000001,3.41325125,0.012911809866071877,"{56: 4, 32: 2, 52: 5, 34: 3}","[32, 34, 52, 56]",322343525564,Ba4Ge2Te5Se3
Ba2Ge2Se5,mp-18335,1.2918,1.84797585,0.0,"{56: 2, 32: 2, 34: 5}","[32, 34, 56]",322345562,Ba2Ge2Se5
Ba4Ge2Pb(Se4Br)2,mp-1228759,1.3865,1.79607507,0.014600925625003036,"{56: 4, 32: 2, 82: 1, 34: 8, 35: 2}","[32, 34, 35, 56, 82]",322348352564821,Ba4Ge2Pb1Se8Br2
Ba4Ge23,mp-1214616,0.0,4.93667452,0.05638644611111143,"{56: 4, 32: 23}","[32, 56]",3223564,Ba4Ge23
Ba(GeRu)2,mp-30050,0.0,4.66862635,0.0,"{56: 1, 32: 2, 44: 2}","[32, 44, 56]",322442561,Ba1Ge2Ru2
Ba(GeRh)2,mp-10698,0.0,4.98176956,0.0,"{56: 1, 32: 2, 45: 2}","[32, 45, 56]",322452561,Ba1Ge2Rh2
Ba(AgGe)2,mp-13910,0.0,3.81844867,0.0,"{56: 1, 47: 2, 32: 2}","[32, 47, 56]",322472561,Ba1Ag2Ge2
Ba(CdGe)2,mp-1069712,0.0,3.72953508,0.0,"{56: 1, 48: 2, 32: 2}","[32, 48, 56]",322482561,Ba1Cd2Ge2
Ba2Ge2Te5,mp-17885,0.6240999999999999,3.45600221,0.0,"{56: 2, 32: 2, 52: 5}","[32, 52, 56]",322525562,Ba2Ge2Te5
Ba6Ge25,mp-569965,0.08230000000000004,4.864015,0.023061469758064668,"{56: 6, 32: 25}","[32, 56]",3225566,Ba6Ge25
BaGe2,mp-2139,0.5255000000000001,2.2649389,0.0,"{56: 1, 32: 2}","[32, 56]",322561,Ba1Ge2
Ba(GeAu)2,mp-1228646,0.0,4.38120415,0.0,"{56: 1, 32: 2, 79: 2}","[32, 56, 79]",322561792,Ba1Ge2Au2
BaGe2Au5,mp-1198185,0.0,4.75300006,0.0,"{56: 1, 32: 2, 79: 5}","[32, 56, 79]",322561795,Ba1Ge2Au5
Ba4LaGe3SbSe13,mp-683936,0.9685999999999999,2.48235739,0.0,"{56: 4, 57: 1, 32: 3, 51: 1, 34: 13}","[32, 34, 51, 56, 57]",3233413511564571,Ba4La1Ge3Sb1Se13
Ba4Li2(CdAs2)3,mp-1192557,0.3498999999999999,2.64837264,0.0,"{56: 4, 3: 2, 48: 3, 33: 6}","[3, 33, 48, 56]",32336483564,Ba4Li2Cd3As6
BaGe3Rh,mp-1070247,0.0,5.35890516,0.0,"{56: 1, 32: 3, 45: 1}","[32, 45, 56]",323451561,Ba1Ge3Rh1
BaGe3Pd,mp-1068447,0.0,5.28642848,0.0,"{56: 1, 32: 3, 46: 1}","[32, 46, 56]",323461561,Ba1Ge3Pd1
BaGe3,mp-1078234,0.0,4.55684933,0.03801794718749907,"{56: 1, 32: 3}","[32, 56]",323561,Ba1Ge3
BaGe3Ir,mp-1069708,0.0,5.63076014,0.0,"{56: 1, 32: 3, 77: 1}","[32, 56, 77]",323561771,Ba1Ge3Ir1
BaGe3Pt,mp-22346,0.0,5.68941123,0.0,"{56: 1, 32: 3, 78: 1}","[32, 56, 78]",323561781,Ba1Ge3Pt1
Ba2Ge3,mp-1228488,0.0,3.19040286,0.09898546450000101,"{56: 2, 32: 3}","[32, 56]",323562,Ba2Ge3
Ba5Ge3,mp-21538,0.0,2.4952657,0.017004229062497878,"{56: 5, 32: 3}","[32, 56]",323565,Ba5Ge3
Ba7Ge39,mp-1194759,0.0,4.98745799,0.049776782309782774,"{56: 7, 32: 39}","[32, 56]",3239567,Ba7Ge39
Ba8Ge43Pd3,mp-1228873,0.0,5.15854486,0.026444827384258573,"{56: 8, 32: 43, 46: 3}","[32, 46, 56]",3243463568,Ba8Ge43Pd3
Ba8Ge43,mp-1199827,0.022999999999999687,3.53927706,0.03219437318627438,"{56: 8, 32: 43}","[32, 56]",3243568,Ba8Ge43
Ba2Ge4Pd5,mp-1191488,0.0,4.59795452,0.0,"{56: 2, 32: 4, 46: 5}","[32, 46, 56]",324465562,Ba2Ge4Pd5
Ba3Ge4,mp-9858,0.0,2.77316101,0.0,"{56: 3, 32: 4}","[32, 56]",324563,Ba3Ge4
BaLi2Sn,mp-1096018,0.2913000000000001,-2.455554,1.6066370873382383,"{56: 1, 3: 2, 50: 1}","[3, 50, 56]",32501561,Ba1Li2Sn1
BaGe5,mp-1095284,0.0,5.07913905,0.05730654062500218,"{56: 1, 32: 5}","[32, 56]",325561,Ba1Ge5
Ba2Ge5Ir4,mp-1190188,0.2012999999999998,6.07488466,0.0,"{56: 2, 32: 5, 77: 4}","[32, 56, 77]",325562774,Ba2Ge5Ir4
Ba3Ge5,mp-1188954,0.0,4.06881254,0.0,"{56: 3, 32: 5}","[32, 56]",325563,Ba3Ge5
BaLi2Tl,mp-1096003,0.0,-1.9952749,1.3187132991666677,"{56: 1, 3: 2, 81: 1}","[3, 56, 81]",32561811,Ba1Li2Tl1
BaLi2Pb,mp-1095724,0.2702,-2.25748341,1.5438030100833324,"{56: 1, 3: 2, 82: 1}","[3, 56, 82]",32561821,Ba1Li2Pb1
BaGe6,mp-1103747,0.0,4.93460695,0.06050131696428629,"{56: 1, 32: 6}","[32, 56]",326561,Ba1Ge6
Ba7Ge6,mp-1204965,0.0,2.98723035,0.012294160384614727,"{56: 7, 32: 6}","[32, 56]",326567,Ba7Ge6
Ba38Na58Li26N,mp-570185,0.023699999999999943,0.97870231,0.011304397025044377,"{56: 38, 11: 58, 3: 26, 7: 1}","[3, 7, 11, 56]",3267111585638,Ba38Na58Li26N1
BaLi2Ti6O14,mp-558083,2.8907999999999996,4.35233346,0.0,"{56: 1, 3: 2, 22: 6, 8: 14}","[3, 8, 22, 56]",32814226561,Ba1Li2Ti6O14
Ba6Li2Si4ClO15,mp-1198788,0.0,1.70198969,0.051450407751119975,"{56: 6, 3: 2, 14: 4, 17: 1, 8: 15}","[3, 8, 14, 17, 56]",32815144171566,Ba6Li2Si4Cl1O15
Ba5Li2(TeO5)3,mp-1228258,1.2111999999999998,3.0640065,0.0,"{56: 5, 3: 2, 52: 3, 8: 15}","[3, 8, 52, 56]",32815523565,Ba5Li2Te3O15
Ba5Li2(WO5)3,mp-557816,2.2925000000000004,2.28832288,0.0,"{56: 5, 3: 2, 74: 3, 8: 15}","[3, 8, 56, 74]",32815565743,Ba5Li2W3O15
Ba5Li2U3O15,mp-1228411,1.2725,2.92084727,0.0,"{56: 5, 3: 2, 92: 3, 8: 15}","[3, 8, 56, 92]",32815565923,Ba5Li2U3O15
Ba10Li2Bi4O21,mp-774832,0.0,2.50217424,0.0,"{56: 10, 3: 2, 83: 4, 8: 21}","[3, 8, 56, 83]",328215610834,Ba10Li2Bi4O21
Ba3Li2Mo4P6(ClO14)2,mp-699932,2.1138,2.2837711,0.008504013833365853,"{56: 3, 3: 2, 42: 4, 15: 6, 17: 2, 8: 28}","[3, 8, 15, 17, 42, 56]",32828156172424563,Ba3Li2Mo4P6Cl2O28
Ba6Li2Ti16O39,mp-775484,2.1144,2.09583699,0.015576935396849123,"{56: 6, 3: 2, 22: 16, 8: 39}","[3, 8, 22, 56]",328392216566,Ba6Li2Ti16O39
BaLi2SiO4,mp-558310,4.3896,1.55200413,0.0,"{56: 1, 3: 2, 14: 1, 8: 4}","[3, 8, 14, 56]",3284141561,Ba1Li2Si1O4
Ba6Li2Ti7Nb9O42,mp-773084,0.0,4.461751,0.008465951780328496,"{56: 6, 3: 2, 22: 7, 41: 9, 8: 42}","[3, 8, 22, 41, 56]",32842227419566,Ba6Li2Ti7Nb9O42
Ba6Li2Ti7(Sb3O14)3,mp-772829,0.0,5.68532717,0.06878168439391974,"{56: 6, 3: 2, 22: 7, 51: 9, 8: 42}","[3, 8, 22, 51, 56]",32842227519566,Ba6Li2Ti7Sb9O42
Ba6Li2Ta9Ti7O42,mp-773118,0.0,4.93531779,0.006872653991376154,"{56: 6, 3: 2, 73: 9, 22: 7, 8: 42}","[3, 8, 22, 56, 73]",32842227566739,Ba6Li2Ta9Ti7O42
BaLi2P2O7,mp-6175,5.361800000000001,1.09317029,0.0020688400000192786,"{56: 1, 3: 2, 15: 2, 8: 7}","[3, 8, 15, 56]",3287152561,Ba1Li2P2O7
Ba3Li2V2Cl4O7,mp-581188,3.1302,0.19723886,0.010180827546301785,"{56: 3, 3: 2, 23: 2, 17: 4, 8: 7}","[3, 8, 17, 23, 56]",3287174232563,Ba3Li2V2Cl4O7
BaLi2Mg(PO4)2,mp-1019547,5.638199999999999,2.03905071,0.008847377321441918,"{56: 1, 3: 2, 12: 1, 15: 2, 8: 8}","[3, 8, 12, 15, 56]",3288121152561,Ba1Li2Mg1P2O8
BaLi2MnV2O8,mp-1103771,2.7197000000000005,1.37688755,0.0,"{56: 1, 3: 2, 25: 1, 23: 2, 8: 8}","[3, 8, 23, 25, 56]",3288232251561,Ba1Li2Mn1V2O8
Ba(As3Ru)4,mp-1214761,0.0,5.46837253,0.0077923505294084094,"{56: 1, 33: 12, 44: 4}","[33, 44, 56]",3312444561,Ba1As12Ru4
Ba2AsBr,mp-1096666,0.7240000000000002,-2.04028063,1.156807584843751,"{56: 2, 33: 1, 35: 1}","[33, 35, 56]",331351562,Ba2As1Br1
Ba20As13,mp-685008,0.0,2.29392403,0.0,"{56: 20, 33: 13}","[33, 56]",33135620,Ba20As13
Ba3As14,mp-524,1.0907,2.78048467,0.0,"{56: 3, 33: 14}","[33, 56]",3314563,Ba3As14
BaAsPd,mp-9744,0.0,4.00284413,0.0,"{56: 1, 33: 1, 46: 1}","[33, 46, 56]",331461561,Ba1As1Pd1
BaAgAs,mp-7359,0.0,3.35005797,0.0,"{56: 1, 47: 1, 33: 1}","[33, 47, 56]",331471561,Ba1Ag1As1
Ba3SbAs,mp-1013562,0.14869999999999983,2.10679868,0.2278389527384621,"{56: 3, 51: 1, 33: 1}","[33, 51, 56]",331511563,Ba3Sb1As1
BaHf2As,mp-631569,0.0,5.59041544,1.224289447531251,"{56: 1, 72: 2, 33: 1}","[33, 56, 72]",331561722,Ba1Hf2As1
BaAsPt,mp-8458,0.0,4.31397598,0.0,"{56: 1, 33: 1, 78: 1}","[33, 56, 78]",331561781,Ba1As1Pt1
BaAsAu,mp-1077361,0.0,3.78772368,0.0,"{56: 1, 33: 1, 79: 1}","[33, 56, 79]",331561791,Ba1As1Au1
Ba2As,mp-2768,0.0,3.13246303,0.06947440410256478,"{56: 2, 33: 1}","[33, 56]",331562,Ba2As1
Ba2AsAu,mp-861937,0.5211000000000001,2.90434713,0.0,"{56: 2, 33: 1, 79: 1}","[33, 56, 79]",331562791,Ba2As1Au1
Ba3BiAs,mp-1013563,0.0,1.99874879,0.16235035053846314,"{56: 3, 83: 1, 33: 1}","[33, 56, 83]",331563831,Ba3Bi1As1
Ba(Hf2As3)6,mp-686673,0.0,4.28790491,0.37608739526881685,"{56: 1, 72: 12, 33: 18}","[33, 56, 72]",33185617212,Ba1Hf12As18
Ba2As2Se5,mp-28348,1.0236999999999998,2.1738262,0.0,"{56: 2, 33: 2, 34: 5}","[33, 34, 56]",332345562,Ba2As2Se5
Ba(AsRu)2,mp-4109,0.0,5.19197746,0.0,"{56: 1, 33: 2, 44: 2}","[33, 44, 56]",332442561,Ba1As2Ru2
Ba(AsRh)2,mp-568113,0.0,5.15008781,0.0,"{56: 1, 33: 2, 45: 2}","[33, 45, 56]",332452561,Ba1As2Rh2
BaAs2Pd,mp-9767,0.0,4.24173632,0.0,"{56: 1, 33: 2, 46: 1}","[33, 46, 56]",332461561,Ba1As2Pd1
Ba(AsPd)2,mp-571350,0.0,4.41510956,0.0,"{56: 1, 33: 2, 46: 2}","[33, 46, 56]",332462561,Ba1As2Pd2
Ba2CdAs2,mp-1079666,0.39029999999999987,2.39171248,0.0,"{56: 2, 48: 1, 33: 2}","[33, 48, 56]",332481562,Ba2Cd1As2
Ba(CdAs)2,mp-8281,0.15759999999999996,2.63466604,0.0,"{56: 1, 48: 2, 33: 2}","[33, 48, 56]",332482561,Ba1Cd2As2
BaAs2,mp-31243,0.41449999999999987,3.24069539,0.0,"{56: 1, 33: 2}","[33, 56]",332561,Ba1As2
BaAs2Pt,mp-9769,0.0,5.05745559,0.0,"{56: 1, 33: 2, 78: 1}","[33, 56, 78]",332561781,Ba1As2Pt1
Ba3As2,mp-1013560,0.0,1.5485873,0.4141938397499998,"{56: 3, 33: 2}","[33, 56]",332563,Ba3As2
Ba2Cd2As3,mp-1104453,0.0,2.84854941,0.0035077821428579625,"{56: 2, 48: 2, 33: 3}","[33, 48, 56]",333482562,Ba2Cd2As3
Ba3InAs3,mp-620346,0.5167000000000002,2.86675486,0.0,"{56: 3, 49: 1, 33: 3}","[33, 49, 56]",333491563,Ba3In1As3
BaAs3,mp-15325,0.0,3.87690655,0.0,"{56: 1, 33: 3}","[33, 56]",333561,Ba1As3
Ba4As3,mp-1214488,0.0,2.04099836,0.0,"{56: 4, 33: 3}","[33, 56]",333564,Ba4As3
Ba5As3,mp-10045,0.0,3.03607087,0.00924069399038574,"{56: 5, 33: 3}","[33, 56]",333565,Ba5As3
Ba3(CdAs2)2,mp-1080464,0.0,2.75143827,0.0,"{56: 3, 48: 2, 33: 4}","[33, 48, 56]",334482563,Ba3Cd2As4
Ba3(SnAs2)2,mp-17470,0.7525,3.1303832,0.0,"{56: 3, 50: 2, 33: 4}","[33, 50, 56]",334502563,Ba3Sn2As4
Ba2(InAs)5,mp-644875,0.045700000000000074,4.73049432,0.0,"{56: 2, 49: 5, 33: 5}","[33, 49, 56]",335495562,Ba2In5As5
Ba(As3Pt2)2,mp-14501,0.19010000000000016,5.33771477,0.0,"{56: 1, 33: 6, 78: 4}","[33, 56, 78]",336561784,Ba1As6Pt4
Ba7Na5Li3N3,mp-567157,0.0,1.22739201,0.03771640399206344,"{56: 7, 11: 5, 3: 3, 7: 3}","[3, 7, 11, 56]",3373115567,Ba7Na5Li3N3
Ba2Li3NbN4,mp-567658,2.2753999999999994,2.12179248,0.005577900976190264,"{56: 2, 3: 3, 41: 1, 7: 4}","[3, 7, 41, 56]",3374411562,Ba2Li3Nb1N4
Ba2Li3TaN4,mp-573677,2.2751,2.16205207,0.0,"{56: 2, 3: 3, 73: 1, 7: 4}","[3, 7, 56, 73]",3374562731,Ba2Li3Ta1N4
Ba7Li3(RuO5)4,mp-1228662,0.0,2.52178424,0.03185790058823379,"{56: 7, 3: 3, 44: 4, 8: 20}","[3, 8, 44, 56]",33820444567,Ba7Li3Ru4O20
Ba2Li3(PO3)7,mp-555958,5.451099999999999,0.56506158,0.0002888340908988596,"{56: 2, 3: 3, 15: 7, 8: 21}","[3, 8, 15, 56]",33821157562,Ba2Li3P7O21
Ba2Li3Y3(MoO4)8,mp-1228739,2.2428,1.70474844,0.04741911596354065,"{56: 2, 3: 3, 39: 3, 42: 8, 8: 32}","[3, 8, 39, 42, 56]",33832393428562,Ba2Li3Y3Mo8O32
Ba2Li3Y3(WO4)8,mp-1228802,2.8751000000000007,1.67473201,0.056808995624999525,"{56: 2, 3: 3, 39: 3, 74: 8, 8: 32}","[3, 8, 39, 56, 74]",33832393562748,Ba2Li3Y3W8O32
Ba2Li3La3(MoO4)8,mp-1228731,2.509,2.03481749,0.020441723281249935,"{56: 2, 3: 3, 57: 3, 42: 8, 8: 32}","[3, 8, 42, 56, 57]",33832428562573,Ba2Li3La3Mo8O32
Ba2Li3Ho3(WO4)8,mp-1228762,3.2447,1.51922752,0.05932316541666616,"{56: 2, 3: 3, 67: 3, 74: 8, 8: 32}","[3, 8, 56, 67, 74]",33832562673748,Ba2Li3Ho3W8O32
Ba4Nd2Cd3Se10,mp-10409,1.5191,1.77883201,0.008392527828947394,"{56: 4, 60: 2, 48: 3, 34: 10}","[34, 48, 56, 60]",3410483564602,Ba4Nd2Cd3Se10
Ba7Sn3Te3Se10,mp-1214827,1.2349999999999999,2.49049598,0.008164507630434414,"{56: 7, 50: 3, 52: 3, 34: 10}","[34, 50, 52, 56]",3410503523567,Ba7Sn3Te3Se10
Rb2BaNb2Se11,mp-571293,1.2878,1.46306163,0.0,"{37: 2, 56: 1, 41: 2, 34: 11}","[34, 37, 41, 56]",3411372412561,Rb2Ba1Nb2Se11
Ba4Sb4Se11,mp-28238,1.1383999999999999,3.89653007,0.0,"{56: 4, 51: 4, 34: 11}","[34, 51, 56]",3411514564,Ba4Sb4Se11
Ba4(NbSe4)3,mp-1228159,0.0,2.83539007,0.0594438396842083,"{56: 4, 41: 3, 34: 12}","[34, 41, 56]",3412413564,Ba4Nb3Se12
Ba7Sn3Se13,mp-569754,1.4091999999999998,3.48376842,0.00604991641304764,"{56: 7, 50: 3, 34: 13}","[34, 50, 56]",3413503567,Ba7Sn3Se13
Ba6Sn6Se13,mp-1196224,9.999999999976694e-05,3.93730347,0.0,"{56: 6, 50: 6, 34: 13}","[34, 50, 56]",3413506566,Ba6Sn6Se13
Ba3Bi6PbSe13,mp-669415,0.8085,3.11368332,0.0,"{56: 3, 83: 6, 82: 1, 34: 13}","[34, 56, 82, 83]",3413563821836,Ba3Bi6Pb1Se13
BaSe,mp-1253,1.9487999999999999,1.13655998,0.0,"{56: 1, 34: 1}","[34, 56]",341561,Ba1Se1
Ba3Se,mp-1183300,0.0,3.16068696,0.5455859375000003,"{56: 3, 34: 1}","[34, 56]",341563,Ba3Se1
Ba8U2PdSe16,mp-1195367,0.35329999999999995,3.46205903,0.0,"{56: 8, 92: 2, 46: 1, 34: 16}","[34, 46, 56, 92]",3416461568922,Ba8U2Pd1Se16
Ba2Mo15Se19,mp-1197677,0.0,4.35265893,0.010378893958336022,"{56: 2, 42: 15, 34: 19}","[34, 42, 56]",34194215562,Ba2Mo15Se19
BaSe2,mp-7547,0.6166000000000003,1.72622645,0.0,"{56: 1, 34: 2}","[34, 56]",342561,Ba1Se2
Ba6(BiSe2)13,mp-1228368,0.0,2.64708108,0.0061027483055529075,"{56: 6, 83: 13, 34: 26}","[34, 56, 83]",34265668313,Ba6Bi13Se26
Ba(SnSe)32,mp-1120806,0.0,5.54758769,0.0372286571923075,"{56: 1, 50: 32, 34: 32}","[34, 50, 56]",34325032561,Ba1Sn32Se32
Ba3(LiAs)4,mp-15753,0.0,2.58810587,0.0,"{56: 3, 3: 4, 33: 4}","[3, 33, 56]",34334563,Ba3Li4As4
BaYAgSe3,mp-6647,1.3282000000000003,2.71685194,0.0,"{56: 1, 39: 1, 47: 1, 34: 3}","[34, 39, 47, 56]",343391471561,Ba1Y1Ag1Se3
BaZrSe3,mp-998427,0.3725999999999998,2.97248738,0.0,"{56: 1, 40: 1, 34: 3}","[34, 40, 56]",343401561,Ba1Zr1Se3
Ba(MoSe)3,mp-1104001,0.0,5.75005886,0.06816034214285782,"{56: 1, 42: 3, 34: 3}","[34, 42, 56]",343423561,Ba1Mo3Se3
BaLaAgSe3,mp-1101818,1.6435,3.10858048,0.0,"{56: 1, 57: 1, 47: 1, 34: 3}","[34, 47, 56, 57]",343471561571,Ba1La1Ag1Se3
BaErAgSe3,mp-1102849,1.3771,2.68332934,0.0,"{56: 1, 68: 1, 47: 1, 34: 3}","[34, 47, 56, 68]",343471561681,Ba1Er1Ag1Se3
Ba2CdSe3,mp-16870,1.5747999999999998,1.59685394,0.000599786666667157,"{56: 2, 48: 1, 34: 3}","[34, 48, 56]",343481562,Ba2Cd1Se3
BaSe3,mp-7548,0.9260000000000002,2.62290274,0.0,"{56: 1, 34: 3}","[34, 56]",343561,Ba1Se3
BaGdAuSe3,mp-19942,0.8572000000000002,3.21346589,3.875958333132701e-05,"{56: 1, 64: 1, 79: 1, 34: 3}","[34, 56, 64, 79]",343561641791,Ba1Gd1Au1Se3
BaTaSe3,mp-1078588,0.0,4.24585842,0.04060037599999866,"{56: 1, 73: 1, 34: 3}","[34, 56, 73]",343561731,Ba1Ta1Se3
BaBiSe3,mp-27365,0.7321,2.75503134,0.0,"{56: 1, 83: 1, 34: 3}","[34, 56, 83]",343561831,Ba1Bi1Se3
Ba15(ZrSe3)14,mp-620609,0.3033999999999999,2.84661163,0.0,"{56: 15, 40: 14, 34: 42}","[34, 40, 56]",344240145615,Ba15Zr14Se42
Ba(YSe2)2,mp-1193099,1.4872,2.27395476,0.0,"{56: 1, 39: 2, 34: 4}","[34, 39, 56]",344392561,Ba1Y2Se4
BaAg2SnSe4,mp-569114,0.0653999999999999,3.12994403,0.0,"{56: 1, 47: 2, 50: 1, 34: 4}","[34, 47, 50, 56]",344472501561,Ba1Ag2Sn1Se4
Ba(InSe2)2,mp-21766,1.687,1.97514602,0.0,"{56: 1, 49: 2, 34: 4}","[34, 49, 56]",344492561,Ba1In2Se4
Ba2SnSe4,mp-1192595,1.2645999999999997,3.36633921,0.0,"{56: 2, 50: 1, 34: 4}","[34, 50, 56]",344501562,Ba2Sn1Se4
Ba(SbSe2)2,mp-4727,0.8717000000000001,3.34766491,0.0,"{56: 1, 51: 2, 34: 4}","[34, 51, 56]",344512561,Ba1Sb2Se4
Ba(LaSe2)2,mp-37741,1.7602000000000002,4.58079902,0.0005453305357194793,"{56: 1, 57: 2, 34: 4}","[34, 56, 57]",344561572,Ba1La2Se4
Ba(PrSe2)2,mp-33606,1.6190000000000002,3.21730218,0.006763379107067813,"{56: 1, 59: 2, 34: 4}","[34, 56, 59]",344561592,Ba1Pr2Se4
Ba(NdSe2)2,mp-36007,1.5998999999999999,3.22751782,0.01308529410714776,"{56: 1, 60: 2, 34: 4}","[34, 56, 60]",344561602,Ba1Nd2Se4
Ba(SmSe2)2,mp-1193757,1.4344000000000001,2.04067517,0.0,"{56: 1, 62: 2, 34: 4}","[34, 56, 62]",344561622,Ba1Sm2Se4
Ba(GdSe2)2,mp-1194410,1.2254999999999998,2.10508955,0.0,"{56: 1, 64: 2, 34: 4}","[34, 56, 64]",344561642,Ba1Gd2Se4
Ba(DySe2)2,mp-1193797,1.3765,2.26079694,0.0,"{56: 1, 66: 2, 34: 4}","[34, 56, 66]",344561662,Ba1Dy2Se4
Ba(ErSe2)2,mp-1192805,1.3665000000000003,2.26250938,0.0,"{56: 1, 68: 2, 34: 4}","[34, 56, 68]",344561682,Ba1Er2Se4
Ba(TmSe2)2,mp-1193169,1.3803999999999998,2.27284494,0.0,"{56: 1, 69: 2, 34: 4}","[34, 56, 69]",344561692,Ba1Tm2Se4
Ba(LuSe2)2,mp-1192674,1.3977,2.29087516,0.0,"{56: 1, 71: 2, 34: 4}","[34, 56, 71]",344561712,Ba1Lu2Se4
Ba19Li44,mp-569841,0.0,0.8563259,0.006834211772487109,"{56: 19, 3: 44}","[3, 56]",3445619,Ba19Li44
Ba3(LiSn2)4,mp-30254,0.0,4.74101555,0.0,"{56: 3, 3: 4, 50: 8}","[3, 50, 56]",34508563,Ba3Li4Sn8
Ba3(LiSb)4,mp-1095406,0.0,3.38031835,0.0,"{56: 3, 3: 4, 51: 4}","[3, 51, 56]",34514563,Ba3Li4Sb4
Ba2YInSe5,mp-1205397,1.1767999999999996,2.33110111,0.006603826944444613,"{56: 2, 39: 1, 49: 1, 34: 5}","[34, 39, 49, 56]",345391491562,Ba2Y1In1Se5
Ba2InSbSe5,mp-1189339,0.7680000000000002,3.13955362,0.0,"{56: 2, 49: 1, 51: 1, 34: 5}","[34, 49, 51, 56]",345491511562,Ba2In1Sb1Se5
Ba2NdInSe5,mp-1190093,1.0692000000000004,2.35801573,0.0,"{56: 2, 60: 1, 49: 1, 34: 5}","[34, 49, 56, 60]",345491562601,Ba2Nd1In1Se5
Ba2SmInSe5,mp-1188304,1.0779999999999998,2.32405528,0.004287914027775841,"{56: 2, 62: 1, 49: 1, 34: 5}","[34, 49, 56, 62]",345491562621,Ba2Sm1In1Se5
Ba2DyInSe5,mp-1106127,1.1264000000000003,2.37950598,0.006480991527777924,"{56: 2, 66: 1, 49: 1, 34: 5}","[34, 49, 56, 66]",345491562661,Ba2Dy1In1Se5
Ba2ErInSe5,mp-1188122,1.1854,2.34123132,0.008465022222221563,"{56: 2, 68: 1, 49: 1, 34: 5}","[34, 49, 56, 68]",345491562681,Ba2Er1In1Se5
Ba2InBiSe5,mp-1105202,1.061,2.6467532,0.0,"{56: 2, 49: 1, 83: 1, 34: 5}","[34, 49, 56, 83]",345491562831,Ba2In1Bi1Se5
Ba4In2Te2Se5,mp-1193105,1.8432999999999997,2.71578706,0.00986681586538296,"{56: 4, 49: 2, 52: 2, 34: 5}","[34, 49, 52, 56]",345492522564,Ba4In2Te2Se5
Ba2In2Se5,mp-573635,1.3944999999999999,2.31661695,0.004777688749997289,"{56: 2, 49: 2, 34: 5}","[34, 49, 56]",345492562,Ba2In2Se5
Ba2SnSe5,mp-31307,1.1383999999999999,2.12667768,0.0,"{56: 2, 50: 1, 34: 5}","[34, 50, 56]",345501562,Ba2Sn1Se5
BaU2Se5,mp-1195370,0.0,5.62284725,0.0,"{56: 1, 92: 2, 34: 5}","[34, 56, 92]",345561922,Ba1U2Se5
BaLi4,mp-210,0.0,0.54364948,0.0,"{56: 1, 3: 4}","[3, 56]",34561,Ba1Li4
Ba3(LiBi)4,mp-1095231,0.0,3.0068059,0.0,"{56: 3, 3: 4, 83: 4}","[3, 56, 83]",34563834,Ba3Li4Bi4
Ba20Nb19Se60,mp-685931,0.0,3.69649556,0.04251575882828007,"{56: 20, 41: 19, 34: 60}","[34, 41, 56]",346041195620,Ba20Nb19Se60
BaCe(SnSe3)2,mp-1195945,0.0,4.40980741,0.013381466500000272,"{56: 1, 58: 1, 50: 2, 34: 6}","[34, 50, 56, 58]",346502561581,Ba1Ce1Sn2Se6
BaLa(SbSe3)2,mp-1201929,0.6452999999999998,4.39541299,0.0,"{56: 1, 57: 1, 51: 2, 34: 6}","[34, 51, 56, 57]",346512561571,Ba1La1Sb2Se6
Ba4USe6,mp-1190418,0.0,3.88630932,0.0,"{56: 4, 92: 1, 34: 6}","[34, 56, 92]",346564921,Ba4U1Se6
Ba3Sb2Se7,mp-1194583,0.9485999999999999,2.21281598,0.0,"{56: 3, 51: 2, 34: 7}","[34, 51, 56]",347512563,Ba3Sb2Se7
Ba3ThSe7,mp-1095255,0.923,2.19259707,0.0,"{56: 3, 90: 1, 34: 7}","[34, 56, 90]",347563901,Ba3Th1Se7
BaLi4O3,mp-778878,3.3975999999999997,1.41347083,0.08632023937499955,"{56: 1, 3: 4, 8: 3}","[3, 8, 56]",3483561,Ba1Li4O3
Ba4Li4Ti19O44,mp-762032,2.3023,2.38782065,0.04545754705985949,"{56: 4, 3: 4, 22: 19, 8: 44}","[3, 8, 22, 56]",348442219564,Ba4Li4Ti19O44
Ba3Nb2Se9,mp-1195033,1.0023,3.13143892,0.003380289392856284,"{56: 3, 41: 2, 34: 9}","[34, 41, 56]",349412563,Ba3Nb2Se9
Ba3Ta2Se9,mp-1195068,1.202,3.40275675,0.0,"{56: 3, 73: 2, 34: 9}","[34, 56, 73]",349563732,Ba3Ta2Se9
BaY3Br11,mp-753942,3.0403000000000002,-1.40578315,0.09796225599999975,"{56: 1, 39: 3, 35: 11}","[35, 39, 56]",3511393561,Ba1Y3Br11
Ba3Y2Br12,mp-768402,3.3499,0.12594846,0.056485036470590444,"{56: 3, 39: 2, 35: 12}","[35, 39, 56]",3512392563,Ba3Y2Br12
Ba3La2Br12,mp-771951,3.2308000000000003,1.11883083,0.038899301470587844,"{56: 3, 57: 2, 35: 12}","[35, 56, 57]",3512563572,Ba3La2Br12
Ba2SbBr,mp-1093939,0.7405000000000002,-2.1999442,1.1730571570000006,"{56: 2, 51: 1, 35: 1}","[35, 51, 56]",351511562,Ba2Sb1Br1
BaIBr,mp-1214491,3.5422999999999996,4.77791793,0.0,"{56: 1, 53: 1, 35: 1}","[35, 53, 56]",351531561,Ba1I1Br1
Ba6YBr15,mp-777731,3.8411,-1.56003954,0.06151445386364163,"{56: 6, 39: 1, 35: 15}","[35, 39, 56]",3515391566,Ba6Y1Br15
Ba5Y3Br19,mp-861730,3.4253,-0.38898977,0.07570095444444913,"{56: 5, 39: 3, 35: 19}","[35, 39, 56]",3519393565,Ba5Y3Br19
BaBr2,mp-27456,4.3731,-0.03463019,0.0,"{56: 1, 35: 2}","[35, 56]",352561,Ba1Br2
Ba9La5Br33,mp-851112,2.5467,1.08707968,0.007950315425532928,"{56: 9, 57: 5, 35: 33}","[35, 56, 57]",3533569575,Ba9La5Br33
Ba9Pr6Br34,mp-1205126,0.0,4.05682015,0.024530818979606295,"{56: 9, 59: 6, 35: 34}","[35, 56, 59]",3534569596,Ba9Pr6Br34