formula,material_id,band_gap,efermi,energy_above_hull,comp_atoms,sorted_keys_comp_atoms,comp_number,new_formula
Ba2LuUO6,mp-1206047,2.0388,4.94650198,0.0,"{56: 2, 71: 1, 92: 1, 8: 6}","[8, 56, 71, 92]",86562711921,Ba2Lu1U1O6
Ba2HfUO6,mp-1207009,0.18789999999999996,6.80357833,0.03152396899999843,"{56: 2, 72: 1, 92: 1, 8: 6}","[8, 56, 72, 92]",86562721921,Ba2Hf1U1O6
Ba2TaTlO6,mp-1205650,2.241,2.78579734,0.0,"{56: 2, 73: 1, 81: 1, 8: 6}","[8, 56, 73, 81]",86562731811,Ba2Ta1Tl1O6
Ba2TaBiO6,mp-545544,2.6384999999999996,3.49673747,0.0,"{56: 2, 73: 1, 83: 1, 8: 6}","[8, 56, 73, 83]",86562731831,Ba2Ta1Bi1O6
Ba2PuTaO6,mp-1205514,0.0,6.43526298,0.009337582500000607,"{56: 2, 94: 1, 73: 1, 8: 6}","[8, 56, 73, 94]",86562731941,Ba2Pu1Ta1O6
Ba2WO6,mp-1196168,0.0,0.41858044,0.14899349888887947,"{56: 2, 74: 1, 8: 6}","[8, 56, 74]",86562741,Ba2W1O6
Ba2BiWO6,mp-1520885,1.9603999999999995,4.06871158,0.07699554124999786,"{56: 2, 83: 1, 74: 1, 8: 6}","[8, 56, 74, 83]",86562741831,Ba2Bi1W1O6
Ba2BiIrO6,mp-1078727,0.0,4.01771117,0.011211237444430644,"{56: 2, 83: 1, 77: 1, 8: 6}","[8, 56, 77, 83]",86562771831,Ba2Bi1Ir1O6
Ba2UHgO6,mp-1205945,1.6345,3.20852727,0.08084312974999985,"{56: 2, 92: 1, 80: 1, 8: 6}","[8, 56, 80, 92]",86562801921,Ba2U1Hg1O6
Ba2UPbO6,mp-1080842,1.1945999999999994,4.27627887,0.028178937249997205,"{56: 2, 92: 1, 82: 1, 8: 6}","[8, 56, 82, 92]",86562821921,Ba2U1Pb1O6
Ba2PuPbO6,mp-1207268,0.4379999999999997,5.71694367,0.0,"{56: 2, 94: 1, 82: 1, 8: 6}","[8, 56, 82, 94]",86562821941,Ba2Pu1Pb1O6
Ba2PuPaO6,mp-1205886,0.0,7.09106128,0.0,"{56: 2, 94: 1, 91: 1, 8: 6}","[8, 56, 91, 94]",86562911941,Ba2Pu1Pa1O6
Ba3Ce2O6,mp-1178568,0.0,5.69772818,0.029526603636364612,"{56: 3, 58: 2, 8: 6}","[8, 56, 58]",86563582,Ba3Ce2O6
Ba3WO6,mp-1228775,3.1513999999999998,1.56094449,0.0,"{56: 3, 74: 1, 8: 6}","[8, 56, 74]",86563741,Ba3W1O6
Ba3UO6,mp-1206273,2.1571999999999996,2.4568905,0.022950849750001723,"{56: 3, 92: 1, 8: 6}","[8, 56, 92]",86563921,Ba3U1O6
Ba3PuO6,mp-1205571,0.3789000000000007,4.6347384,0.0,"{56: 3, 94: 1, 8: 6}","[8, 56, 94]",86563941,Ba3Pu1O6
Ba4HfO6,mp-756014,3.0638000000000005,1.97453204,0.06323999454545426,"{56: 4, 72: 1, 8: 6}","[8, 56, 72]",86564721,Ba4Hf1O6
Ba4IrO6,mp-754684,0.0,3.53834878,0.0,"{56: 4, 77: 1, 8: 6}","[8, 56, 77]",86564771,Ba4Ir1O6
Ba4PtO6,mp-8727,1.8103999999999996,2.92278807,0.0,"{56: 4, 78: 1, 8: 6}","[8, 56, 78]",86564781,Ba4Pt1O6
K4Ba2Na4Ti8Mn(Si8O33)2,mp-1200379,0.08379999999999987,1.23347619,0.4768505808575396,"{19: 4, 56: 2, 11: 4, 22: 8, 25: 1, 14: 16, 8: 66}","[8, 11, 14, 19, 22, 25, 56]",8661141416194228251562,K4Ba2Na4Ti8Mn1Si16O66
Ba3Ti2(O3F5)2,mp-1199184,0.7776,-0.2760069,0.3182725901190526,"{56: 3, 22: 2, 8: 6, 9: 10}","[8, 9, 22, 56]",86910222563,Ba3Ti2O6F10
BaUPO6F,mp-1203857,2.1124,1.38993623,0.0,"{56: 1, 92: 1, 15: 1, 8: 6, 9: 1}","[8, 9, 15, 56, 92]",8691151561921,Ba1U1P1O6F1
Ba2YCu3O6F,mp-1214572,0.0,3.46277739,0.09947145536538304,"{56: 2, 39: 1, 29: 3, 8: 6, 9: 1}","[8, 9, 29, 39, 56]",8691293391562,Ba2Y1Cu3O6F1
Ba4Mo2O6F13,mp-1202067,0.0,-1.17300504,0.2961147858500004,"{56: 4, 42: 2, 8: 6, 9: 13}","[8, 9, 42, 56]",86913422564,Ba4Mo2O6F13
BaNaScSi2O7,mp-866298,4.5947000000000005,1.94761757,0.003916913411448064,"{56: 1, 11: 1, 21: 1, 14: 2, 8: 7}","[8, 11, 14, 21, 56]",87111142211561,Ba1Na1Sc1Si2O7
BaNaNdSi2O7,mp-559384,4.4466,5.87538789,0.0,"{56: 1, 11: 1, 60: 1, 14: 2, 8: 7}","[8, 11, 14, 56, 60]",87111142561601,Ba1Na1Nd1Si2O7
Ba2MgSi2O7,mp-9338,4.4529000000000005,1.32975364,0.0,"{56: 2, 12: 1, 14: 2, 8: 7}","[8, 12, 14, 56]",87121142562,Ba2Mg1Si2O7
BaMgP2O7,mp-18343,5.7042,1.18760822,0.0,"{56: 1, 12: 1, 15: 2, 8: 7}","[8, 12, 15, 56]",87121152561,Ba1Mg1P2O7
Ba3MgTi2O7,mp-2218647,0.0,5.01100687,0.18873966286713362,"{56: 3, 12: 1, 22: 2, 8: 7}","[8, 12, 22, 56]",87121222563,Ba3Mg1Ti2O7
Ba2YMgMn2TlO7,mp-2228455,0.0,3.47203899,0.23127797773512704,"{56: 2, 39: 1, 12: 1, 25: 2, 81: 1, 8: 7}","[8, 12, 25, 39, 56, 81]",87121252391562811,Ba2Y1Mg1Mn2Tl1O7
BaNd2MgMn2O7,mp-2218912,0.9382999999999995,4.06736221,0.3257314462692502,"{56: 1, 60: 2, 12: 1, 25: 2, 8: 7}","[8, 12, 25, 56, 60]",87121252561602,Ba1Nd2Mg1Mn2O7
Ba2YMgTlCu2O7,mp-2241473,0.0,3.68273594,0.3048847019196419,"{56: 2, 39: 1, 12: 1, 81: 1, 29: 2, 8: 7}","[8, 12, 29, 39, 56, 81]",87121292391562811,Ba2Y1Mg1Tl1Cu2O7
Ba2YMgCu3O7,mp-2242050,0.0,3.74192022,0.28545372174999617,"{56: 2, 39: 1, 12: 1, 29: 3, 8: 7}","[8, 12, 29, 39, 56]",87121293391562,Ba2Y1Mg1Cu3O7
Ba2LaMgCu3O7,mp-2228606,0.0,4.28474404,0.28908996142856225,"{56: 2, 57: 1, 12: 1, 29: 3, 8: 7}","[8, 12, 29, 56, 57]",87121293562571,Ba2La1Mg1Cu3O7
Ba2PrMgCu3O7,mp-2228452,0.0,3.72117377,0.28215637357141077,"{56: 2, 59: 1, 12: 1, 29: 3, 8: 7}","[8, 12, 29, 56, 59]",87121293562591,Ba2Pr1Mg1Cu3O7
Ba2NdMgCu3O7,mp-2228520,0.0,3.73253471,0.2804735007142858,"{56: 2, 60: 1, 12: 1, 29: 3, 8: 7}","[8, 12, 29, 56, 60]",87121293562601,Ba2Nd1Mg1Cu3O7
Ba2SmMgCu3O7,mp-2228487,0.0,3.72913208,0.27587121382142055,"{56: 2, 62: 1, 12: 1, 29: 3, 8: 7}","[8, 12, 29, 56, 62]",87121293562621,Ba2Sm1Mg1Cu3O7
Ba2EuMgCu3O7,mp-2241319,0.0,3.49143086,0.3233237805357181,"{56: 2, 63: 1, 12: 1, 29: 3, 8: 7}","[8, 12, 29, 56, 63]",87121293562631,Ba2Eu1Mg1Cu3O7
Ba2GdMgCu3O7,mp-2228596,0.0,3.97882458,0.3143891260714291,"{56: 2, 64: 1, 12: 1, 29: 3, 8: 7}","[8, 12, 29, 56, 64]",87121293562641,Ba2Gd1Mg1Cu3O7
Ba2HoMgCu3O7,mp-2241402,0.0,3.72860993,0.2848508003214203,"{56: 2, 67: 1, 12: 1, 29: 3, 8: 7}","[8, 12, 29, 56, 67]",87121293562671,Ba2Ho1Mg1Cu3O7
Ba2TmMgCu3O7,mp-2215983,0.0,3.06804222,0.23908399557142612,"{56: 2, 69: 1, 12: 1, 29: 3, 8: 7}","[8, 12, 29, 56, 69]",87121293562691,Ba2Tm1Mg1Cu3O7
Ba2MgGe2O7,mp-1190545,3.6558,0.29080313,0.0,"{56: 2, 12: 1, 32: 2, 8: 7}","[8, 12, 32, 56]",87121322562,Ba2Mg1Ge2O7
BaMgTe2O7,mp-865532,1.8493999999999997,3.50839195,0.0020493287320508813,"{56: 1, 12: 1, 52: 2, 8: 7}","[8, 12, 52, 56]",87121522561,Ba1Mg1Te2O7
BaMg2Si2O7,mp-1019549,4.5563,1.73822465,0.0,"{56: 1, 12: 2, 14: 2, 8: 7}","[8, 12, 14, 56]",87122142561,Ba1Mg2Si2O7
Ba2Ti2AlTlO7,mp-1249385,0.0,5.33191631,0.4274415308012811,"{56: 2, 22: 2, 13: 1, 81: 1, 8: 7}","[8, 13, 22, 56, 81]",87131222562811,Ba2Ti2Al1Tl1O7
Ba2Ti3AlO7,mp-1048025,0.0,5.69156647,0.41966222999999303,"{56: 2, 22: 3, 13: 1, 8: 7}","[8, 13, 22, 56]",87131223562,Ba2Ti3Al1O7
BaTi4AlO7,mp-1048108,0.2755000000000001,6.52057584,0.22534352374999855,"{56: 1, 22: 4, 13: 1, 8: 7}","[8, 13, 22, 56]",87131224561,Ba1Ti4Al1O7
Ba2AlTlV2O7,mp-1265780,0.0,4.00725909,0.3458232734936031,"{56: 2, 13: 1, 81: 1, 23: 2, 8: 7}","[8, 13, 23, 56, 81]",87131232562811,Ba2Al1Tl1V2O7
Ba2AlV3O7,mp-1048346,0.0,5.38142044,0.4209323005469576,"{56: 2, 13: 1, 23: 3, 8: 7}","[8, 13, 23, 56]",87131233562,Ba2Al1V3O7
BaAlV4O7,mp-1048345,0.39090000000000025,5.70777171,0.32972394049022036,"{56: 1, 13: 1, 23: 4, 8: 7}","[8, 13, 23, 56]",87131234561,Ba1Al1V4O7
Ba2AlTlCr2O7,mp-1048438,0.0,4.70822685,0.4168919760416676,"{56: 2, 13: 1, 81: 1, 24: 2, 8: 7}","[8, 13, 24, 56, 81]",87131242562811,Ba2Al1Tl1Cr2O7
Ba2AlCr3O7,mp-1048330,0.0,4.86762084,0.38524744127136934,"{56: 2, 13: 1, 24: 3, 8: 7}","[8, 13, 24, 56]",87131243562,Ba2Al1Cr3O7
BaAlCr4O7,mp-1048544,0.0,4.6991073,0.43176979423077455,"{56: 1, 13: 1, 24: 4, 8: 7}","[8, 13, 24, 56]",87131244561,Ba1Al1Cr4O7
Ba2Mn2AlTlO7,mp-1048457,0.0,4.08387774,0.3501498273397363,"{56: 2, 25: 2, 13: 1, 81: 1, 8: 7}","[8, 13, 25, 56, 81]",87131252562811,Ba2Mn2Al1Tl1O7
Ba2Mn3AlO7,mp-1048319,0.0,4.32260772,0.3698173423429534,"{56: 2, 25: 3, 13: 1, 8: 7}","[8, 13, 25, 56]",87131253562,Ba2Mn3Al1O7
BaMn4AlO7,mp-1048458,0.0,3.59086166,0.2159548181089761,"{56: 1, 25: 4, 13: 1, 8: 7}","[8, 13, 25, 56]",87131254561,Ba1Mn4Al1O7
Ba2AlTlFe2O7,mp-1256846,0.0,3.95899775,0.27573151050824407,"{56: 2, 13: 1, 81: 1, 26: 2, 8: 7}","[8, 13, 26, 56, 81]",87131262562811,Ba2Al1Tl1Fe2O7
Ba2AlFe3O7,mp-1253719,1.2784,4.18588103,0.13720419321429134,"{56: 2, 13: 1, 26: 3, 8: 7}","[8, 13, 26, 56]",87131263562,Ba2Al1Fe3O7
BaAlFe4O7,mp-1048359,0.8155000000000001,4.23025445,0.20003452221154383,"{56: 1, 13: 1, 26: 4, 8: 7}","[8, 13, 26, 56]",87131264561,Ba1Al1Fe4O7
Ba2AlTlCo2O7,mp-1046381,0.031700000000000284,3.31659388,0.1634486109134592,"{56: 2, 13: 1, 81: 1, 27: 2, 8: 7}","[8, 13, 27, 56, 81]",87131272562811,Ba2Al1Tl1Co2O7
BaAlCo4O7,mp-1048382,0.18699999999999983,3.38852682,0.10658449250000146,"{56: 1, 13: 1, 27: 4, 8: 7}","[8, 13, 27, 56]",87131274561,Ba1Al1Co4O7
Ba2AlTlCu2O7,mp-1046001,0.0,4.4749932,0.27716010988782,"{56: 2, 13: 1, 81: 1, 29: 2, 8: 7}","[8, 13, 29, 56, 81]",87131292562811,Ba2Al1Tl1Cu2O7
Ba2AlCu3O7,mp-1048073,0.0,3.77249365,0.2779266087500014,"{56: 2, 13: 1, 29: 3, 8: 7}","[8, 13, 29, 56]",87131293562,Ba2Al1Cu3O7
BaAlCu4O7,mp-1048141,0.0,4.01864129,0.16264428331447256,"{56: 1, 13: 1, 29: 4, 8: 7}","[8, 13, 29, 56]",87131294561,Ba1Al1Cu4O7
Ba2AlTlSn2O7,mp-1046027,0.0,5.85054715,0.6083488698397401,"{56: 2, 13: 1, 81: 1, 50: 2, 8: 7}","[8, 13, 50, 56, 81]",87131502562811,Ba2Al1Tl1Sn2O7
Ba2AlSn3O7,mp-1048096,0.0,6.176727,0.6049786066346137,"{56: 2, 13: 1, 50: 3, 8: 7}","[8, 13, 50, 56]",87131503562,Ba2Al1Sn3O7
BaAlSn4O7,mp-1048159,0.0,5.6874507,0.3215035124038401,"{56: 1, 13: 1, 50: 4, 8: 7}","[8, 13, 50, 56]",87131504561,Ba1Al1Sn4O7
BaAlW4O7,mp-1048423,0.0,5.97552775,0.8481398703335348,"{56: 1, 13: 1, 74: 4, 8: 7}","[8, 13, 56, 74]",87131561744,Ba1Al1W4O7
Ba2AlTlW2O7,mp-1046389,0.0,4.39458121,0.7782368904166486,"{56: 2, 13: 1, 81: 1, 74: 2, 8: 7}","[8, 13, 56, 74, 81]",87131562742811,Ba2Al1Tl1W2O7
Ba2AlW3O7,mp-1045008,0.0,5.7917477,0.7571991068269224,"{56: 2, 13: 1, 74: 3, 8: 7}","[8, 13, 56, 74]",87131562743,Ba2Al1W3O7
BaAl2Sb2O7,mp-12885,3.4109000000000003,1.97737059,0.0,"{56: 1, 13: 2, 51: 2, 8: 7}","[8, 13, 51, 56]",87132512561,Ba1Al2Sb2O7
Ba4Al2O7,mp-560978,3.5745,5.44971425,0.008150886666666857,"{56: 4, 13: 2, 8: 7}","[8, 13, 56]",87132564,Ba4Al2O7
Ba17Al3O7,mp-679951,0.0036000000000000476,2.53231936,0.1056032507695468,"{56: 17, 13: 3, 8: 7}","[8, 13, 56]",871335617,Ba17Al3O7
BaAl4O7,mp-1019534,3.6891,2.37656837,0.0008325707416583228,"{56: 1, 13: 4, 8: 7}","[8, 13, 56]",87134561,Ba1Al4O7
Ba2MnSi2ClO7,mp-558848,0.9239000000000002,1.91088639,0.0,"{56: 2, 25: 1, 14: 2, 17: 1, 8: 7}","[8, 14, 17, 25, 56]",87142171251562,Ba2Mn1Si2Cl1O7
KBaYSi2O7,mp-559670,4.664,1.3474998,0.0,"{19: 1, 56: 1, 39: 1, 14: 2, 8: 7}","[8, 14, 19, 39, 56]",87142191391561,K1Ba1Y1Si2O7
BaVSi2O7,mp-1190381,2.8032,5.34490621,0.004500303364871172,"{56: 1, 23: 1, 14: 2, 8: 7}","[8, 14, 23, 56]",87142231561,Ba1V1Si2O7
BaMn2Si2O7,mp-1196057,2.6464000000000003,5.12157349,0.0,"{56: 1, 25: 2, 14: 2, 8: 7}","[8, 14, 25, 56]",87142252561,Ba1Mn2Si2O7
BaFe2Si2O7,mp-1214455,0.0,3.41165553,0.0,"{56: 1, 26: 2, 14: 2, 8: 7}","[8, 14, 26, 56]",87142262561,Ba1Fe2Si2O7
Ba2CoSi2O7,mp-510015,2.6655999999999995,2.2239644,0.0,"{56: 2, 27: 1, 14: 2, 8: 7}","[8, 14, 27, 56]",87142271562,Ba2Co1Si2O7
BaCo2Si2O7,mp-19203,0.04479999999999995,3.34272351,0.0,"{56: 1, 27: 2, 14: 2, 8: 7}","[8, 14, 27, 56]",87142272561,Ba1Co2Si2O7
Ba2CuSi2O7,mp-11613,0.18310000000000004,2.31504001,0.03647557041666616,"{56: 2, 29: 1, 14: 2, 8: 7}","[8, 14, 29, 56]",87142291562,Ba2Cu1Si2O7
BaCu2Si2O7,mp-22407,0.0,3.66078705,0.03540187229166403,"{56: 1, 29: 2, 14: 2, 8: 7}","[8, 14, 29, 56]",87142292561,Ba1Cu2Si2O7
Ba2ZnSi2O7,mp-558629,4.0027,1.4516318,0.0,"{56: 2, 30: 1, 14: 2, 8: 7}","[8, 14, 30, 56]",87142301562,Ba2Zn1Si2O7
BaZn2Si2O7,mp-560441,3.3032000000000004,1.18982775,0.0,"{56: 1, 30: 2, 14: 2, 8: 7}","[8, 14, 30, 56]",87142302561,Ba1Zn2Si2O7
BaCaP2O7,mp-1019543,5.3187,1.54323752,0.0023052823863842775,"{56: 1, 20: 1, 15: 2, 8: 7}","[8, 15, 20, 56]",87152201561,Ba1Ca1P2O7
BaCrP2O7,mp-19110,3.0648000000000004,2.71826572,0.0,"{56: 1, 24: 1, 15: 2, 8: 7}","[8, 15, 24, 56]",87152241561,Ba1Cr1P2O7
BaMnP2O7,mp-18703,2.0711999999999997,5.1588761,0.0,"{56: 1, 25: 1, 15: 2, 8: 7}","[8, 15, 25, 56]",87152251561,Ba1Mn1P2O7
BaCoP2O7,mp-19278,2.4181999999999997,1.64383526,0.0,"{56: 1, 27: 1, 15: 2, 8: 7}","[8, 15, 27, 56]",87152271561,Ba1Co1P2O7
Ba3CuP2Br3O7,mp-703291,2.9335,1.91227458,0.5774332556250021,"{56: 3, 29: 1, 15: 2, 35: 3, 8: 7}","[8, 15, 29, 35, 56]",87152291353563,Ba3Cu1P2Br3O7
BaCuP2O7,mp-8851,0.0,2.74799584,0.0,"{56: 1, 29: 1, 15: 2, 8: 7}","[8, 15, 29, 56]",87152291561,Ba1Cu1P2O7
BaZnP2O7,mp-14345,4.3419,1.19755532,0.0,"{56: 1, 30: 1, 15: 2, 8: 7}","[8, 15, 30, 56]",87152301561,Ba1Zn1P2O7
BaP2PdO7,mp-1214414,0.7159999999999997,2.44318425,0.0,"{56: 1, 15: 2, 46: 1, 8: 7}","[8, 15, 46, 56]",87152461561,Ba1P2Pd1O7
BaCdP2O7,mp-6695,3.5826,1.31118747,0.0,"{56: 1, 48: 1, 15: 2, 8: 7}","[8, 15, 48, 56]",87152481561,Ba1Cd1P2O7
Cs2BaP2O7,mp-1019603,4.6544,0.69412647,0.0,"{55: 2, 56: 1, 15: 2, 8: 7}","[8, 15, 55, 56]",87152552561,Cs2Ba1P2O7
BaP2PbO7,mp-505234,4.3622,1.3594291,0.0,"{56: 1, 15: 2, 82: 1, 8: 7}","[8, 15, 56, 82]",87152561821,Ba1P2Pb1O7
Ba2P2O7,mp-1019530,5.1483,0.54680166,0.0,"{56: 2, 15: 2, 8: 7}","[8, 15, 56]",87152562,Ba2P2O7
BaRe3S4O7,mp-1193342,0.0,2.38567088,1.107318680148147,"{56: 1, 75: 3, 16: 4, 8: 7}","[8, 16, 56, 75]",87164561753,Ba1Re3S4O7
Ba3As2S8O7,mp-1182848,0.08250000000000002,1.82313724,0.5154257792890657,"{56: 3, 33: 2, 16: 8, 8: 7}","[8, 16, 33, 56]",87168332563,Ba3As2S8O7
KBaV2CuClO7,mp-1223573,0.28390000000000004,1.15574576,0.022153120833340978,"{19: 1, 56: 1, 23: 2, 29: 1, 17: 1, 8: 7}","[8, 17, 19, 23, 29, 56]",87171191232291561,K1Ba1V2Cu1Cl1O7
KBa2V2ClO7,mp-1223502,3.2799,3.69535028,0.02088452365384974,"{19: 1, 56: 2, 23: 2, 17: 1, 8: 7}","[8, 17, 19, 23, 56]",87171191232562,K1Ba2V2Cl1O7
K2BaV2ClO7,mp-1211996,0.0,-0.51124036,0.1431716186778882,"{19: 2, 56: 1, 23: 2, 17: 1, 8: 7}","[8, 17, 19, 23, 56]",87171192232561,K2Ba1V2Cl1O7
Ba2V2CuClO7,mp-1214680,1.0395000000000003,2.93918524,0.0680572304326974,"{56: 2, 23: 2, 29: 1, 17: 1, 8: 7}","[8, 17, 23, 29, 56]",87171232291562,Ba2V2Cu1Cl1O7
Ba2Co4ClO7,mp-646670,0.0,3.05812783,0.032956619017854294,"{56: 2, 27: 4, 17: 1, 8: 7}","[8, 17, 27, 56]",87171274562,Ba2Co4Cl1O7
KBa2Bi2O7,mp-1223506,0.0,3.2162818,0.0,"{19: 1, 56: 2, 83: 2, 8: 7}","[8, 19, 56, 83]",87191562832,K1Ba2Bi2O7
BaCaV2O7,mp-19484,3.2318000000000002,0.21757107,9.023352273018759e-05,"{56: 1, 20: 1, 23: 2, 8: 7}","[8, 20, 23, 56]",87201232561,Ba1Ca1V2O7
BaCaFe2Co2O7,mp-1228404,0.0,3.05874622,0.0901541810851656,"{56: 1, 20: 1, 26: 2, 27: 2, 8: 7}","[8, 20, 26, 27, 56]",87201262272561,Ba1Ca1Fe2Co2O7
BaCaFe4O7,mp-1193438,1.5647000000000002,2.30128284,0.027601310700546833,"{56: 1, 20: 1, 26: 4, 8: 7}","[8, 20, 26, 56]",87201264561,Ba1Ca1Fe4O7
BaCaCo4O7,mp-562177,0.5924999999999998,3.03509275,0.46401829923077376,"{56: 1, 20: 1, 27: 4, 8: 7}","[8, 20, 27, 56]",87201274561,Ba1Ca1Co4O7
Ba2CaTlCu2O7,mp-632802,0.0,2.82371992,0.04441317975426706,"{56: 2, 20: 1, 81: 1, 29: 2, 8: 7}","[8, 20, 29, 56, 81]",87201292562811,Ba2Ca1Tl1Cu2O7
BaScZn3GaO7,mp-1192501,2.3120000000000003,1.73004456,0.006188101738791474,"{56: 1, 21: 1, 30: 3, 31: 1, 8: 7}","[8, 21, 30, 31, 56]",87211303311561,Ba1Sc1Zn3Ga1O7
BaLa2Sc2O7,mp-1197417,3.6458,3.99182058,0.0,"{56: 1, 57: 2, 21: 2, 8: 7}","[8, 21, 56, 57]",87212561572,Ba1La2Sc2O7
BaPr2Sc2O7,mp-1195909,3.5432999999999995,2.39220345,0.0,"{56: 1, 59: 2, 21: 2, 8: 7}","[8, 21, 56, 59]",87212561592,Ba1Pr2Sc2O7
BaNd2Sc2O7,mp-1198101,3.5251,2.35207249,0.0,"{56: 1, 60: 2, 21: 2, 8: 7}","[8, 21, 56, 60]",87212561602,Ba1Nd2Sc2O7
BaSm2Sc2O7,mp-1200892,3.5340000000000003,2.31427371,0.0,"{56: 1, 62: 2, 21: 2, 8: 7}","[8, 21, 56, 62]",87212561622,Ba1Sm2Sc2O7
BaEu2Sc2O7,mp-1200958,0.0,2.432958,0.1253493001388879,"{56: 1, 63: 2, 21: 2, 8: 7}","[8, 21, 56, 63]",87212561632,Ba1Eu2Sc2O7
BaGd2Sc2O7,mp-1202710,2.9688000000000003,5.25514796,0.0,"{56: 1, 64: 2, 21: 2, 8: 7}","[8, 21, 56, 64]",87212561642,Ba1Gd2Sc2O7
Ba2YTi2TlO7,mp-1046020,0.0,5.60395832,0.2375523718750001,"{56: 2, 39: 1, 22: 2, 81: 1, 8: 7}","[8, 22, 39, 56, 81]",87222391562811,Ba2Y1Ti2Tl1O7
Ba2Ti2TlO7,mp-1046030,0.13159999999999972,2.59731049,0.48676463347221866,"{56: 2, 22: 2, 81: 1, 8: 7}","[8, 22, 56, 81]",87222562811,Ba2Ti2Tl1O7
Ba3Ti2O7,mp-770118,2.2712,2.53514744,0.03187073125000239,"{56: 3, 22: 2, 8: 7}","[8, 22, 56]",87222563,Ba3Ti2O7
Ba2YTi3O7,mp-1047867,0.0,5.66891278,0.09613356456730848,"{56: 2, 39: 1, 22: 3, 8: 7}","[8, 22, 39, 56]",87223391562,Ba2Y1Ti3O7
Ba2Ti3O7,mp-1048209,0.0,3.70226868,0.28390539583332774,"{56: 2, 22: 3, 8: 7}","[8, 22, 56]",87223562,Ba2Ti3O7
BaYTi4O7,mp-1048118,0.0,5.84421096,0.17489955552885839,"{56: 1, 39: 1, 22: 4, 8: 7}","[8, 22, 39, 56]",87224391561,Ba1Y1Ti4O7
BaTi4O7,mp-1048199,0.0,3.96196131,0.3360904961666584,"{56: 1, 22: 4, 8: 7}","[8, 22, 56]",87224561,Ba1Ti4O7
BaV2CuO7,mp-541824,0.8088,1.10087758,0.010940839166678096,"{56: 1, 23: 2, 29: 1, 8: 7}","[8, 23, 29, 56]",87232291561,Ba1V2Cu1O7
BaV2ZnO7,mp-560496,3.0584,0.06661438,0.009739842613641692,"{56: 1, 23: 2, 30: 1, 8: 7}","[8, 23, 30, 56]",87232301561,Ba1V2Zn1O7
Ba2YTlV2O7,mp-1405850,0.0,4.57713782,0.2511593347075287,"{56: 2, 39: 1, 81: 1, 23: 2, 8: 7}","[8, 23, 39, 56, 81]",87232391562811,Ba2Y1Tl1V2O7
BaV2CdO7,mp-22822,2.7548,0.01968078,0.008811633068188662,"{56: 1, 23: 2, 48: 1, 8: 7}","[8, 23, 48, 56]",87232481561,Ba1V2Cd1O7
BaV2O7,mp-723402,0.5844999999999999,-1.15164752,0.20026334958333436,"{56: 1, 23: 2, 8: 7}","[8, 23, 56]",87232561,Ba1V2O7
Ba2V2O7,mp-19474,3.2509,-0.03967638,0.0,"{56: 2, 23: 2, 8: 7}","[8, 23, 56]",87232562,Ba2V2O7
Ba2TlV2O7,mp-1046359,0.0,3.25435052,0.4065953434652929,"{56: 2, 81: 1, 23: 2, 8: 7}","[8, 23, 56, 81]",87232562811,Ba2Tl1V2O7
Ba2YV3O7,mp-1048379,0.0,5.01324632,0.11986682957934036,"{56: 2, 39: 1, 23: 3, 8: 7}","[8, 23, 39, 56]",87233391562,Ba2Y1V3O7
Ba2V3O7,mp-1393209,0.0,2.69668912,0.3759518112499718,"{56: 2, 23: 3, 8: 7}","[8, 23, 56]",87233562,Ba2V3O7
BaYV4O7,mp-1048392,0.0,4.80916301,0.2307771671185357,"{56: 1, 39: 1, 23: 4, 8: 7}","[8, 23, 39, 56]",87234391561,Ba1Y1V4O7
BaV4O7,mp-1376683,1.2406000000000001,3.41776443,0.3172194845833136,"{56: 1, 23: 4, 8: 7}","[8, 23, 56]",87234561,Ba1V4O7
Ba2YTlCr2O7,mp-1046345,0.0,4.02484518,0.13080805010150076,"{56: 2, 39: 1, 81: 1, 24: 2, 8: 7}","[8, 24, 39, 56, 81]",87242391562811,Ba2Y1Tl1Cr2O7
BaCr2O7,mp-572430,2.3810000000000002,-1.28277143,0.0,"{56: 1, 24: 2, 8: 7}","[8, 24, 56]",87242561,Ba1Cr2O7
Ba2YCr3O7,mp-1048325,0.007800000000000473,4.5267773,0.056326721570512106,"{56: 2, 39: 1, 24: 3, 8: 7}","[8, 24, 39, 56]",87243391562,Ba2Y1Cr3O7
Ba2Cr3O7,mp-1048539,0.0,1.8403836,0.47250015130207235,"{56: 2, 24: 3, 8: 7}","[8, 24, 56]",87243562,Ba2Cr3O7
BaYCr4O7,mp-1048386,0.10650000000000048,4.08412442,0.33129540846151784,"{56: 1, 39: 1, 24: 4, 8: 7}","[8, 24, 39, 56]",87244391561,Ba1Y1Cr4O7
BaCr4O7,mp-1048371,0.8137999999999999,1.86458382,0.5080576152083367,"{56: 1, 24: 4, 8: 7}","[8, 24, 56]",87244561,Ba1Cr4O7
Ba2MnGe2O7,mp-1192147,2.4342999999999995,1.37135355,0.0,"{56: 2, 25: 1, 32: 2, 8: 7}","[8, 25, 32, 56]",87251322562,Ba2Mn1Ge2O7
Ba2YMn2TlO7,mp-1048447,0.0,3.37474961,0.08069497810218085,"{56: 2, 39: 1, 25: 2, 81: 1, 8: 7}","[8, 25, 39, 56, 81]",87252391562811,Ba2Y1Mn2Tl1O7
BaNd2Mn2O7,mp-18861,0.0,4.2412891,0.002730936755975577,"{56: 1, 60: 2, 25: 2, 8: 7}","[8, 25, 56, 60]",87252561602,Ba1Nd2Mn2O7
BaEu2Mn2O7,mp-1183437,0.0,3.16162951,0.09609050861108592,"{56: 1, 63: 2, 25: 2, 8: 7}","[8, 25, 56, 63]",87252561632,Ba1Eu2Mn2O7
BaGd2Mn2O7,mp-510248,0.0,4.19520873,0.021928458819481023,"{56: 1, 64: 2, 25: 2, 8: 7}","[8, 25, 56, 64]",87252561642,Ba1Gd2Mn2O7
BaTb2Mn2O7,mp-554136,0.6727999999999996,3.62355717,0.02154092184031775,"{56: 1, 65: 2, 25: 2, 8: 7}","[8, 25, 56, 65]",87252561652,Ba1Tb2Mn2O7
Ba2LaMn2O7,mp-1228437,0.0,4.49623464,0.05903069876851408,"{56: 2, 57: 1, 25: 2, 8: 7}","[8, 25, 56, 57]",87252562571,Ba2La1Mn2O7
Ba2Mn2TlO7,mp-1048461,0.0,1.59818624,0.3003592656943983,"{56: 2, 25: 2, 81: 1, 8: 7}","[8, 25, 56, 81]",87252562811,Ba2Mn2Tl1O7
Ba2YMn3O7,mp-1048321,0.0,3.83242419,0.04381131589423326,"{56: 2, 39: 1, 25: 3, 8: 7}","[8, 25, 39, 56]",87253391562,Ba2Y1Mn3O7
Ba2Mn3O7,mp-1048511,0.0,1.26778582,0.295024510138866,"{56: 2, 25: 3, 8: 7}","[8, 25, 56]",87253562,Ba2Mn3O7