formula,material_id,band_gap,efermi,energy_above_hull,comp_atoms,sorted_keys_comp_atoms,comp_number,new_formula
Ba4Sn3O10,mp-768510,1.1901000000000002,3.53055457,0.005834144411764441,"{56: 4, 50: 3, 8: 10}","[8, 50, 56]",810503564,Ba4Sn3O10
Ba2Tl2Sb3O10,mp-1046128,0.0,4.34371674,0.3355680024803922,"{56: 2, 81: 2, 51: 3, 8: 10}","[8, 51, 56, 81]",810513562812,Ba2Tl2Sb3O10
BaO10,mp-1182576,0.0,0.64692007,0.0,"{56: 1, 8: 10}","[8, 56]",810561,Ba1O10
Ba2Tl2W3O10,mp-1046584,0.0,3.57177281,0.43737444754900956,"{56: 2, 81: 2, 74: 3, 8: 10}","[8, 56, 74, 81]",810562743812,Ba2Tl2W3O10
Ba2Tl2Bi3O10,mp-1046253,0.0,2.85664539,0.1255915264215668,"{56: 2, 81: 2, 83: 3, 8: 10}","[8, 56, 81, 83]",810562812833,Ba2Tl2Bi3O10
Ba4Hf3O10,mp-779519,3.3987000000000003,2.1404365,0.005509497941176278,"{56: 4, 72: 3, 8: 10}","[8, 56, 72]",810564723,Ba4Hf3O10
Ba4Ir3O10,mp-17102,0.0,3.96428947,0.0,"{56: 4, 77: 3, 8: 10}","[8, 56, 77]",810564773,Ba4Ir3O10
Ba4Pb3O10,mp-752906,0.0,2.71709558,0.014855932352929813,"{56: 4, 82: 3, 8: 10}","[8, 56, 82]",810564823,Ba4Pb3O10
Ba4Na2W2O11,mp-1228581,3.6266,1.43498887,0.0,"{56: 4, 11: 2, 74: 2, 8: 11}","[8, 11, 56, 74]",811112564742,Ba4Na2W2O11
Ba2NaO,mp-1019519,0.0,1.23382912,0.0,"{56: 2, 11: 1, 8: 1}","[8, 11, 56]",81111562,Ba2Na1O1
Ba2Tb2MgTi2Cu2O11,mp-2230196,0.0,5.58030226,0.3308567054375011,"{56: 2, 65: 2, 12: 1, 22: 2, 29: 2, 8: 11}","[8, 12, 22, 29, 56, 65]",811121222292562652,Ba2Tb2Mg1Ti2Cu2O11
Ba2Nd2MgCo4O11,mp-2230098,0.0,3.48762114,0.2619673105000011,"{56: 2, 60: 2, 12: 1, 27: 4, 8: 11}","[8, 12, 27, 56, 60]",811121274562602,Ba2Nd2Mg1Co4O11
Ba2Tb2MgCo4O11,mp-2229990,0.0,3.73552432,0.31991854656252006,"{56: 2, 65: 2, 12: 1, 27: 4, 8: 11}","[8, 12, 27, 56, 65]",811121274562652,Ba2Tb2Mg1Co4O11
Ba5MgBi3O11,mp-2232039,0.0,2.58074591,0.08978736924999797,"{56: 5, 12: 1, 83: 3, 8: 11}","[8, 12, 56, 83]",811121565833,Ba5Mg1Bi3O11
Ba5AlRu2O11,mp-1214930,0.07860000000000023,3.42803539,0.0,"{56: 5, 13: 1, 44: 2, 8: 11}","[8, 13, 44, 56]",811131442565,Ba5Al1Ru2O11
Ba5AlIr2O11,mp-21742,0.0,3.4696446,0.0,"{56: 5, 13: 1, 77: 2, 8: 11}","[8, 13, 56, 77]",811131565772,Ba5Al1Ir2O11
BaFe3Si4SO11,mp-1214792,1.2626999999999997,5.77177226,0.13856325970833083,"{56: 1, 26: 3, 14: 4, 16: 1, 8: 11}","[8, 14, 16, 26, 56]",811144161263561,Ba1Fe3Si4S1O11
Ba2V2BiPO11,mp-1228794,2.9991999999999996,4.30912843,0.015305932205935235,"{56: 2, 23: 2, 83: 1, 15: 1, 8: 11}","[8, 15, 23, 56, 83]",811151232562831,Ba2V2Bi1P1O11
BaCr2PO11,mp-1194334,0.009700000000000042,-1.54065018,0.23024644289583396,"{56: 1, 24: 2, 15: 1, 8: 11}","[8, 15, 24, 56]",811151242561,Ba1Cr2P1O11
Ba2VP2O11,mp-863001,0.13229999999999997,0.43192794,0.18837718320312558,"{56: 2, 23: 1, 15: 2, 8: 11}","[8, 15, 23, 56]",811152231562,Ba2V1P2O11
Ba2Zn2TeP2O11,mp-1195039,4.1025,1.33857211,0.0,"{56: 2, 30: 2, 52: 1, 15: 2, 8: 11}","[8, 15, 30, 52, 56]",811152302521562,Ba2Zn2Te1P2O11
Ba2CdP3O11,mp-1188260,0.0,1.05815211,0.03499609610291632,"{56: 2, 48: 1, 15: 3, 8: 11}","[8, 15, 48, 56]",811153481562,Ba2Cd1P3O11
BaTlP3O11,mp-727096,0.6827,0.72380225,0.2027159359374915,"{56: 1, 81: 1, 15: 3, 8: 11}","[8, 15, 56, 81]",811153561811,Ba1Tl1P3O11
BaP4O11,mp-779518,5.2336,-1.1683146,0.0,"{56: 1, 15: 4, 8: 11}","[8, 15, 56]",811154561,Ba1P4O11
Ba2SnS4O11,mp-1204630,0.07040000000000002,1.81451187,0.3653185337500071,"{56: 2, 50: 1, 16: 4, 8: 11}","[8, 16, 50, 56]",811164501562,Ba2Sn1S4O11
BaCl2O11,mp-1194474,0.8434999999999999,-2.40187146,0.5017585583928588,"{56: 1, 17: 2, 8: 11}","[8, 17, 56]",811172561,Ba1Cl2O11
Ba2Cu4Te4Cl4O11,mp-561174,0.0,3.51924331,0.0015845935999925231,"{56: 2, 29: 4, 52: 4, 17: 4, 8: 11}","[8, 17, 29, 52, 56]",811174294524562,Ba2Cu4Te4Cl4O11
KBaV3Cd2O11,mp-1223694,3.0660000000000003,-0.25903629,0.0,"{19: 1, 56: 1, 23: 3, 48: 2, 8: 11}","[8, 19, 23, 48, 56]",811191233482561,K1Ba1V3Cd2O11
Ba2Ca3TlCu4O11,mp-1228589,0.0,3.26978672,0.02542795924602803,"{56: 2, 20: 3, 81: 1, 29: 4, 8: 11}","[8, 20, 29, 56, 81]",811203294562811,Ba2Ca3Tl1Cu4O11
Ba2ScV3O11,mp-1214840,3.2262,3.57820619,0.02254060764705379,"{56: 2, 21: 1, 23: 3, 8: 11}","[8, 21, 23, 56]",811211233562,Ba2Sc1V3O11
BaTi2Fe4O11,mp-1227638,1.6364,4.75811443,0.0671980008333346,"{56: 1, 22: 2, 26: 4, 8: 11}","[8, 22, 26, 56]",811222264561,Ba1Ti2Fe4O11
Ba2La2Ti2Cu2O11,mp-1214655,0.46140000000000025,5.28889849,0.01503720907895012,"{56: 2, 57: 2, 22: 2, 29: 2, 8: 11}","[8, 22, 29, 56, 57]",811222292562572,Ba2La2Ti2Cu2O11
Ba2NdDyTi2Cu2O11,mp-1214598,0.4175999999999993,4.16729456,0.024975202631583926,"{56: 2, 60: 1, 66: 1, 22: 2, 29: 2, 8: 11}","[8, 22, 29, 56, 60, 66]",811222292562601661,Ba2Nd1Dy1Ti2Cu2O11
Ba2Nd2Ti2Cu2O11,mp-557043,0.0,3.81080315,0.02196582947368686,"{56: 2, 60: 2, 22: 2, 29: 2, 8: 11}","[8, 22, 29, 56, 60]",811222292562602,Ba2Nd2Ti2Cu2O11
Ba2Sm2Ti2Cu2O11,mp-1214615,0.0,3.89600032,0.03416909355263531,"{56: 2, 62: 2, 22: 2, 29: 2, 8: 11}","[8, 22, 29, 56, 62]",811222292562622,Ba2Sm2Ti2Cu2O11
Ba2Eu2Ti2Cu2O11,mp-616471,0.0,3.21982322,0.08921179947369495,"{56: 2, 63: 2, 22: 2, 29: 2, 8: 11}","[8, 22, 29, 56, 63]",811222292562632,Ba2Eu2Ti2Cu2O11
Ba2Tb2Ti2Cu2O11,mp-505223,0.0,3.88261923,0.05606612046053794,"{56: 2, 65: 2, 22: 2, 29: 2, 8: 11}","[8, 22, 29, 56, 65]",811222292562652,Ba2Tb2Ti2Cu2O11
BaTi5O11,mp-27790,2.6235000000000004,2.16545013,0.007793255845589542,"{56: 1, 22: 5, 8: 11}","[8, 22, 56]",811225561,Ba1Ti5O11
BaTi6O11,mp-1227853,0.0,5.62011875,0.015167345006231514,"{56: 1, 22: 6, 8: 11}","[8, 22, 56]",811226561,Ba1Ti6O11
BaNb2V2O11,mp-1188841,2.1233,-0.41462679,0.0,"{56: 1, 41: 2, 23: 2, 8: 11}","[8, 23, 41, 56]",811232412561,Ba1Nb2V2O11
Ba2V2Te2O11,mp-1204192,3.2676000000000003,1.30379465,0.0015266498529618033,"{56: 2, 23: 2, 52: 2, 8: 11}","[8, 23, 52, 56]",811232522562,Ba2V2Te2O11
Ba2YV3O11,mp-1214954,3.4645,3.71707457,0.01676704441177357,"{56: 2, 39: 1, 23: 3, 8: 11}","[8, 23, 39, 56]",811233391562,Ba2Y1V3O11
Ba2V3InO11,mp-1214949,2.8449,3.5008826,0.02546911485295844,"{56: 2, 23: 3, 49: 1, 8: 11}","[8, 23, 49, 56]",811233491562,Ba2V3In1O11
Ba2LaV3O11,mp-1214937,3.5103,4.18244554,0.013139318676479661,"{56: 2, 57: 1, 23: 3, 8: 11}","[8, 23, 56, 57]",811233562571,Ba2La1V3O11
Ba2PrV3O11,mp-1214859,3.4927,3.70089,0.014420280441170163,"{56: 2, 59: 1, 23: 3, 8: 11}","[8, 23, 56, 59]",811233562591,Ba2Pr1V3O11
Ba2NdV3O11,mp-1214860,3.4924999999999997,3.69656276,0.01477125764705356,"{56: 2, 60: 1, 23: 3, 8: 11}","[8, 23, 56, 60]",811233562601,Ba2Nd1V3O11
Ba2SmV3O11,mp-1214884,3.501,3.68877595,0.015484918529406144,"{56: 2, 62: 1, 23: 3, 8: 11}","[8, 23, 56, 62]",811233562621,Ba2Sm1V3O11
Ba2EuV3O11,mp-1215052,0.035099999999999965,0.39998641,0.01001758838234501,"{56: 2, 63: 1, 23: 3, 8: 11}","[8, 23, 56, 63]",811233562631,Ba2Eu1V3O11
Ba2GdV3O11,mp-1215029,3.143,3.3243291,0.015042166617650565,"{56: 2, 64: 1, 23: 3, 8: 11}","[8, 23, 56, 64]",811233562641,Ba2Gd1V3O11
Ba2TbV3O11,mp-1214852,3.4739,3.74168217,0.017998926323539166,"{56: 2, 65: 1, 23: 3, 8: 11}","[8, 23, 56, 65]",811233562651,Ba2Tb1V3O11
Ba2DyV3O11,mp-1214963,3.4698,3.72583155,0.019624700147067742,"{56: 2, 66: 1, 23: 3, 8: 11}","[8, 23, 56, 66]",811233562661,Ba2Dy1V3O11
Ba2HoV3O11,mp-1214969,3.4518,3.68774197,0.019550818823523386,"{56: 2, 67: 1, 23: 3, 8: 11}","[8, 23, 56, 67]",811233562671,Ba2Ho1V3O11
Ba2ErV3O11,mp-1215102,3.4323,3.70857826,0.01926280926472579,"{56: 2, 68: 1, 23: 3, 8: 11}","[8, 23, 56, 68]",811233562681,Ba2Er1V3O11
Ba2V3BiO11,mp-559941,3.0455,0.76683076,0.0,"{56: 2, 23: 3, 83: 1, 8: 11}","[8, 23, 56, 83]",811233562831,Ba2V3Bi1O11
BaV6O11,mp-610232,0.0,5.1629772,0.017824910381996517,"{56: 1, 23: 6, 8: 11}","[8, 23, 56]",811236561,Ba1V6O11
BaMn2Fe4O11,mp-1228499,0.9487000000000005,4.00671474,0.03142958248016825,"{56: 1, 25: 2, 26: 4, 8: 11}","[8, 25, 26, 56]",811252264561,Ba1Mn2Fe4O11
BaMn2Ru4O11,mp-1228364,0.0,4.57562264,0.03904860152777179,"{56: 1, 25: 2, 44: 4, 8: 11}","[8, 25, 44, 56]",811252444561,Ba1Mn2Ru4O11
BaMn3Fe3O11,mp-1228385,0.6949999999999998,4.10414506,0.029791596596085768,"{56: 1, 25: 3, 26: 3, 8: 11}","[8, 25, 26, 56]",811253263561,Ba1Mn3Fe3O11
Ba2Y2Mn4O11,mp-1214593,0.11549999999999994,3.86294202,0.03647325239035659,"{56: 2, 39: 2, 25: 4, 8: 11}","[8, 25, 39, 56]",811254392562,Ba2Y2Mn4O11
Ba2La2Mn4O11,mp-1214651,0.08729999999999993,4.75141447,0.055774763580702214,"{56: 2, 57: 2, 25: 4, 8: 11}","[8, 25, 56, 57]",811254562572,Ba2La2Mn4O11
Ba2Tb2Mn4O11,mp-867516,0.25139999999999985,3.54941107,0.011325026600884414,"{56: 2, 65: 2, 25: 4, 8: 11}","[8, 25, 56, 65]",811254562652,Ba2Tb2Mn4O11
BaMn5O11,mp-1228224,0.0,2.67024976,0.223446992563046,"{56: 1, 25: 5, 8: 11}","[8, 25, 56]",811255561,Ba1Mn5O11
BaLaFe2Cu2O11,mp-705604,0.0,1.41099986,0.2965717924350688,"{56: 1, 57: 1, 26: 2, 29: 2, 8: 11}","[8, 26, 29, 56, 57]",811262292561571,Ba1La1Fe2Cu2O11
Ba2La2Fe2Cu2O11,mp-706229,0.0,4.76466131,0.10371965907894687,"{56: 2, 57: 2, 26: 2, 29: 2, 8: 11}","[8, 26, 29, 56, 57]",811262292562572,Ba2La2Fe2Cu2O11
Ba4Y2Fe2O11,mp-1194618,0.0,1.77121479,0.006475603519760398,"{56: 4, 39: 2, 26: 2, 8: 11}","[8, 26, 39, 56]",811262392564,Ba4Y2Fe2O11
BaFe4Sn2O11,mp-1228094,1.6460999999999997,5.63181808,0.015044481944444854,"{56: 1, 26: 4, 50: 2, 8: 11}","[8, 26, 50, 56]",811264502561,Ba1Fe4Sn2O11
Ba2Nd2Fe4O11,mp-704634,0.0,2.83778499,0.0,"{56: 2, 60: 2, 26: 4, 8: 11}","[8, 26, 56, 60]",811264562602,Ba2Nd2Fe4O11
Ba2Sm2Fe4O11,mp-704632,0.0,2.6104888,0.030562272406025492,"{56: 2, 62: 2, 26: 4, 8: 11}","[8, 26, 56, 62]",811264562622,Ba2Sm2Fe4O11
Ba2Fe4Bi2O11,mp-1228508,0.0,4.78550318,0.1323614255263097,"{56: 2, 26: 4, 83: 2, 8: 11}","[8, 26, 56, 83]",811264562832,Ba2Fe4Bi2O11
Ba4Fe4O11,mp-757712,0.0,2.57649569,0.0,"{56: 4, 26: 4, 8: 11}","[8, 26, 56]",811264564,Ba4Fe4O11
BaZnFe6O11,mp-1227632,1.0812,4.26727152,0.04992624868412587,"{56: 1, 30: 1, 26: 6, 8: 11}","[8, 26, 30, 56]",811266301561,Ba1Zn1Fe6O11
Ba2Fe6O11,mp-652683,1.6653,1.91164042,0.00960517223684132,"{56: 2, 26: 6, 8: 11}","[8, 26, 56]",811266562,Ba2Fe6O11
BaCo2Sn4O11,mp-1228162,0.0,6.21741546,0.03399917722221968,"{56: 1, 27: 2, 50: 4, 8: 11}","[8, 27, 50, 56]",811272504561,Ba1Co2Sn4O11
Ba2Y2Co4O11,mp-1214560,0.0,3.78518622,0.10581726598684504,"{56: 2, 39: 2, 27: 4, 8: 11}","[8, 27, 39, 56]",811274392562,Ba2Y2Co4O11
Ba2Pr2Co4O11,mp-1228571,0.0,3.3795191,0.030021330197366858,"{56: 2, 59: 2, 27: 4, 8: 11}","[8, 27, 56, 59]",811274562592,Ba2Pr2Co4O11
Ba2Nd2Co4O11,mp-1228483,0.3629000000000002,3.63933799,0.03524633592104909,"{56: 2, 60: 2, 27: 4, 8: 11}","[8, 27, 56, 60]",811274562602,Ba2Nd2Co4O11
Ba2Gd2Co4O11,mp-1189405,0.0,3.4985874,0.10445597894736558,"{56: 2, 64: 2, 27: 4, 8: 11}","[8, 27, 56, 64]",811274562642,Ba2Gd2Co4O11
Ba2Tb2Co4O11,mp-22456,0.0,3.65480965,0.09124536177630738,"{56: 2, 65: 2, 27: 4, 8: 11}","[8, 27, 56, 65]",811274562652,Ba2Tb2Co4O11
Ba2Dy2Co4O11,mp-1214700,0.0,3.67851727,0.10110039815788419,"{56: 2, 66: 2, 27: 4, 8: 11}","[8, 27, 56, 66]",811274562662,Ba2Dy2Co4O11
Ba2Ho2Co4O11,mp-25731,0.0,3.29861366,0.11292122493420909,"{56: 2, 67: 2, 27: 4, 8: 11}","[8, 27, 56, 67]",811274562672,Ba2Ho2Co4O11
BaCuRu5O11,mp-1214483,0.0,4.74439807,0.050132475694439904,"{56: 1, 29: 1, 44: 5, 8: 11}","[8, 29, 44, 56]",811291445561,Ba1Cu1Ru5O11
Ba2Cu2Te4Br2O11,mp-1199575,0.43240000000000034,3.04139625,0.0,"{56: 2, 29: 2, 52: 4, 35: 2, 8: 11}","[8, 29, 35, 52, 56]",811292352524562,Ba2Cu2Te4Br2O11
Ba4Tl4Cu2O11,mp-1228311,0.0,3.82423447,0.0604185879464314,"{56: 4, 81: 4, 29: 2, 8: 11}","[8, 29, 56, 81]",811292564814,Ba4Tl4Cu2O11
BaZnRu5O11,mp-1202499,0.0,4.73289869,0.03175936819444036,"{56: 1, 30: 1, 44: 5, 8: 11}","[8, 30, 44, 56]",811301445561,Ba1Zn1Ru5O11
Ba3Zn5In2O11,mp-560544,1.6191,2.27794431,0.0,"{56: 3, 30: 5, 49: 2, 8: 11}","[8, 30, 49, 56]",811305492563,Ba3Zn5In2O11
Ba3Lu2Zn5O11,mp-554066,2.2892,1.59444487,0.0016842998214228189,"{56: 3, 71: 2, 30: 5, 8: 11}","[8, 30, 56, 71]",811305563712,Ba3Lu2Zn5O11
Ba5GaRu2O11,mp-1215133,0.06420000000000003,3.34873435,0.0,"{56: 5, 31: 1, 44: 2, 8: 11}","[8, 31, 44, 56]",811311442565,Ba5Ga1Ru2O11
Ba2Ga6O11,mp-778485,2.6626000000000003,1.31716612,0.004376943157882174,"{56: 2, 31: 6, 8: 11}","[8, 31, 56]",811316562,Ba2Ga6O11
Ba2As6O11,mp-757280,3.1679000000000004,1.35953371,0.0,"{56: 2, 33: 6, 8: 11}","[8, 33, 56]",811336562,Ba2As6O11
BaMo2Se2O11,mp-554548,2.2489,0.38842592,0.0,"{56: 1, 42: 2, 34: 2, 8: 11}","[8, 34, 42, 56]",811342422561,Ba1Mo2Se2O11
BaBr2O11,mp-1193601,1.9657,-1.5942443,0.7015227198214262,"{56: 1, 35: 2, 8: 11}","[8, 35, 56]",811352561,Ba1Br2O11
Ba5Nb2O11,mp-1228322,2.4160999999999997,4.78701201,0.12654371750000948,"{56: 5, 41: 2, 8: 11}","[8, 41, 56]",811412565,Ba5Nb2O11
BaNb4O11,mp-1120749,2.6601,3.55562867,0.0177160637723901,"{56: 1, 41: 4, 8: 11}","[8, 41, 56]",811414561,Ba1Nb4O11
Ba3SiO,mp-755363,0.42169999999999996,3.07219881,0.0,"{56: 3, 14: 1, 8: 1}","[8, 14, 56]",81141563,Ba3Si1O1
Ba2Nb8O11,mp-753689,0.0,5.27340695,0.04639756984130372,"{56: 2, 41: 8, 8: 11}","[8, 41, 56]",811418562,Ba2Nb8O11
Ba5Ru2O11,mp-867790,0.3404999999999996,3.19901328,0.07805998643518386,"{56: 5, 44: 2, 8: 11}","[8, 44, 56]",811442565,Ba5Ru2O11
Ba4Ce2In2O11,mp-1228307,2.0237,2.98510781,0.016032554473678573,"{56: 4, 58: 2, 49: 2, 8: 11}","[8, 49, 56, 58]",811492564582,Ba4Ce2In2O11
Ba3Te4O11,mp-28102,3.2308999999999997,2.11666191,0.0,"{56: 3, 52: 4, 8: 11}","[8, 52, 56]",811524563,Ba3Te4O11
Ba4P2O,mp-28164,1.0411000000000001,2.3594111,0.0,"{56: 4, 15: 2, 8: 1}","[8, 15, 56]",81152564,Ba4P2O1
BaTa4O11,mp-769399,3.4594000000000005,1.21533512,0.002548091432293731,"{56: 1, 73: 4, 8: 11}","[8, 56, 73]",811561734,Ba1Ta4O11
Ba2Bi6O11,mp-674537,1.8359,3.94390145,0.24197828499999918,"{56: 2, 83: 6, 8: 11}","[8, 56, 83]",811562836,Ba2Bi6O11
Ba4Bi3O11,mp-755667,0.0,2.62940247,0.05202096777777854,"{56: 4, 83: 3, 8: 11}","[8, 56, 83]",811564833,Ba4Bi3O11
Ba5Bi3O11,mp-753124,0.0,3.76895932,0.04778622105262542,"{56: 5, 83: 3, 8: 11}","[8, 56, 83]",811565833,Ba5Bi3O11
BaCoSO,mp-1078227,0.0,3.42346295,0.10103641312499967,"{56: 1, 27: 1, 16: 1, 8: 1}","[8, 16, 27, 56]",81161271561,Ba1Co1S1O1
BaCuSO,mp-1147561,0.0,3.42041208,0.2047727743749972,"{56: 1, 29: 1, 16: 1, 8: 1}","[8, 16, 29, 56]",81161291561,Ba1Cu1S1O1
BaZnSO,mp-548469,2.2367,2.38654099,0.0,"{56: 1, 30: 1, 16: 1, 8: 1}","[8, 16, 30, 56]",81161301561,Ba1Zn1S1O1
Ba6Ti5S15O,mp-555781,0.6964999999999999,3.90918352,0.0,"{56: 6, 22: 5, 16: 15, 8: 1}","[8, 16, 22, 56]",811615225566,Ba6Ti5S15O1
K4BaTi6S20O,mp-1224564,1.1301,2.96623278,0.0006450993554674156,"{19: 4, 56: 1, 22: 6, 16: 20, 8: 1}","[8, 16, 19, 22, 56]",811620194226561,K4Ba1Ti6S20O1
BaFe2S2O,mp-1095213,0.0,2.88357387,0.03130335083333424,"{56: 1, 26: 2, 16: 2, 8: 1}","[8, 16, 26, 56]",81162262561,Ba1Fe2S2O1
Ba14U2V4S25O,mp-1229227,0.3449,3.60703636,0.06853032024455619,"{56: 14, 92: 2, 23: 4, 16: 25, 8: 1}","[8, 16, 23, 56, 92]",8116252345614922,Ba14U2V4S25O1
Ba14U2Fe4S25O,mp-1229282,0.4905000000000004,3.52874857,0.05541357296195493,"{56: 14, 92: 2, 26: 4, 16: 25, 8: 1}","[8, 16, 26, 56, 92]",8116252645614922,Ba14U2Fe4S25O1
BaAgSbS3O,mp-1195220,0.0,1.9471355,0.39693319683035977,"{56: 1, 47: 1, 51: 1, 16: 3, 8: 1}","[8, 16, 47, 51, 56]",81163471511561,Ba1Ag1Sb1S3O1
BaS4O,mp-1182185,0.0,1.85007293,0.4252568406249999,"{56: 1, 16: 4, 8: 1}","[8, 16, 56]",81164561,Ba1S4O1
Ba2ZnGe2S6O,mp-17244,2.1081000000000003,1.52947604,0.0,"{56: 2, 30: 1, 32: 2, 16: 6, 8: 1}","[8, 16, 30, 32, 56]",81166301322562,Ba2Zn1Ge2S6O1
BaClO,mp-1214435,0.41309999999999997,0.37812918,0.2334882772000011,"{56: 1, 17: 1, 8: 1}","[8, 17, 56]",81171561,Ba1Cl1O1
BaCl2O,mp-725961,0.0,-0.24788409,0.7868288346874941,"{56: 1, 17: 2, 8: 1}","[8, 17, 56]",81172561,Ba1Cl2O1
Ba4Cl6O,mp-23063,4.3647,0.52821581,0.0,"{56: 4, 17: 6, 8: 1}","[8, 17, 56]",81176564,Ba4Cl6O1
KBa4Sb3O,mp-557761,1.0220000000000002,2.73597499,0.0,"{19: 1, 56: 4, 51: 3, 8: 1}","[8, 19, 51, 56]",81191513564,K1Ba4Sb3O1
KBa4Bi3O,mp-23571,0.7393000000000001,2.57877098,0.0,"{19: 1, 56: 4, 83: 3, 8: 1}","[8, 19, 56, 83]",81191564833,K1Ba4Bi3O1
BaNaPSO12,mp-1199379,0.0,1.26304658,0.6761739669270819,"{56: 1, 11: 1, 15: 1, 16: 1, 8: 12}","[8, 11, 15, 16, 56]",812111151161561,Ba1Na1P1S1O12
BaNaIn2(PO4)3,mp-677179,3.3426,1.98436933,0.017595419210516106,"{56: 1, 11: 1, 49: 2, 15: 3, 8: 12}","[8, 11, 15, 49, 56]",812111153492561,Ba1Na1In2P3O12
Ba2NaLaTi4O12,mp-1228472,1.7800000000000002,3.66202816,0.024483822218785534,"{56: 2, 11: 1, 57: 1, 22: 4, 8: 12}","[8, 11, 22, 56, 57]",812111224562571,Ba2Na1La1Ti4O12
Ba4Na(RuO4)3,mp-542286,0.0,3.4537612,0.0,"{56: 4, 11: 1, 44: 3, 8: 12}","[8, 11, 44, 56]",812111443564,Ba4Na1Ru3O12
Ba4Na(SbO4)3,mp-6273,1.5158000000000005,3.34454889,0.0,"{56: 4, 11: 1, 51: 3, 8: 12}","[8, 11, 51, 56]",812111513564,Ba4Na1Sb3O12
Ba4Na(IrO4)3,mp-1228077,0.0,3.66378467,0.08215124365624327,"{56: 4, 11: 1, 77: 3, 8: 12}","[8, 11, 56, 77]",812111564773,Ba4Na1Ir3O12
Ba4Na(BiO4)3,mp-559352,0.2816000000000001,2.62489008,0.0,"{56: 4, 11: 1, 83: 3, 8: 12}","[8, 11, 56, 83]",812111564833,Ba4Na1Bi3O12
Ba6MgNb2Ir(ClO6)2,mp-2220391,0.056299999999999795,2.46267728,0.13349273335937895,"{56: 6, 12: 1, 41: 2, 77: 1, 17: 2, 8: 12}","[8, 12, 17, 41, 56, 77]",812121172412566771,Ba6Mg1Nb2Ir1Cl2O12
Ba2La2MgTi3O12,mp-695403,1.9234,4.56846243,0.02683556587499858,"{56: 2, 57: 2, 12: 1, 22: 3, 8: 12}","[8, 12, 22, 56, 57]",812121223562572,Ba2La2Mg1Ti3O12
Ba2La2MgMn(WO6)2,mp-2230028,2.2645999999999997,4.74621118,0.13257776151666611,"{56: 2, 57: 2, 12: 1, 25: 1, 74: 2, 8: 12}","[8, 12, 25, 56, 57, 74]",812121251562572742,Ba2La2Mg1Mn1W2O12
Ba4MgCo(ReO6)2,mp-2230422,0.0,4.37579612,0.08403658575001494,"{56: 4, 12: 1, 27: 1, 75: 2, 8: 12}","[8, 12, 27, 56, 75]",812121271564752,Ba4Mg1Co1Re2O12
Ba2La2MgZn(WO6)2,mp-2230018,1.6864999999999997,5.3176296,0.22832260229167822,"{56: 2, 57: 2, 12: 1, 30: 1, 74: 2, 8: 12}","[8, 12, 30, 56, 57, 74]",812121301562572742,Ba2La2Mg1Zn1W2O12
Ba4Mg(GeO3)4,mp-1233553,2.3638000000000003,1.52670291,0.1297184238492033,"{56: 4, 12: 1, 32: 4, 8: 12}","[8, 12, 32, 56]",812121324564,Ba4Mg1Ge4O12
Ba2MgNb4O12,mp-2230428,0.0,4.64540217,0.10645152419473014,"{56: 2, 12: 1, 41: 4, 8: 12}","[8, 12, 41, 56]",812121414562,Ba2Mg1Nb4O12
Ba4Mg(RhO3)4,mp-1233441,0.0,3.47927132,0.13134044090211372,"{56: 4, 12: 1, 45: 4, 8: 12}","[8, 12, 45, 56]",812121454564,Ba4Mg1Rh4O12
Ba3LaMgIn(WO6)2,mp-2230108,1.843,4.71961005,0.15811842888194416,"{56: 3, 57: 1, 12: 1, 49: 1, 74: 2, 8: 12}","[8, 12, 49, 56, 57, 74]",812121491563571742,Ba3La1Mg1In1W2O12
Ba4Mg(BiO4)3,mp-1147558,0.2362000000000002,3.80793671,0.0,"{56: 4, 12: 1, 83: 3, 8: 12}","[8, 12, 56, 83]",812121564833,Ba4Mg1Bi3O12
Ba2La2Mg2TiWO12,mp-534904,0.0,7.50592632,0.06290249137500226,"{56: 2, 57: 2, 12: 2, 22: 1, 74: 1, 8: 12}","[8, 12, 22, 56, 57, 74]",812122221562572741,Ba2La2Mg2Ti1W1O12
Ba2Mg3Ti4Tl2O12,mp-1342134,0.0,5.7249884,0.4208236508472716,"{56: 2, 12: 3, 22: 4, 81: 2, 8: 12}","[8, 12, 22, 56, 81]",812123224562812,Ba2Mg3Ti4Tl2O12
Ba2Mg3Mn4Tl2O12,mp-1047595,0.0,3.48777607,0.2632752939854752,"{56: 2, 12: 3, 25: 4, 81: 2, 8: 12}","[8, 12, 25, 56, 81]",812123254562812,Ba2Mg3Mn4Tl2O12
Ba2Mg3Tl2(FeO3)4,mp-1811371,0.0,4.5721786,0.31869859329192796,"{56: 2, 12: 3, 81: 2, 26: 4, 8: 12}","[8, 12, 26, 56, 81]",812123264562812,Ba2Mg3Tl2Fe4O12
Ba2Mg3Tl2(CoO3)4,mp-1046344,0.0,4.85538261,0.400382584769023,"{56: 2, 12: 3, 81: 2, 27: 4, 8: 12}","[8, 12, 27, 56, 81]",812123274562812,Ba2Mg3Tl2Co4O12
Ba2Mg3Tl2(CuO3)4,mp-1813048,0.0,4.91508281,0.15017521818840507,"{56: 2, 12: 3, 81: 2, 29: 4, 8: 12}","[8, 12, 29, 56, 81]",812123294562812,Ba2Mg3Tl2Cu4O12
Ba2Mg3Tl2(SnO3)4,mp-1368253,0.0,5.3524256,0.48764670905798013,"{56: 2, 12: 3, 81: 2, 50: 4, 8: 12}","[8, 12, 50, 56, 81]",812123504562812,Ba2Mg3Tl2Sn4O12
Ba2Mg3Tl2(WO3)4,mp-1340768,0.0,4.90083821,0.7284153979710126,"{56: 2, 12: 3, 81: 2, 74: 4, 8: 12}","[8, 12, 56, 74, 81]",812123562744812,Ba2Mg3Tl2W4O12
Ba3Al2(SiO4)3,mp-14049,3.2933,3.29367752,0.2723653661874934,"{56: 3, 13: 2, 14: 3, 8: 12}","[8, 13, 14, 56]",812132143563,Ba3Al2Si3O12
Ba3Al2Ga2(FeO6)2,mp-1229132,3.2184,0.96162665,0.014656707023792848,"{56: 3, 13: 2, 31: 2, 26: 2, 8: 12}","[8, 13, 26, 31, 56]",812132262312563,Ba3Al2Ga2Fe2O12