formula,material_id,band_gap,efermi,energy_above_hull,comp_atoms,sorted_keys_comp_atoms,comp_number,new_formula
Ba3Os3N5,mp-1246675,0.0,4.65167939,0.21970579636364373,"{56: 3, 76: 3, 7: 5}","[7, 56, 76]",75563763,Ba3Os3N5
Ba3Ir3N5,mp-1246471,0.0,4.27261357,0.2092592977272787,"{56: 3, 77: 3, 7: 5}","[7, 56, 77]",75563773,Ba3Ir3N5
Ba3Bi3N5,mp-1247542,1.2271999999999998,4.99603608,0.45600707193182277,"{56: 3, 83: 3, 7: 5}","[7, 56, 83]",75563833,Ba3Bi3N5
Ba2Tl(NO2)5,mp-642318,0.7217999999999999,0.53200622,0.26689328953993563,"{56: 2, 81: 1, 7: 5, 8: 10}","[7, 8, 56, 81]",75810562811,Ba2Tl1N5O10
Ba3Si3N5ClO,mp-677613,1.835,4.42087551,0.03998083007211939,"{56: 3, 14: 3, 7: 5, 17: 1, 8: 1}","[7, 8, 14, 17, 56]",7581143171563,Ba3Si3N5Cl1O1
BaAlSi4N5O3,mp-1019537,3.2165,4.51164659,0.03681082804626179,"{56: 1, 13: 1, 14: 4, 7: 5, 8: 3}","[7, 8, 13, 14, 56]",7583131144561,Ba1Al1Si4N5O3
Ba14Na14CaN6,mp-6645,0.0,1.40469394,0.0,"{56: 14, 11: 14, 20: 1, 7: 6}","[7, 11, 20, 56]",7611142015614,Ba14Na14Ca1N6
Ba14Na17CaN6,mp-542834,0.0,1.16815983,0.007978991206896602,"{56: 14, 11: 17, 20: 1, 7: 6}","[7, 11, 20, 56]",7611172015614,Ba14Na17Ca1N6
Ba14Na21CaN6,mp-570644,0.0,1.21132856,0.00794022429392438,"{56: 14, 11: 21, 20: 1, 7: 6}","[7, 11, 20, 56]",7611212015614,Ba14Na21Ca1N6
Ba14Na7CaN6,mp-570449,0.0,1.51564601,0.0,"{56: 14, 11: 7, 20: 1, 7: 6}","[7, 11, 20, 56]",761172015614,Ba14Na7Ca1N6
Ba14Na8CaN6,mp-777942,0.0,1.45581353,0.0039283977093624856,"{56: 14, 11: 8, 20: 1, 7: 6}","[7, 11, 20, 56]",761182015614,Ba14Na8Ca1N6
Ba4Mg(SiN3)2,mp-1019517,1.5934999999999997,3.81867829,0.0,"{56: 4, 12: 1, 14: 2, 7: 6}","[7, 12, 14, 56]",76121142564,Ba4Mg1Si2N6
Ba7SiN6,mp-1245389,0.8496000000000001,3.30045138,0.07269366440476244,"{56: 7, 14: 1, 7: 6}","[7, 14, 56]",76141567,Ba7Si1N6
Ba3Ca2(SiN3)2,mp-1019520,1.565,3.85073957,0.0,"{56: 3, 20: 2, 14: 2, 7: 6}","[7, 14, 20, 56]",76142202563,Ba3Ca2Si2N6
Ba5(SiN3)2,mp-29060,1.4009,3.68942733,0.014816965256409631,"{56: 5, 14: 2, 7: 6}","[7, 14, 56]",76142565,Ba5Si2N6
Ba7TiN6,mp-1245657,1.1057000000000001,2.90333884,0.05483191696428502,"{56: 7, 22: 1, 7: 6}","[7, 22, 56]",76221567,Ba7Ti1N6
Ba5(TiN3)2,mp-28926,1.4748000000000006,2.89201182,0.0,"{56: 5, 22: 2, 7: 6}","[7, 22, 56]",76222565,Ba5Ti2N6
Ba7GeN6,mp-1245756,0.9194,2.88111749,0.07026500750000153,"{56: 7, 32: 1, 7: 6}","[7, 32, 56]",76321567,Ba7Ge1N6
Ba5(GeN3)2,mp-1246227,1.4705,4.14963535,0.05007510576923213,"{56: 5, 32: 2, 7: 6}","[7, 32, 56]",76322565,Ba5Ge2N6
Ba7ZrN6,mp-1245936,1.0025,2.6034483,0.052665149404762523,"{56: 7, 40: 1, 7: 6}","[7, 40, 56]",76401567,Ba7Zr1N6
Ba5Zr2N6,mp-1246780,1.3033,3.2538779,0.07918212102564137,"{56: 5, 40: 2, 7: 6}","[7, 40, 56]",76402565,Ba5Zr2N6
Ba7SnN6,mp-1246481,0.9098999999999999,3.37567072,0.1400337843452375,"{56: 7, 50: 1, 7: 6}","[7, 50, 56]",76501567,Ba7Sn1N6
Ba5(SnN3)2,mp-1246390,1.4014000000000002,4.43461733,0.22228913230769365,"{56: 5, 50: 2, 7: 6}","[7, 50, 56]",76502565,Ba5Sn2N6
BaN6,mp-1707,3.8146000000000004,0.28782295,0.0,"{56: 1, 7: 6}","[7, 56]",76561,Ba1N6
Ba5Hf2N6,mp-1246779,1.3443999999999998,3.36243439,0.07569860948717988,"{56: 5, 72: 2, 7: 6}","[7, 56, 72]",76565722,Ba5Hf2N6
Ba7HfN6,mp-1246932,1.0038,2.62149478,0.05340463351190472,"{56: 7, 72: 1, 7: 6}","[7, 56, 72]",76567721,Ba7Hf1N6
K2BaMgCo(NO2)6,mp-1233485,0.0,2.09702977,0.32069717418629917,"{19: 2, 56: 1, 12: 1, 27: 1, 7: 6, 8: 12}","[7, 8, 12, 19, 27, 56]",76812121192271561,K2Ba1Mg1Co1N6O12
K2BaCo(NO2)6,mp-18823,1.0293,1.50628242,0.12410889295454464,"{19: 2, 56: 1, 27: 1, 7: 6, 8: 12}","[7, 8, 19, 27, 56]",76812192271561,K2Ba1Co1N6O12
K2BaCu(NO2)6,mp-12145,0.22810000000000008,1.06364898,0.14399745020202648,"{19: 2, 56: 1, 29: 1, 7: 6, 8: 12}","[7, 8, 19, 29, 56]",76812192291561,K2Ba1Cu1N6O12
BaN6O,mp-1182281,0.022899999999999997,0.01666335,0.7432488018749996,"{56: 1, 7: 6, 8: 1}","[7, 8, 56]",7681561,Ba1N6O1
Ba6Re2N6O,mp-1104571,0.0,4.07136936,0.0,"{56: 6, 75: 2, 7: 6, 8: 1}","[7, 8, 56, 75]",7681566752,Ba6Re2N6O1
Ba6Os2N6O,mp-1104257,0.0,3.91602956,0.0,"{56: 6, 76: 2, 7: 6, 8: 1}","[7, 8, 56, 76]",7681566762,Ba6Os2N6O1
BaYSi4N7,mp-11670,2.7326999999999995,5.75001054,0.0,"{56: 1, 39: 1, 14: 4, 7: 7}","[7, 14, 39, 56]",77144391561,Ba1Y1Si4N7
Ba14In4Cu2N7,mp-1205241,0.0,3.23513029,0.052998486901232766,"{56: 14, 49: 4, 29: 2, 7: 7}","[7, 29, 49, 56]",772924945614,Ba14In4Cu2N7
Ba6Ge2N7,mp-1228029,0.0,2.2913813,0.14634648388888838,"{56: 6, 32: 2, 7: 7}","[7, 32, 56]",77322566,Ba6Ge2N7
Ba4Ir3N7,mp-1245380,0.0743999999999998,4.11942006,0.29963810035714467,"{56: 4, 77: 3, 7: 7}","[7, 56, 77]",77564773,Ba4Ir3N7
K4Ba2N7O16,mp-695895,1.6305,1.56965649,0.397596016172411,"{19: 4, 56: 2, 7: 7, 8: 16}","[7, 8, 19, 56]",77816194562,K4Ba2N7O16
BaAlSi5N7O2,mp-1227994,4.015899999999999,4.93237853,0.0,"{56: 1, 13: 1, 14: 5, 7: 7, 8: 2}","[7, 8, 13, 14, 56]",7782131145561,Ba1Al1Si5N7O2
Ba2Si5N8,mp-9711,2.8815999999999997,5.58122975,0.0,"{56: 2, 14: 5, 7: 8}","[7, 14, 56]",78145562,Ba2Si5N8
Ba(Si3N4)2,mp-567771,3.2602,5.72482551,0.0,"{56: 1, 14: 6, 7: 8}","[7, 14, 56]",78146561,Ba1Si6N8
Ba3Ca3(MoN4)2,mp-1228693,2.2313,4.82078508,0.0,"{56: 3, 20: 3, 42: 2, 7: 8}","[7, 20, 42, 56]",78203422563,Ba3Ca3Mo2N8
Ba8Mn3N8,mp-1245975,0.0,3.53397077,0.060041629509979266,"{56: 8, 25: 3, 7: 8}","[7, 25, 56]",78253568,Ba8Mn3N8
Ba8Fe3N8,mp-1246245,0.0,3.61137231,0.05374443245613936,"{56: 8, 26: 3, 7: 8}","[7, 26, 56]",78263568,Ba8Fe3N8
BaSi6N8O,mp-557414,4.2279,5.20854622,0.0,"{56: 1, 14: 6, 7: 8, 8: 1}","[7, 8, 14, 56]",7881146561,Ba1Si6N8O1
BaPb3(NO3)8,mp-1228119,3.5843,0.0601905,0.0019786637500009974,"{56: 1, 82: 3, 7: 8, 8: 24}","[7, 8, 56, 82]",78824561823,Ba1Pb3N8O24
Ba3P6(N4O3)2,mp-1019524,4.549800000000001,3.9741596,0.0,"{56: 3, 15: 6, 7: 8, 8: 6}","[7, 8, 15, 56]",7886156563,Ba3P6N8O6
Ba8(MnN3)3,mp-1246254,0.0013999999999998458,3.70724158,0.012131307124999324,"{56: 8, 25: 3, 7: 9}","[7, 25, 56]",79253568,Ba8Mn3N9
Ba19(InN)9,mp-684007,0.0,3.05370158,0.023355482963963503,"{56: 19, 49: 9, 7: 9}","[7, 49, 56]",794995619,Ba19In9N9
Ba10Ta10(N3O7)3,mp-40160,0.0,4.8828014,0.01635099033812004,"{56: 10, 73: 10, 7: 9, 8: 21}","[7, 8, 56, 73]",7982156107310,Ba10Ta10N9O21
Ba2MgTi3Tl2O10,mp-2228865,1.1396999999999995,3.36257279,0.23048812569445953,"{56: 2, 12: 1, 22: 3, 81: 2, 8: 10}","[8, 12, 22, 56, 81]",810121223562812,Ba2Mg1Ti3Tl2O10
Ba4MgTi3O10,mp-2228346,0.0,5.62248088,0.13543240277777358,"{56: 4, 12: 1, 22: 3, 8: 10}","[8, 12, 22, 56]",810121223564,Ba4Mg1Ti3O10
Ba6MgCr2O10,mp-2230831,1.3093,2.72503397,0.1514030490789482,"{56: 6, 12: 1, 24: 2, 8: 10}","[8, 12, 24, 56]",810121242566,Ba6Mg1Cr2O10
Ba2MgMn3Tl2Zn2O10,mp-2230022,0.0,3.2882044,0.22790484274999834,"{56: 2, 12: 1, 25: 3, 81: 2, 30: 2, 8: 10}","[8, 12, 25, 30, 56, 81]",810121253302562812,Ba2Mg1Mn3Tl2Zn2O10
Ba2MgMn3Tl2O10,mp-2228435,0.0,3.81063192,0.10088362853953381,"{56: 2, 12: 1, 25: 3, 81: 2, 8: 10}","[8, 12, 25, 56, 81]",810121253562812,Ba2Mg1Mn3Tl2O10
Ba2Y2Mg(Fe2O5)2,mp-1233074,0.9007000000000005,3.48282227,0.17008025899122625,"{56: 2, 39: 2, 12: 1, 26: 4, 8: 10}","[8, 12, 26, 39, 56]",810121264392562,Ba2Y2Mg1Fe4O10
Ba2Nd2Mg(Fe2O5)2,mp-2230169,1.5235999999999996,3.33946641,0.14083339245613935,"{56: 2, 60: 2, 12: 1, 26: 4, 8: 10}","[8, 12, 26, 56, 60]",810121264562602,Ba2Nd2Mg1Fe4O10
Ba4Mg(Fe2O5)2,mp-2230883,0.3057000000000003,3.78031071,0.08279459830826763,"{56: 4, 12: 1, 26: 4, 8: 10}","[8, 12, 26, 56]",810121264564,Ba4Mg1Fe4O10
Ba4Mg(Co2O5)2,mp-2230717,0.0,3.03400652,0.11192867425438902,"{56: 4, 12: 1, 27: 4, 8: 10}","[8, 12, 27, 56]",810121274564,Ba4Mg1Co4O10
Ba2Pr4Mg(CuO5)2,mp-2231373,0.18740000000000023,4.92570651,0.3373679599342143,"{56: 2, 59: 4, 12: 1, 29: 2, 8: 10}","[8, 12, 29, 56, 59]",810121292562594,Ba2Pr4Mg1Cu2O10
Ba2Nd4Mg(CuO5)2,mp-2231603,0.4963999999999995,4.74412306,0.30522847894734184,"{56: 2, 60: 4, 12: 1, 29: 2, 8: 10}","[8, 12, 29, 56, 60]",810121292562604,Ba2Nd4Mg1Cu2O10
CsBa2MgNb3O10,mp-2229490,0.0,4.45428967,0.1864640643382396,"{55: 1, 56: 2, 12: 1, 41: 3, 8: 10}","[8, 12, 41, 55, 56]",810121413551562,Cs1Ba2Mg1Nb3O10
Ba2Mg2Ti3Tl2O10,mp-1046139,0.0,5.45223871,0.42028062201754324,"{56: 2, 12: 2, 22: 3, 81: 2, 8: 10}","[8, 12, 22, 56, 81]",810122223562812,Ba2Mg2Ti3Tl2O10
Ba2Mg2Tl2Cr3O10,mp-1324064,0.0,3.69164144,0.29060979815786236,"{56: 2, 12: 2, 81: 2, 24: 3, 8: 10}","[8, 12, 24, 56, 81]",810122243562812,Ba2Mg2Tl2Cr3O10
Ba2Mg2Mn3Tl2O10,mp-1046498,0.0,3.7942501,0.191406057192971,"{56: 2, 12: 2, 25: 3, 81: 2, 8: 10}","[8, 12, 25, 56, 81]",810122253562812,Ba2Mg2Mn3Tl2O10
Ba2Mg2Tl2Fe3O10,mp-1046553,0.0,4.20238938,0.23922219986372362,"{56: 2, 12: 2, 81: 2, 26: 3, 8: 10}","[8, 12, 26, 56, 81]",810122263562812,Ba2Mg2Tl2Fe3O10
Ba2Mg2Tl2Co3O10,mp-1046491,0.0,4.37069722,0.1676852031579008,"{56: 2, 12: 2, 81: 2, 27: 3, 8: 10}","[8, 12, 27, 56, 81]",810122273562812,Ba2Mg2Tl2Co3O10
Ba2Mg2Tl2Cu3O10,mp-1046126,0.0,4.07726435,0.11371059622807334,"{56: 2, 12: 2, 81: 2, 29: 3, 8: 10}","[8, 12, 29, 56, 81]",810122293562812,Ba2Mg2Tl2Cu3O10
Ba2Mg2Tl2Sn3O10,mp-1046198,0.0,5.19626218,0.3093877259649105,"{56: 2, 12: 2, 81: 2, 50: 3, 8: 10}","[8, 12, 50, 56, 81]",810122503562812,Ba2Mg2Tl2Sn3O10
Ba2Mg2Tl2W3O10,mp-1046499,0.11300000000000043,4.70291655,0.5314753946491209,"{56: 2, 12: 2, 81: 2, 74: 3, 8: 10}","[8, 12, 56, 74, 81]",810122562743812,Ba2Mg2Tl2W3O10
Ba4Al(IrO5)2,mp-1228412,0.0,3.78446114,0.0269541650259697,"{56: 4, 13: 1, 77: 2, 8: 10}","[8, 13, 56, 77]",810131564772,Ba4Al1Ir2O10
BaAl2(SiO5)2,mp-1204499,1.2854999999999999,1.83290874,0.3565949837500044,"{56: 1, 13: 2, 14: 2, 8: 10}","[8, 13, 14, 56]",810132142561,Ba1Al2Si2O10
BaAl2Si3(W2O5)2,mp-1214647,0.0,4.37195942,1.3169921490833305,"{56: 1, 13: 2, 14: 3, 74: 4, 8: 10}","[8, 13, 14, 56, 74]",810132143561744,Ba1Al2Si3W4O10
BaAl2(PO5)2,mp-726645,0.011500000000000288,2.42978299,0.12373670850253049,"{56: 1, 13: 2, 15: 2, 8: 10}","[8, 13, 15, 56]",810132152561,Ba1Al2P2O10
BaTiMn2(SiO5)2,mp-1200625,0.0,2.76332681,0.07120069177498678,"{56: 1, 22: 1, 25: 2, 14: 2, 8: 10}","[8, 14, 22, 25, 56]",810142221252561,Ba1Ti1Mn2Si2O10
BaTiFe2(SiO5)2,mp-1202235,0.0,2.18394626,0.10755999503906288,"{56: 1, 22: 1, 26: 2, 14: 2, 8: 10}","[8, 14, 22, 26, 56]",810142221262561,Ba1Ti1Fe2Si2O10
Ba2In2Si3SO10,mp-1194952,2.8920000000000003,2.67907739,0.0,"{56: 2, 49: 2, 14: 3, 16: 1, 8: 10}","[8, 14, 16, 49, 56]",810143161492562,Ba2In2Si3S1O10
BaSc2Si3O10,mp-1194834,4.758,2.42852112,0.0,"{56: 1, 21: 2, 14: 3, 8: 10}","[8, 14, 21, 56]",810143212561,Ba1Sc2Si3O10
Ba2Si3GeO10,mp-1228564,4.1604,0.68212608,0.012626326406270039,"{56: 2, 14: 3, 32: 1, 8: 10}","[8, 14, 32, 56]",810143321562,Ba2Si3Ge1O10
BaY2Si3O10,mp-560478,4.8161000000000005,2.00589436,0.0,"{56: 1, 39: 2, 14: 3, 8: 10}","[8, 14, 39, 56]",810143392561,Ba1Y2Si3O10
BaGd2Si3O10,mp-1197749,0.14579999999999993,2.94051982,0.0,"{56: 1, 64: 2, 14: 3, 8: 10}","[8, 14, 56, 64]",810143561642,Ba1Gd2Si3O10
BaDy2Si3O10,mp-1195063,4.8053,1.99899631,0.0,"{56: 1, 66: 2, 14: 3, 8: 10}","[8, 14, 56, 66]",810143561662,Ba1Dy2Si3O10
BaEr2Si3O10,mp-1195744,4.8348,2.03624232,0.0,"{56: 1, 68: 2, 14: 3, 8: 10}","[8, 14, 56, 68]",810143561682,Ba1Er2Si3O10
BaLu2Si3O10,mp-1194557,4.830500000000001,6.73022215,0.0,"{56: 1, 71: 2, 14: 3, 8: 10}","[8, 14, 56, 71]",810143561712,Ba1Lu2Si3O10
BaCr(Si2O5)2,mp-19518,3.2289,2.19446682,0.0,"{56: 1, 24: 1, 14: 4, 8: 10}","[8, 14, 24, 56]",810144241561,Ba1Cr1Si4O10
BaFe(Si2O5)2,mp-19165,3.6492000000000004,1.79235044,0.001395730781249327,"{56: 1, 26: 1, 14: 4, 8: 10}","[8, 14, 26, 56]",810144261561,Ba1Fe1Si4O10
BaCu(Si2O5)2,mp-6127,0.8549000000000002,2.5510505,0.013273858645832526,"{56: 1, 29: 1, 14: 4, 8: 10}","[8, 14, 29, 56]",810144291561,Ba1Cu1Si4O10
BaV2(PO5)2,mp-19512,1.9897000000000002,1.852406,0.0006815498666590258,"{56: 1, 23: 2, 15: 2, 8: 10}","[8, 15, 23, 56]",810152232561,Ba1V2P2O10
Ba2U(PO5)2,mp-1192547,2.1977,1.40792544,0.0,"{56: 2, 92: 1, 15: 2, 8: 10}","[8, 15, 56, 92]",810152562921,Ba2U1P2O10
Ba3P3ClO10,mp-1194911,5.1465,5.85662183,0.0,"{56: 3, 15: 3, 17: 1, 8: 10}","[8, 15, 17, 56]",810153171563,Ba3P3Cl1O10
KBaP3O10,mp-734006,0.7098,-0.13685605,0.13392205083333142,"{19: 1, 56: 1, 15: 3, 8: 10}","[8, 15, 19, 56]",810153191561,K1Ba1P3O10
Ba3P3BrO10,mp-1194785,5.0533,5.81631964,0.002709164044115475,"{56: 3, 15: 3, 35: 1, 8: 10}","[8, 15, 35, 56]",810153351563,Ba3P3Br1O10
Ba2CaY2(Fe2O5)2,mp-1233104,1.2261999999999995,3.40250736,0.19844363109649432,"{56: 2, 20: 1, 39: 2, 26: 4, 8: 10}","[8, 20, 26, 39, 56]",810201264392562,Ba2Ca1Y2Fe4O10
Ba2Ca2Ti3Tl2O10,mp-1046109,0.0,4.71950938,0.3333767875438598,"{56: 2, 20: 2, 22: 3, 81: 2, 8: 10}","[8, 20, 22, 56, 81]",810202223562812,Ba2Ca2Ti3Tl2O10
Ba2Ca2Tl2Cr3O10,mp-1046503,0.0,3.50853682,0.21553847144736604,"{56: 2, 20: 2, 81: 2, 24: 3, 8: 10}","[8, 20, 24, 56, 81]",810202243562812,Ba2Ca2Tl2Cr3O10
Ba2Ca2Mn3Tl2O10,mp-1046494,0.0,3.93002495,0.12418019403503333,"{56: 2, 20: 2, 25: 3, 81: 2, 8: 10}","[8, 20, 25, 56, 81]",810202253562812,Ba2Ca2Mn3Tl2O10
Ba2Ca2Tl2Fe3O10,mp-1046475,0.0,3.70299898,0.12079097450188847,"{56: 2, 20: 2, 81: 2, 26: 3, 8: 10}","[8, 20, 26, 56, 81]",810202263562812,Ba2Ca2Tl2Fe3O10
Ba2Ca2Tl2Co3O10,mp-1046474,0.0,4.19644111,0.0580347407236772,"{56: 2, 20: 2, 81: 2, 27: 3, 8: 10}","[8, 20, 27, 56, 81]",810202273562812,Ba2Ca2Tl2Co3O10
Ba2Ca2Tl2Cu3O10,mp-1228620,0.0,4.23680995,0.0064526794736785575,"{56: 2, 20: 2, 81: 2, 29: 3, 8: 10}","[8, 20, 29, 56, 81]",810202293562812,Ba2Ca2Tl2Cu3O10
Ba2Ca2Tl2Sn3O10,mp-1367446,0.0,4.88545823,0.26763972912280387,"{56: 2, 20: 2, 81: 2, 50: 3, 8: 10}","[8, 20, 50, 56, 81]",810202503562812,Ba2Ca2Tl2Sn3O10
Ba2Ca2Tl2W3O10,mp-1046558,0.0,4.2867513,0.4714294610964931,"{56: 2, 20: 2, 81: 2, 74: 3, 8: 10}","[8, 20, 56, 74, 81]",810202562743812,Ba2Ca2Tl2W3O10
Ba2Ca3Cu4HgO10,mp-1228579,0.0,3.46423142,0.019571990250006444,"{56: 2, 20: 3, 29: 4, 80: 1, 8: 10}","[8, 20, 29, 56, 80]",810203294562801,Ba2Ca3Cu4Hg1O10
Ba4Ti2PtO10,mp-558894,1.9973,2.83198279,0.0,"{56: 4, 22: 2, 78: 1, 8: 10}","[8, 22, 56, 78]",810222564781,Ba4Ti2Pt1O10
Ba2Ti3Tl2Zn2O10,mp-1046267,0.0,4.59148786,0.4230791414912254,"{56: 2, 22: 3, 81: 2, 30: 2, 8: 10}","[8, 22, 30, 56, 81]",810223302562812,Ba2Ti3Tl2Zn2O10
BaLa2Ti3O10,mp-1200651,1.9924,4.27555622,0.009958511093751454,"{56: 1, 57: 2, 22: 3, 8: 10}","[8, 22, 56, 57]",810223561572,Ba1La2Ti3O10
BaPr2Ti3O10,mp-557074,1.9472999999999998,2.73251148,0.003393474218768233,"{56: 1, 59: 2, 22: 3, 8: 10}","[8, 22, 56, 59]",810223561592,Ba1Pr2Ti3O10
BaNd2Ti3O10,mp-6285,2.2542999999999997,2.4741637,0.001581211562500684,"{56: 1, 60: 2, 22: 3, 8: 10}","[8, 22, 56, 60]",810223561602,Ba1Nd2Ti3O10
BaSm2Ti3O10,mp-1197030,1.9530000000000003,2.68065776,0.021568831406241884,"{56: 1, 62: 2, 22: 3, 8: 10}","[8, 22, 56, 62]",810223561622,Ba1Sm2Ti3O10
Ba2Ti3Tl2O10,mp-1046312,0.5450000000000004,3.66480725,0.16512544713236554,"{56: 2, 22: 3, 81: 2, 8: 10}","[8, 22, 56, 81]",810223562812,Ba2Ti3Tl2O10
Ba4Ti3O10,mp-771189,2.0772,2.68979585,0.022349617941170408,"{56: 4, 22: 3, 8: 10}","[8, 22, 56]",810223564,Ba4Ti3O10
BaV(AsO5)2,mp-1199112,0.3913,0.7086686,0.2191300659821378,"{56: 1, 23: 1, 33: 2, 8: 10}","[8, 23, 33, 56]",810231332561,Ba1V1As2O10
BaV2(AsO5)2,mp-1227827,2.1662999999999997,3.95661609,0.03615676050000172,"{56: 1, 23: 2, 33: 2, 8: 10}","[8, 23, 33, 56]",810232332561,Ba1V2As2O10
BaCr2AsO10,mp-1193143,0.0,-0.81655575,0.07754617375742967,"{56: 1, 24: 2, 33: 1, 8: 10}","[8, 24, 33, 56]",810242331561,Ba1Cr2As1O10
Ba2Tl2Zn2Cr3O10,mp-1046610,0.0,3.13029811,0.2713511831579032,"{56: 2, 81: 2, 30: 2, 24: 3, 8: 10}","[8, 24, 30, 56, 81]",810243302562812,Ba2Tl2Zn2Cr3O10
Ba2Tl2Cr3O10,mp-1046536,0.0,2.68341596,0.4179785529902036,"{56: 2, 81: 2, 24: 3, 8: 10}","[8, 24, 56, 81]",810243562812,Ba2Tl2Cr3O10
Ba2Mn3Tl2Zn2O10,mp-2234160,0.0,3.51917431,0.17889574877193404,"{56: 2, 25: 3, 81: 2, 30: 2, 8: 10}","[8, 25, 30, 56, 81]",810253302562812,Ba2Mn3Tl2Zn2O10
Ba2Mn3Tl2O10,mp-1344591,0.0,3.08103578,0.18189147289825325,"{56: 2, 25: 3, 81: 2, 8: 10}","[8, 25, 56, 81]",810253562812,Ba2Mn3Tl2O10
Ba4Mn3O10,mp-18791,0.0,2.95945147,0.0,"{56: 4, 25: 3, 8: 10}","[8, 25, 56]",810253564,Ba4Mn3O10
BaLa3Mn4O10,mp-1228230,0.6795999999999998,5.40649421,0.08498596623676491,"{56: 1, 57: 3, 25: 4, 8: 10}","[8, 25, 56, 57]",810254561573,Ba1La3Mn4O10
Ba2Mn5O10,mp-1214669,0.0,3.49520934,0.13588406862745828,"{56: 2, 25: 5, 8: 10}","[8, 25, 56]",810255562,Ba2Mn5O10
Ba2Y2FeCo2CuO10,mp-1228200,0.0,3.60717482,0.05147858073985212,"{56: 2, 39: 2, 26: 1, 27: 2, 29: 1, 8: 10}","[8, 26, 27, 29, 39, 56]",810261272291392562,Ba2Y2Fe1Co2Cu1O10
Ba2Tl2Zn2Fe3O10,mp-1046524,0.0,3.61064116,0.22083878990601047,"{56: 2, 81: 2, 30: 2, 26: 3, 8: 10}","[8, 26, 30, 56, 81]",810263302562812,Ba2Tl2Zn2Fe3O10
Ba2Tl2Fe3O10,mp-1046571,0.0,2.95860058,0.1153006434803876,"{56: 2, 81: 2, 26: 3, 8: 10}","[8, 26, 56, 81]",810263562812,Ba2Tl2Fe3O10
Ba2Y2Co3CuO10,mp-1228469,0.0,3.80906294,0.05157015114422059,"{56: 2, 39: 2, 27: 3, 29: 1, 8: 10}","[8, 27, 29, 39, 56]",810273291392562,Ba2Y2Co3Cu1O10
Ba2Tl2Zn2Co3O10,mp-1046507,0.0,3.80882958,0.18453781770084454,"{56: 2, 81: 2, 30: 2, 27: 3, 8: 10}","[8, 27, 30, 56, 81]",810273302562812,Ba2Tl2Zn2Co3O10
Ba2Tl2Co3O10,mp-1046501,0.0,2.65088336,0.31201782308822956,"{56: 2, 81: 2, 27: 3, 8: 10}","[8, 27, 56, 81]",810273562812,Ba2Tl2Co3O10
Ba2La4CuPtO10,mp-1228518,0.8681999999999999,5.84617042,0.016326999583323953,"{56: 2, 57: 4, 29: 1, 78: 1, 8: 10}","[8, 29, 56, 57, 78]",810291562574781,Ba2La4Cu1Pt1O10
Ba3Y2Cu2PtO10,mp-6829,0.0,3.69475311,0.025988677152773754,"{56: 3, 39: 2, 29: 2, 78: 1, 8: 10}","[8, 29, 39, 56, 78]",810292392563781,Ba3Y2Cu2Pt1O10
Ba2La3Nd(CuO5)2,mp-1228493,0.7635000000000005,5.34217132,0.030936225039732257,"{56: 2, 57: 3, 60: 1, 29: 2, 8: 10}","[8, 29, 56, 57, 60]",810292562573601,Ba2La3Nd1Cu2O10
Ba3Ho2Cu2PtO10,mp-558231,0.0,3.67342241,0.025942222152788297,"{56: 3, 67: 2, 29: 2, 78: 1, 8: 10}","[8, 29, 56, 67, 78]",810292563672781,Ba3Ho2Cu2Pt1O10
Ba3Er2Cu2PtO10,mp-8837,0.0,3.63453408,0.028673373888887355,"{56: 3, 68: 2, 29: 2, 78: 1, 8: 10}","[8, 29, 56, 68, 78]",810292563682781,Ba3Er2Cu2Pt1O10
Ba4Tl2Cu2HgO10,mp-561182,0.0,3.30995559,0.012531148059202302,"{56: 4, 81: 2, 29: 2, 80: 1, 8: 10}","[8, 29, 56, 80, 81]",810292564801812,Ba4Tl2Cu2Hg1O10
Ba2Tl2Zn2Cu3O10,mp-1046130,0.0,3.77896552,0.12948898675439136,"{56: 2, 81: 2, 30: 2, 29: 3, 8: 10}","[8, 29, 30, 56, 81]",810293302562812,Ba2Tl2Zn2Cu3O10
Ba3Y3Cu3O10,mp-1228773,0.0,3.57491719,0.1259947266118404,"{56: 3, 39: 3, 29: 3, 8: 10}","[8, 29, 39, 56]",810293393563,Ba3Y3Cu3O10
Ba2Tl2Zn2Sn3O10,mp-1046194,0.0,3.82230548,0.36158207701754286,"{56: 2, 81: 2, 30: 2, 50: 3, 8: 10}","[8, 30, 50, 56, 81]",810302503562812,Ba2Tl2Zn2Sn3O10
Ba7Al64O103,mp-667379,4.2537,3.94085419,0.0,"{56: 7, 13: 64, 8: 103}","[8, 13, 56]",81031364567,Ba7Al64O103
Ba2U(AsO5)2,mp-1196334,2.2615,0.67954923,0.0,"{56: 2, 92: 1, 33: 2, 8: 10}","[8, 33, 56, 92]",810332562921,Ba2U1As2O10
Ba2Nb2TeO10,mp-557108,2.9816000000000003,1.41163123,0.0,"{56: 2, 41: 2, 52: 1, 8: 10}","[8, 41, 52, 56]",810412521562,Ba2Nb2Te1O10
Ba5Nb2O10,mp-758845,2.3701,1.96675769,0.026239336764711574,"{56: 5, 41: 2, 8: 10}","[8, 41, 56]",810412565,Ba5Nb2O10
CsBa2Nb3O10,mp-505814,1.4077000000000002,1.37831518,0.0,"{55: 1, 56: 2, 41: 3, 8: 10}","[8, 41, 55, 56]",810413551562,Cs1Ba2Nb3O10
BaMo3O10,mp-28465,2.7025,0.80953296,0.012379314821428622,"{56: 1, 42: 3, 8: 10}","[8, 42, 56]",810423561,Ba1Mo3O10
Ba2Tl2Mo3O10,mp-1046567,0.0,3.1118289,0.4623956934313709,"{56: 2, 81: 2, 42: 3, 8: 10}","[8, 42, 56, 81]",810423562812,Ba2Tl2Mo3O10
Ba(Mo3O5)2,mp-624196,0.08589999999999964,5.11829207,0.2633416589705906,"{56: 1, 42: 6, 8: 10}","[8, 42, 56]",810426561,Ba1Mo6O10
Ba5(RuO5)2,mp-28908,0.22809999999999997,2.9195652,0.0,"{56: 5, 44: 2, 8: 10}","[8, 44, 56]",810442565,Ba5Ru2O10
Ba4Ru3O10,mp-17304,0.0,3.82833549,0.0,"{56: 4, 44: 3, 8: 10}","[8, 44, 56]",810443564,Ba4Ru3O10
Ba51(Pd12O5)2,mp-1229286,0.0,2.73516898,0.027970348823529,"{56: 51, 46: 24, 8: 10}","[8, 46, 56]",81046245651,Ba51Pd24O10
Ba2Tl2Sn3O10,mp-1046323,0.0,3.86417625,0.22343689926469867,"{56: 2, 81: 2, 50: 3, 8: 10}","[8, 50, 56, 81]",810503562812,Ba2Tl2Sn3O10