formula,material_id,band_gap,efermi,energy_above_hull,comp_atoms,sorted_keys_comp_atoms,comp_number,new_formula
BaBr3,mp-1183339,0.0,1.04863738,0.0785139687500025,"{56: 1, 35: 3}","[35, 56]",353561,Ba1Br3
Rb2BaBr4,mp-1219768,4.2176,3.40516194,0.017804130892855596,"{37: 2, 56: 1, 35: 4}","[35, 37, 56]",354372561,Rb2Ba1Br4
Cs2BaBr4,mp-1226237,4.1817,-0.53624993,0.03669528392856991,"{55: 2, 56: 1, 35: 4}","[35, 55, 56]",354552561,Cs2Ba1Br4
RbBa2Br5,mp-1209437,4.364,3.60841456,0.0,"{37: 1, 56: 2, 35: 5}","[35, 37, 56]",355371562,Rb1Ba2Br5
BaYBr5,mp-778355,3.8042000000000002,-0.17462978,0.0562673032142893,"{56: 1, 39: 1, 35: 5}","[35, 39, 56]",355391561,Ba1Y1Br5
CsBa2Br5,mp-541722,4.3948,-0.48662511,0.0,"{55: 1, 56: 2, 35: 5}","[35, 55, 56]",355551562,Cs1Ba2Br5
BaLaBr5,mp-754494,2.826,0.07837369,0.04467429214285712,"{56: 1, 57: 1, 35: 5}","[35, 56, 57]",355561571,Ba1La1Br5
BaThBr6,mp-570615,2.1837999999999997,0.67464425,0.06144880250000284,"{56: 1, 90: 1, 35: 6}","[35, 56, 90]",356561901,Ba1Th1Br6
Ba2YBr7,mp-752620,3.5502000000000002,0.25632014,0.021259948500004455,"{56: 2, 39: 1, 35: 7}","[35, 39, 56]",357391562,Ba2Y1Br7
Ba14Na11Li5N6,mp-645700,0.0,1.15515367,0.046423169784948204,"{56: 14, 11: 11, 3: 5, 7: 6}","[3, 7, 11, 56]",357611115614,Ba14Na11Li5N6
BaY2Br8,mp-754116,3.8963,-1.75738256,0.10161341227273013,"{56: 1, 39: 2, 35: 8}","[35, 39, 56]",358392561,Ba1Y2Br8
BaLa2Br8,mp-771981,3.4682,-0.65232595,0.04079589545454532,"{56: 1, 57: 2, 35: 8}","[35, 56, 57]",358561572,Ba1La2Br8
Ba3LaBr9,mp-772024,3.0351999999999997,0.24323628,0.00551219423077054,"{56: 3, 57: 1, 35: 9}","[35, 56, 57]",359563571,Ba3La1Br9
Ba4Li6Ti19O44,mp-767511,0.0,4.95966905,0.03521529490870101,"{56: 4, 3: 6, 22: 19, 8: 44}","[3, 8, 22, 56]",368442219564,Ba4Li6Ti19O44
RbBa2I5,mp-1209423,3.7766,0.79783901,0.0,"{37: 1, 56: 2, 53: 5}","[37, 53, 56]",371535562,Rb1Ba2I5
RbBa3,mp-975509,0.0,1.12437719,0.12439313812500008,"{37: 1, 56: 3}","[37, 56]",371563,Rb1Ba3
Rb3Ba,mp-975053,0.0,0.2453392,0.15017054437499988,"{37: 3, 56: 1}","[37, 56]",373561,Rb3Ba1
Ba39Li80N9,mp-647275,0.0,1.03239322,0.06091367011067694,"{56: 39, 3: 80, 7: 9}","[3, 7, 56]",380795639,Ba39Li80N9
Ba12Na15Li8N6,mp-567643,0.0,1.2476485,0.0,"{56: 12, 11: 15, 3: 8, 7: 6}","[3, 7, 11, 56]",387611155612,Ba12Na15Li8N6
BaYAgTe3,mp-10337,0.7675000000000001,4.17453847,0.0,"{56: 1, 39: 1, 47: 1, 52: 3}","[39, 47, 52, 56]",391471523561,Ba1Y1Ag1Te3
Ba2YInTe5,mp-1106096,0.47319999999999984,3.57410001,0.014236022361111544,"{56: 2, 39: 1, 49: 1, 52: 5}","[39, 49, 52, 56]",391491525562,Ba2Y1In1Te5
Ba6YI15,mp-776782,2.955,0.00375308,0.0519952244318187,"{56: 6, 39: 1, 53: 15}","[39, 53, 56]",3915315566,Ba6Y1I15
BaYI5,mp-772077,2.9223000000000003,1.37641256,0.0675876707142864,"{56: 1, 39: 1, 53: 5}","[39, 53, 56]",391535561,Ba1Y1I5
Ba2YI7,mp-849802,2.9120999999999997,1.37975122,0.03182589100000133,"{56: 2, 39: 1, 53: 7}","[39, 53, 56]",391537562,Ba2Y1I7
Ba3YI9,mp-772018,2.6474,1.80294424,0.04825318423077052,"{56: 3, 39: 1, 53: 9}","[39, 53, 56]",391539563,Ba3Y1I9
Ba3Y,mp-1183355,0.0,2.05712195,0.22537419375,"{56: 3, 39: 1}","[39, 56]",391563,Ba3Y1
Ba(YTe2)2,mp-17872,0.8059000000000003,3.81621402,0.0,"{56: 1, 39: 2, 52: 4}","[39, 52, 56]",392524561,Ba1Y2Te4
Ba3(YI6)2,mp-776463,2.5542,1.72168389,0.07529289955882268,"{56: 3, 39: 2, 53: 12}","[39, 53, 56]",3925312563,Ba3Y2I12
Ba5Y3I19,mp-1178584,2.6251,0.87224521,0.08372110879629702,"{56: 5, 39: 3, 53: 19}","[39, 53, 56]",3935319565,Ba5Y3I19
BaBeSi,mp-1227947,0.0,3.58325989,0.12922389333333228,"{56: 1, 4: 1, 14: 1}","[4, 14, 56]",41141561,Ba1Be1Si1
BaNbTc2,mp-631491,0.0,5.41855481,1.0196124062499994,"{56: 1, 41: 1, 43: 2}","[41, 43, 56]",411432561,Ba1Nb1Tc2
Ba3Nb,mp-1183322,0.0,2.41284,0.7857501925000001,"{56: 3, 41: 1}","[41, 56]",411563,Ba3Nb1
Ba3Zr6BeCl18,mp-569563,0.7706,3.08158484,0.0,"{56: 3, 40: 6, 4: 1, 17: 18}","[4, 17, 40, 56]",411718406563,Ba3Zr6Be1Cl18
BaBeGa,mp-631517,0.0,0.92920253,1.1074042642948725,"{56: 1, 4: 1, 31: 1}","[4, 31, 56]",41311561,Ba1Be1Ga1
Ba2BeGa,mp-631574,0.0,3.08533625,0.5839064825892857,"{56: 2, 4: 1, 31: 1}","[4, 31, 56]",41311562,Ba2Be1Ga1
BaBe13,mp-30425,0.0,3.48839379,0.03836030214285735,"{56: 1, 4: 13}","[4, 56]",413561,Ba1Be13
BaBeO3,mp-1183282,0.0,1.92127383,0.5173108549999981,"{56: 1, 4: 1, 8: 3}","[4, 8, 56]",4183561,Ba1Be1O3
BaBeSiO4,mp-550751,4.4231,1.40988319,0.0,"{56: 1, 4: 1, 14: 1, 8: 4}","[4, 8, 14, 56]",4184141561,Ba1Be1Si1O4
BaBePO4F,mp-754604,6.2166,1.1831074,0.0,"{56: 1, 4: 1, 15: 1, 8: 4, 9: 1}","[4, 8, 9, 15, 56]",418491151561,Ba1Be1P1O4F1
Ba2BeS(OF)4,mp-679630,3.816,1.49602187,0.5560857970833304,"{56: 2, 4: 1, 16: 1, 8: 4, 9: 4}","[4, 8, 9, 16, 56]",418494161562,Ba2Be1S1O4F4
BaLa2BeO5,mp-18414,3.442,4.98806794,0.006820407500010894,"{56: 1, 57: 2, 4: 1, 8: 5}","[4, 8, 56, 57]",4185561572,Ba1La2Be1O5
BaNd2BeO5,mp-17836,3.6389,2.82592948,0.0,"{56: 1, 60: 2, 4: 1, 8: 5}","[4, 8, 56, 60]",4185561602,Ba1Nd2Be1O5
Ba2UBeO6,mp-1205751,1.7398999999999996,3.64591636,0.15563175724997969,"{56: 2, 92: 1, 4: 1, 8: 6}","[4, 8, 56, 92]",4186562921,Ba2U1Be1O6
Ba3BeIr2O9,mp-1228082,0.0,4.22208442,0.10778507384847913,"{56: 3, 4: 1, 77: 2, 8: 9}","[4, 8, 56, 77]",4189563772,Ba3Be1Ir2O9
BaBeF4,mp-12431,7.7003,-1.99369009,0.0,"{56: 1, 4: 1, 9: 4}","[4, 9, 56]",4194561,Ba1Be1F4
BaHfMo,mp-631521,0.0,3.84269798,1.2730831716666655,"{56: 1, 72: 1, 42: 1}","[42, 56, 72]",421561721,Ba1Hf1Mo1
Ba3Mo,mp-1183316,0.0,2.62574546,0.8903929474999996,"{56: 3, 42: 1}","[42, 56]",421563,Ba3Mo1
BaBe2Te,mp-631532,0.0,4.34565964,1.4185696375000005,"{56: 1, 4: 2, 52: 1}","[4, 52, 56]",42521561,Ba1Be2Te1
Ba(TeMo)6,mp-1228689,0.0,5.78371515,0.15888919653846223,"{56: 1, 52: 6, 42: 6}","[42, 52, 56]",426526561,Ba1Te6Mo6
Ba(BeN)2,mp-12927,1.1789999999999998,3.02258281,0.0,"{56: 1, 4: 2, 7: 2}","[4, 7, 56]",4272561,Ba1Be2N2
BaBe2Si2O7,mp-12797,5.2992,2.13515464,0.0,"{56: 1, 4: 2, 14: 2, 8: 7}","[4, 8, 14, 56]",4287142561,Ba1Be2Si2O7
BaBe2(PO4)2,mp-1227988,5.1229,1.05626177,0.0,"{56: 1, 4: 2, 15: 2, 8: 8}","[4, 8, 15, 56]",4288152561,Ba1Be2P2O8
Ba(SbRu)2,mp-1069937,0.0,6.12688676,0.030286354799998527,"{56: 1, 51: 2, 44: 2}","[44, 51, 56]",442512561,Ba1Sb2Ru2
Ba(Sn2Ru)3,mp-1190471,0.0,7.0274277,0.0,"{56: 1, 50: 6, 44: 3}","[44, 50, 56]",443506561,Ba1Sn6Ru3
Ba(Sb3Ru)4,mp-9976,0.0,7.10434635,0.0,"{56: 1, 51: 12, 44: 4}","[44, 51, 56]",4445112561,Ba1Sb12Ru4
BaIn2Rh,mp-11078,0.0,5.38934753,0.0,"{56: 1, 49: 2, 45: 1}","[45, 49, 56]",451492561,Ba1In2Rh1
Ba4Rh,mp-1214412,0.0,1.56613752,0.07086827450000088,"{56: 4, 45: 1}","[45, 56]",451564,Ba4Rh1
BaRh2,mp-568430,0.0,4.29547681,0.0,"{56: 1, 45: 2}","[45, 56]",452561,Ba1Rh2
Ba(RhPb2)3,mp-30432,0.0,6.42055326,0.0,"{56: 1, 45: 3, 82: 6}","[45, 56, 82]",453561826,Ba1Rh3Pb6
Ba2AgPd,mp-1093824,0.0,-1.64908845,1.2869756893749997,"{56: 2, 47: 1, 46: 1}","[46, 47, 56]",461471562,Ba2Ag1Pd1
BaIn2Pd,mp-1025520,0.0,5.40612712,0.0,"{56: 1, 49: 2, 46: 1}","[46, 49, 56]",461492561,Ba1In2Pd1
BaSn3Pd,mp-11269,0.0,6.2410457,0.0,"{56: 1, 50: 3, 46: 1}","[46, 50, 56]",461503561,Ba1Sn3Pd1
BaSb2Pd,mp-9768,0.0,5.39694928,0.0,"{56: 1, 51: 2, 46: 1}","[46, 51, 56]",461512561,Ba1Sb2Pd1
BaPd,mp-1064367,0.0,3.14399092,0.0,"{56: 1, 46: 1}","[46, 56]",461561,Ba1Pd1
Ba2Pd,mp-1103028,0.0,2.70470212,0.001974802499999484,"{56: 2, 46: 1}","[46, 56]",461562,Ba2Pd1
Ba2PdPt,mp-1093973,1.0328000000000002,-2.26896162,1.3199238012499999,"{56: 2, 46: 1, 78: 1}","[46, 56, 78]",461562781,Ba2Pd1Pt1
Ba2PdAu,mp-1093847,0.0,-1.48745836,1.2978797337499999,"{56: 2, 46: 1, 79: 1}","[46, 56, 79]",461562791,Ba2Pd1Au1
Ba2HgPd,mp-1096200,0.0,-1.63588074,1.313558582499999,"{56: 2, 80: 1, 46: 1}","[46, 56, 80]",461562801,Ba2Hg1Pd1
Ba2TlPd,mp-1096391,0.0,-1.96964365,1.2768449025000017,"{56: 2, 81: 1, 46: 1}","[46, 56, 81]",461562811,Ba2Tl1Pd1
Ba4Pd,mp-1214438,0.0605,1.33939662,0.15571698099999987,"{56: 4, 46: 1}","[46, 56]",461564,Ba4Pd1
Ba(SbPd)2,mp-1079967,0.0,5.43909819,0.0,"{56: 1, 51: 2, 46: 2}","[46, 51, 56]",462512561,Ba1Sb2Pd2
BaPd2,mp-1687,0.0,4.22783624,0.0,"{56: 1, 46: 2}","[46, 56]",462561,Ba1Pd2
Ba(BiPd)2,mp-571599,0.0,4.59164882,0.0,"{56: 1, 83: 2, 46: 2}","[46, 56, 83]",462561832,Ba1Bi2Pd2
BaPd5,mp-2606,0.0,2.97811971,0.0,"{56: 1, 46: 5}","[46, 56]",465561,Ba1Pd5
Ba2CdAg,mp-1093931,0.3205,-2.06314268,1.3654998968750003,"{56: 2, 48: 1, 47: 1}","[47, 48, 56]",471481562,Ba2Cd1Ag1
BaAgSb,mp-1205316,0.04150000000000009,4.06087267,0.0,"{56: 1, 47: 1, 51: 1}","[47, 51, 56]",471511561,Ba1Ag1Sb1
Ba2AgSb,mp-984720,0.20719999999999983,3.36985823,0.024480710000002404,"{56: 2, 47: 1, 51: 1}","[47, 51, 56]",471511562,Ba2Ag1Sb1
BaLaAgTe3,mp-1214348,1.2931,4.21552389,0.0,"{56: 1, 57: 1, 47: 1, 52: 3}","[47, 52, 56, 57]",471523561571,Ba1La1Ag1Te3
BaTbAgTe3,mp-1095278,0.7735000000000003,4.06637131,0.0,"{56: 1, 65: 1, 47: 1, 52: 3}","[47, 52, 56, 65]",471523561651,Ba1Tb1Ag1Te3
BaAg,mp-11840,0.0,2.41366206,0.0,"{56: 1, 47: 1}","[47, 56]",471561,Ba1Ag1
BaAgBi,mp-1205318,0.0,3.57432559,0.0,"{56: 1, 47: 1, 83: 1}","[47, 56, 83]",471561831,Ba1Ag1Bi1
Ba2AgAu,mp-1097642,0.11569999999999991,-1.74349886,1.330480763125,"{56: 2, 47: 1, 79: 1}","[47, 56, 79]",471562791,Ba2Ag1Au1
Ba2AgHg,mp-1093547,0.1757000000000002,-1.95496431,1.345928071874999,"{56: 2, 47: 1, 80: 1}","[47, 56, 80]",471562801,Ba2Ag1Hg1
Ba2TlAg,mp-1093949,0.0,-1.85070873,1.3801506658333356,"{56: 2, 81: 1, 47: 1}","[47, 56, 81]",471562811,Ba2Tl1Ag1
Ba2AgBi,mp-1183207,0.05810000000000004,3.15997165,0.016990527500000407,"{56: 2, 47: 1, 83: 1}","[47, 56, 83]",471562831,Ba2Ag1Bi1
Ba(AgSn)2,mp-7882,0.0,4.67887701,0.0,"{56: 1, 47: 2, 50: 2}","[47, 50, 56]",472502561,Ba1Ag2Sn2
Ba(AgTe)2,mp-18501,0.6732999999999998,3.75838072,0.0,"{56: 1, 47: 2, 52: 2}","[47, 52, 56]",472522561,Ba1Ag2Te2
BaAg2,mp-1241,0.0,2.35907384,0.0,"{56: 1, 47: 2}","[47, 56]",472561,Ba1Ag2
Ba3Ag2,mp-12612,0.0,2.24006569,0.0,"{56: 3, 47: 2}","[47, 56]",472563,Ba3Ag2
BaAg5,mp-1814,0.0,2.75492064,0.0,"{56: 1, 47: 5}","[47, 56]",475561,Ba1Ag5
BaCd11,mp-31216,0.0,2.55934677,0.0,"{56: 1, 48: 11}","[48, 56]",4811561,Ba1Cd11
Ba2CdIn,mp-1183281,0.0,3.04532583,0.0018477962499989786,"{56: 2, 48: 1, 49: 1}","[48, 49, 56]",481491562,Ba2Cd1In1
BaCdSn,mp-1227971,0.0,4.09525412,0.0,"{56: 1, 48: 1, 50: 1}","[48, 50, 56]",481501561,Ba1Cd1Sn1
Ba2CdSn,mp-1183198,0.0,3.16742976,0.004861536875002237,"{56: 2, 48: 1, 50: 1}","[48, 50, 56]",481501562,Ba2Cd1Sn1
BaCdSb2,mp-30040,0.0,4.11515926,0.003074552916666473,"{56: 1, 48: 1, 51: 2}","[48, 51, 56]",481512561,Ba1Cd1Sb2
Ba2CdTe3,mp-16904,1.4020000000000001,2.73942407,0.020210535833335097,"{56: 2, 48: 1, 52: 3}","[48, 52, 56]",481523562,Ba2Cd1Te3
BaCd,mp-527,0.0,2.03376893,0.0,"{56: 1, 48: 1}","[48, 56]",481561,Ba1Cd1
BaCdHg2,mp-1095738,0.02279999999999993,-1.8130033,1.0156032194318176,"{56: 1, 48: 1, 80: 2}","[48, 56, 80]",481561802,Ba1Cd1Hg2
BaCdPb,mp-1228125,0.0,3.83553769,0.0,"{56: 1, 48: 1, 82: 1}","[48, 56, 82]",481561821,Ba1Cd1Pb1
BaCdBi2,mp-30426,0.0,3.6613611,0.0,"{56: 1, 48: 1, 83: 2}","[48, 56, 83]",481561832,Ba1Cd1Bi2
Ba2Cd,mp-8093,0.0,1.69971094,0.0,"{56: 2, 48: 1}","[48, 56]",481562,Ba2Cd1
Ba2CdHg,mp-1183204,0.0,2.436652,0.007915799999999251,"{56: 2, 48: 1, 80: 1}","[48, 56, 80]",481562801,Ba2Cd1Hg1
Ba2TlCd,mp-866292,0.0,3.03926705,0.0,"{56: 2, 81: 1, 48: 1}","[48, 56, 81]",481562811,Ba2Tl1Cd1
Ba2CdPb,mp-867333,0.0,3.12291261,0.0,"{56: 2, 48: 1, 82: 1}","[48, 56, 82]",481562821,Ba2Cd1Pb1
Ba3CdHg10,mp-1104861,0.0,2.50550495,0.01868261142857386,"{56: 3, 48: 1, 80: 10}","[48, 56, 80]",4815638010,Ba3Cd1Hg10
Ba(CdSb)2,mp-8150,0.0,3.35802581,0.0,"{56: 1, 48: 2, 51: 2}","[48, 51, 56]",482512561,Ba1Cd2Sb2
Ba2Cd2Sb3,mp-1104804,0.0,3.61973693,0.0,"{56: 2, 48: 2, 51: 3}","[48, 51, 56]",482513562,Ba2Cd2Sb3
Ba3(CdSb2)2,mp-571069,0.0,3.47945121,0.0,"{56: 3, 48: 2, 51: 4}","[48, 51, 56]",482514563,Ba3Cd2Sb4
BaCd2,mp-11266,0.0,2.18861808,0.0,"{56: 1, 48: 2}","[48, 56]",482561,Ba1Cd2
BaCd2Pt,mp-1078435,0.0,2.87939947,0.0,"{56: 1, 48: 2, 78: 1}","[48, 56, 78]",482561781,Ba1Cd2Pt1
Ba7Cd31,mp-1228287,0.0,2.18424491,0.0,"{56: 7, 48: 31}","[48, 56]",4831567,Ba7Cd31
BaCd3,mp-1183366,0.0,1.9433909,0.030301119999999626,"{56: 1, 48: 3}","[48, 56]",483561,Ba1Cd3
Ba2Cd3Bi4,mp-568744,0.0,3.67936995,0.0014474527777768031,"{56: 2, 48: 3, 83: 4}","[48, 56, 83]",483562834,Ba2Cd3Bi4
Ba21(Cd2Sb9)2,mp-684034,0.7307000000000001,4.03668423,0.0,"{56: 21, 48: 4, 51: 18}","[48, 51, 56]",48451185621,Ba21Cd4Sb18
Ba(Cd2Pt)2,mp-1104609,0.0,3.20402115,0.0,"{56: 1, 48: 4, 78: 2}","[48, 56, 78]",484561782,Ba1Cd4Pt2
Ba20Cd4Hg99,mp-1197757,0.14210000000000012,2.42996272,0.000821467439024004,"{56: 20, 48: 4, 80: 99}","[48, 56, 80]",48456208099,Ba20Cd4Hg99
Ba21(Cd2Bi9)2,mp-1215155,0.31489999999999974,3.12163433,0.0,"{56: 21, 48: 4, 83: 18}","[48, 56, 83]",48456218318,Ba21Cd4Bi18
Ba11(CdSb2)6,mp-570121,0.16369999999999996,3.37117903,0.03954175707389185,"{56: 11, 48: 6, 51: 12}","[48, 51, 56]",48651125611,Ba11Cd6Sb12
Ba11(Cd4Bi7)2,mp-607525,0.0,3.29796821,0.0,"{56: 11, 48: 8, 83: 14}","[48, 56, 83]",48856118314,Ba11Cd8Bi14
Ba2In13Ir4,mp-684013,0.0,7.21440957,0.0,"{56: 2, 49: 13, 77: 4}","[49, 56, 77]",4913562774,Ba2In13Ir4
Ba2InSbTe5,mp-1203298,0.7145999999999995,3.91105607,0.0037866816666651815,"{56: 2, 49: 1, 51: 1, 52: 5}","[49, 51, 52, 56]",491511525562,Ba2In1Sb1Te5
Ba2NdInTe5,mp-1205400,0.6662999999999997,3.60190834,0.005739526250000182,"{56: 2, 60: 1, 49: 1, 52: 5}","[49, 52, 56, 60]",491525562601,Ba2Nd1In1Te5
Ba2DyInTe5,mp-1189860,0.7071000000000005,3.61435721,0.010860980138888365,"{56: 2, 66: 1, 49: 1, 52: 5}","[49, 52, 56, 66]",491525562661,Ba2Dy1In1Te5
Ba2ErInTe5,mp-1106146,0.7491000000000003,3.68004464,0.013259412916664104,"{56: 2, 68: 1, 49: 1, 52: 5}","[49, 52, 56, 68]",491525562681,Ba2Er1In1Te5
BaIn,mp-31509,0.0,3.97091056,0.0,"{56: 1, 49: 1}","[49, 56]",491561,Ba1In1
BaInHg2,mp-1095951,0.0,-2.2184561,1.1861591958333344,"{56: 1, 49: 1, 80: 2}","[49, 56, 80]",491561802,Ba1In1Hg2
Ba2In,mp-1102396,0.0,2.86207824,0.0007876921666705172,"{56: 2, 49: 1}","[49, 56]",491562,Ba2In1
Ba2InHg,mp-1183329,0.0,3.19091338,0.009731376250000423,"{56: 2, 49: 1, 80: 1}","[49, 56, 80]",491562801,Ba2In1Hg1
Ba2TlIn,mp-1093785,0.6467000000000003,-2.33232179,1.4726062917500033,"{56: 2, 81: 1, 49: 1}","[49, 56, 81]",491562811,Ba2Tl1In1
Ba3InHg10,mp-1103999,0.0,2.86190054,0.006839560714287041,"{56: 3, 49: 1, 80: 10}","[49, 56, 80]",4915638010,Ba3In1Hg10
Ba(InSb2)2,mp-1214945,0.25319999999999965,5.56177881,0.01932195226190503,"{56: 1, 49: 2, 51: 4}","[49, 51, 56]",492514561,Ba1In2Sb4
Ba5(InSb3)2,mp-615760,0.0,3.82175184,0.0,"{56: 5, 49: 2, 51: 6}","[49, 51, 56]",492516565,Ba5In2Sb6
Ba(InTe2)2,mp-21183,0.9642,3.22721762,0.0,"{56: 1, 49: 2, 52: 4}","[49, 52, 56]",492524561,Ba1In2Te4
BaIn2,mp-22141,0.0,5.2412771,0.0,"{56: 1, 49: 2}","[49, 56]",492561,Ba1In2
BaIn2Ir,mp-22780,0.0,5.74086114,0.0,"{56: 1, 49: 2, 77: 1}","[49, 56, 77]",492561771,Ba1In2Ir1
BaIn2Pt,mp-21032,0.0,5.79258109,0.0,"{56: 1, 49: 2, 78: 1}","[49, 56, 78]",492561781,Ba1In2Pt1
Ba(InPt)2,mp-1214750,0.0,5.59968157,0.0,"{56: 1, 49: 2, 78: 2}","[49, 56, 78]",492561782,Ba1In2Pt2
Ba(InAu)2,mp-574176,0.0,4.95205626,0.0,"{56: 1, 49: 2, 79: 2}","[49, 56, 79]",492561792,Ba1In2Au2
BaIn3Pt,mp-1227995,0.0,5.44017758,0.002311426500001712,"{56: 1, 49: 3, 78: 1}","[49, 56, 78]",493561781,Ba1In3Pt1
BaTlIn3,mp-1227390,0.0,5.65054457,0.012278902500000743,"{56: 1, 81: 1, 49: 3}","[49, 56, 81]",493561811,Ba1Tl1In3
Ba2In3Au,mp-1228509,0.0,4.67328736,0.03114462833333409,"{56: 2, 49: 3, 79: 1}","[49, 56, 79]",493562791,Ba2In3Au1
Ba5(In2Sb3)2,mp-1195424,0.4508000000000001,4.24512608,0.0,"{56: 5, 49: 4, 51: 6}","[49, 51, 56]",494516565,Ba5In4Sb6
BaIn4,mp-22687,0.0,5.8275813,0.0,"{56: 1, 49: 4}","[49, 56]",494561,Ba1In4
BaIn4Ir,mp-639150,0.0,6.58384236,0.0011990578703739985,"{56: 1, 49: 4, 77: 1}","[49, 56, 77]",494561771,Ba1In4Ir1
Ba5In4Bi5,mp-31407,0.0,3.86212699,0.001364918736263654,"{56: 5, 49: 4, 83: 5}","[49, 56, 83]",494565835,Ba5In4Bi5
Ba9In4,mp-1105101,0.0,2.81724008,0.0,"{56: 9, 49: 4}","[49, 56]",494569,Ba9In4
BaIn9Ir2,mp-1095357,0.0,7.38416458,0.0,"{56: 1, 49: 9, 77: 2}","[49, 56, 77]",499561772,Ba1In9Ir2
Ba2SnTe5,mp-583630,0.0,4.72810083,0.0,"{56: 2, 50: 1, 52: 5}","[50, 52, 56]",501525562,Ba2Sn1Te5
BaSn,mp-872,0.0,4.02878395,0.0,"{56: 1, 50: 1}","[50, 56]",501561,Ba1Sn1
BaRe2Sn,mp-631703,0.0,6.4948545,1.649497199999999,"{56: 1, 75: 2, 50: 1}","[50, 56, 75]",501561752,Ba1Re2Sn1
BaSnHg,mp-11819,0.0,3.56638123,0.0,"{56: 1, 50: 1, 80: 1}","[50, 56, 80]",501561801,Ba1Sn1Hg1
BaSnHg2,mp-1096382,0.19989999999999997,-2.38971402,1.2518709549999976,"{56: 1, 50: 1, 80: 2}","[50, 56, 80]",501561802,Ba1Sn1Hg2
Ba2Sn,mp-1981,0.0,3.06096002,0.0,"{56: 2, 50: 1}","[50, 56]",501562,Ba2Sn1
Ba2SnHg,mp-867912,0.03740000000000032,3.1828683,0.0,"{56: 2, 50: 1, 80: 1}","[50, 56, 80]",501562801,Ba2Sn1Hg1
BaSn2,mp-567510,0.0,4.95386487,0.0,"{56: 1, 50: 2}","[50, 56]",502561,Ba1Sn2
BaSn2Bi,mp-1227803,0.0,5.5758117,0.013383921041665747,"{56: 1, 50: 2, 83: 1}","[50, 56, 83]",502561831,Ba1Sn2Bi1
Ba3Sn2,mp-1190176,0.37470000000000026,3.50931277,0.0047372440000033045,"{56: 3, 50: 2}","[50, 56]",502563,Ba3Sn2
Ba2(SnSb2)3,mp-29087,0.0,5.40060562,0.0,"{56: 2, 50: 3, 51: 6}","[50, 51, 56]",503516562,Ba2Sn3Sb6
BaSn3,mp-7759,0.0,5.99876432,0.0,"{56: 1, 50: 3}","[50, 56]",503561,Ba1Sn3
BaSn3Pt,mp-30433,0.0,6.59192811,0.0,"{56: 1, 50: 3, 78: 1}","[50, 56, 78]",503561781,Ba1Sn3Pt1
BaSn3Au,mp-1068048,0.0,6.23965059,0.0,"{56: 1, 50: 3, 79: 1}","[50, 56, 79]",503561791,Ba1Sn3Au1
Ba5Sn3,mp-17325,0.0,3.19572742,0.011261958125002636,"{56: 5, 50: 3}","[50, 56]",503565,Ba5Sn3
Ba3Sn4Bi,mp-1214527,0.0,4.25941529,0.009661410144230054,"{56: 3, 50: 4, 83: 1}","[50, 56, 83]",504563831,Ba3Sn4Bi1
BaSn5,mp-571353,0.0,6.20707208,0.026217794166670583,"{56: 1, 50: 5}","[50, 56]",505561,Ba1Sn5
Ba3Sn5,mp-18636,0.0,4.85235224,0.0,"{56: 3, 50: 5}","[50, 56]",505563,Ba3Sn5
Ba4(Sn3Bi)3,mp-1214568,0.0,5.59651235,0.0,"{56: 4, 50: 9, 83: 3}","[50, 56, 83]",509564833,Ba4Sn9Bi3
Ba5(Sn3Bi2)3,mp-1214565,0.0,5.61204172,0.0008439112500022716,"{56: 5, 50: 9, 83: 6}","[50, 56, 83]",509565836,Ba5Sn9Bi6
Ba2B10O17,mp-1019522,5.6719,0.93205944,0.0021536630387437583,"{56: 2, 5: 10, 8: 17}","[5, 8, 56]",510817562,Ba2B10O17
Ba4NaB10Cl(O9F)2,mp-1199057,5.2856,0.86287662,0.005352624999981792,"{56: 4, 11: 1, 5: 10, 17: 1, 8: 18, 9: 2}","[5, 8, 9, 11, 17, 56]",51081892111171564,Ba4Na1B10Cl1O18F2
Ba4B10Cl2O19,mp-1194958,0.0,0.68187501,0.11663459950892552,"{56: 4, 5: 10, 17: 2, 8: 19}","[5, 8, 17, 56]",510819172564,Ba4B10Cl2O19
Ba11Sb10,mp-542428,0.0,3.82752635,0.001674641853740333,"{56: 11, 51: 10}","[51, 56]",51105611,Ba11Sb10
BaMg14B,mp-1026603,0.0,3.26276053,0.26756359544270647,"{56: 1, 12: 14, 5: 1}","[5, 12, 56]",511214561,Ba1Mg14B1
Ba(Sb3Os)4,mp-1106056,0.0,7.00393081,0.009215385294119471,"{56: 1, 51: 12, 76: 4}","[51, 56, 76]",5112561764,Ba1Sb12Os4
BaSiB,mp-631544,0.0,2.98733032,1.5509955086111127,"{56: 1, 14: 1, 5: 1}","[5, 14, 56]",51141561,Ba1Si1B1
BaSbTe3,mp-18291,0.37429999999999986,4.43837485,0.0,"{56: 1, 51: 1, 52: 3}","[51, 52, 56]",511523561,Ba1Sb1Te3
Ba2SbI,mp-1097360,0.8340000000000001,-2.2289425,1.1786933534166688,"{56: 2, 51: 1, 53: 1}","[51, 53, 56]",511531562,Ba2Sb1I1
Ba3SbI3,mp-1214632,1.4021,1.99773715,0.0,"{56: 3, 51: 1, 53: 3}","[51, 53, 56]",511533563,Ba3Sb1I3
BaSbPt,mp-8606,0.0,4.97977535,0.0,"{56: 1, 51: 1, 78: 1}","[51, 56, 78]",511561781,Ba1Sb1Pt1
BaSbAu,mp-568895,0.0,4.54106835,0.0,"{56: 1, 51: 1, 79: 1}","[51, 56, 79]",511561791,Ba1Sb1Au1
BaHg2Sb,mp-1093549,0.0,-2.84954792,1.2157509221874983,"{56: 1, 80: 2, 51: 1}","[51, 56, 80]",511561802,Ba1Hg2Sb1
Ba2Sb,mp-9908,0.0,3.45657089,0.02583598944444576,"{56: 2, 51: 1}","[51, 56]",511562,Ba2Sb1
Ba2SbAu,mp-862631,0.5956999999999999,3.37891784,0.0,"{56: 2, 51: 1, 79: 1}","[51, 56, 79]",511562791,Ba2Sb1Au1
Ba2HgSb,mp-1096502,0.0,-1.73262797,1.3402700619999997,"{56: 2, 80: 1, 51: 1}","[51, 56, 80]",511562801,Ba2Hg1Sb1
Ba3Sb,mp-1183295,0.0,3.38276695,0.17008098458333398,"{56: 3, 51: 1}","[51, 56]",511563,Ba3Sb1
Ba3BiSb,mp-1013584,0.0,1.92165201,0.3368021081999979,"{56: 3, 83: 1, 51: 1}","[51, 56, 83]",511563831,Ba3Bi1Sb1