formula,material_id,band_gap,efermi,energy_above_hull,comp_atoms,sorted_keys_comp_atoms,comp_number,new_formula
BaY3F11,mp-752674,6.8698,-0.82535525,0.041272994166674515,"{56: 1, 39: 3, 9: 11}","[9, 39, 56]",911393561,Ba1Y3F11
Ba2Mo2F11,mp-1040864,1.9493,-0.58673868,0.08765358350000696,"{56: 2, 42: 2, 9: 11}","[9, 42, 56]",911422562,Ba2Mo2F11
Ba2Sn2F11,mp-1044595,0.0,1.53948838,0.14464375238888838,"{56: 2, 50: 2, 9: 11}","[9, 50, 56]",911502562,Ba2Sn2F11
Ba2Sb2F11,mp-1044608,0.20889999999999986,1.15579985,0.1200441360277793,"{56: 2, 51: 2, 9: 11}","[9, 51, 56]",911512562,Ba2Sb2F11
BaCdPF,mp-1079603,1.1489000000000003,2.92584255,0.008730359999996828,"{56: 1, 48: 1, 15: 1, 9: 1}","[9, 15, 48, 56]",91151481561,Ba1Cd1P1F1
Ba2MnP2F,mp-1214579,0.0,1.10900252,1.4522701242708331,"{56: 2, 25: 1, 15: 2, 9: 1}","[9, 15, 25, 56]",91152251562,Ba2Mn1P2F1
Ba2ZnP2F,mp-1214553,0.0,0.96950107,1.261088771770833,"{56: 2, 30: 1, 15: 2, 9: 1}","[9, 15, 30, 56]",91152301562,Ba2Zn1P2F1
Ba2W2F11,mp-1040871,2.8531,-0.628286,0.05661268337777425,"{56: 2, 74: 2, 9: 11}","[9, 56, 74]",911562742,Ba2W2F11
Ba2Bi2F11,mp-1044589,0.13930000000000003,-0.46862787,0.10177056233333026,"{56: 2, 83: 2, 9: 11}","[9, 56, 83]",911562832,Ba2Bi2F11
BaCuSF,mp-1080650,1.6223,4.08381546,0.0039873693749932215,"{56: 1, 29: 1, 16: 1, 9: 1}","[9, 16, 29, 56]",91161291561,Ba1Cu1S1F1
BaAgSF,mp-1086652,1.4324,2.57443434,0.0,"{56: 1, 47: 1, 16: 1, 9: 1}","[9, 16, 47, 56]",91161471561,Ba1Ag1S1F1
BaClF,mp-23432,5.4317,-0.26597,0.0,"{56: 1, 17: 1, 9: 1}","[9, 17, 56]",91171561,Ba1Cl1F1
Ba2Cl2F,mp-1207049,0.0,-1.65787033,1.224582539999997,"{56: 2, 17: 2, 9: 1}","[9, 17, 56]",91172562,Ba2Cl2F1
BaNa2Fe4F12,mp-1227924,3.1752,0.39502849,0.02650708842106031,"{56: 1, 11: 2, 26: 4, 9: 12}","[9, 11, 26, 56]",912112264561,Ba1Na2Fe4F12
BaNa4Cu3F12,mp-653631,0.15959999999999985,0.74580291,0.014362468249999871,"{56: 1, 11: 4, 29: 3, 9: 12}","[9, 11, 29, 56]",912114293561,Ba1Na4Cu3F12
Ba3Al2F12,mp-3361,6.7238,6.24062895,0.0,"{56: 3, 13: 2, 9: 12}","[9, 13, 56]",912132563,Ba3Al2F12
Ba3SiF12,mp-1214886,0.0,-1.0964126,0.380578371875,"{56: 3, 14: 1, 9: 12}","[9, 14, 56]",912141563,Ba3Si1F12
Ba7BrClF12,mp-1214422,5.6222,5.15460776,0.019117096190476524,"{56: 7, 35: 1, 17: 1, 9: 12}","[9, 17, 35, 56]",912171351567,Ba7Br1Cl1F12
Ba6Eu(ClF6)2,mp-556702,0.0,5.43390215,0.023921145714291825,"{56: 6, 63: 1, 17: 2, 9: 12}","[9, 17, 56, 63]",912172566631,Ba6Eu1Cl2F12
Ba7(ClF6)2,mp-23547,6.0482,-0.82655628,0.017940440476190922,"{56: 7, 17: 2, 9: 12}","[9, 17, 56]",912172567,Ba7Cl2F12
Ba6Mn2Zn(ClF2)6,mp-1228107,2.9227000000000003,1.12921313,0.0,"{56: 6, 25: 2, 30: 1, 17: 6, 9: 12}","[9, 17, 25, 30, 56]",912176252301566,Ba6Mn2Zn1Cl6F12
Ba3TiF12,mp-1215038,0.7164999999999999,-2.88341756,0.1970444968750007,"{56: 3, 22: 1, 9: 12}","[9, 22, 56]",912221563,Ba3Ti1F12
Ba2VCu2F12,mp-1214695,0.6976000000000001,0.70421424,0.0,"{56: 2, 23: 1, 29: 2, 9: 12}","[9, 23, 29, 56]",912231292562,Ba2V1Cu2F12
Ba2V2CuF12,mp-1228885,0.7418,1.3968418,0.0,"{56: 2, 23: 2, 29: 1, 9: 12}","[9, 23, 29, 56]",912232291562,Ba2V2Cu1F12
Ba3CrF12,mp-1215001,0.0,-3.94759824,0.39663075562499994,"{56: 3, 24: 1, 9: 12}","[9, 24, 56]",912241563,Ba3Cr1F12
CsBaCr3F12,mp-557433,2.8965,-1.21082937,0.0,"{55: 1, 56: 1, 24: 3, 9: 12}","[9, 24, 55, 56]",912243551561,Cs1Ba1Cr3F12
Ba3MnF12,mp-1237261,0.0,-3.7070011,0.1783611826562499,"{56: 3, 25: 1, 9: 12}","[9, 25, 56]",912251563,Ba3Mn1F12
BaAs2F12,mp-1214710,3.9882999999999997,-3.32726894,0.0,"{56: 1, 33: 2, 9: 12}","[9, 33, 56]",912332561,Ba1As2F12
Ba3Y2F12,mp-752420,6.8431999999999995,-1.26534242,0.02023363617647611,"{56: 3, 39: 2, 9: 12}","[9, 39, 56]",912392563,Ba3Y2F12
Ba3RhF12,mp-1215071,0.0,-3.6161623,0.2588647421875008,"{56: 3, 45: 1, 9: 12}","[9, 45, 56]",912451563,Ba3Rh1F12
Ba3In2F12,mp-28274,4.5144,-0.39235047,0.0,"{56: 3, 49: 2, 9: 12}","[9, 49, 56]",912492563,Ba3In2F12
BaSb2F12,mp-861962,4.4186,-2.13666765,0.0,"{56: 1, 51: 2, 9: 12}","[9, 51, 56]",912512561,Ba1Sb2F12
BaMnSbF,mp-1078949,0.0,3.49064837,0.012156042183907978,"{56: 1, 25: 1, 51: 1, 9: 1}","[9, 25, 51, 56]",91251511561,Ba1Mn1Sb1F1
Ba(AuF6)2,mp-558168,1.5741999999999998,-3.51009321,0.0,"{56: 1, 79: 2, 9: 12}","[9, 56, 79]",912561792,Ba1Au2F12
Ba3PtF12,mp-1214989,1.5128,-2.50053655,0.47313461765624965,"{56: 3, 78: 1, 9: 12}","[9, 56, 78]",912563781,Ba3Pt1F12
Ba3Bi2F12,mp-675179,5.1102,-0.71266184,0.06589137784314225,"{56: 3, 83: 2, 9: 12}","[9, 56, 83]",912563832,Ba3Bi2F12
BaCuSeF,mp-9195,1.4265000000000003,3.85433275,0.0,"{56: 1, 29: 1, 34: 1, 9: 1}","[9, 29, 34, 56]",91291341561,Ba1Cu1Se1F1
Ba2CuSe2F,mp-1214731,0.0,-0.51678948,1.2559804425000007,"{56: 2, 29: 1, 34: 2, 9: 1}","[9, 29, 34, 56]",91291342562,Ba2Cu1Se2F1
BaCuTeF,mp-13287,0.9884000000000004,4.60275758,4.0543124999459224e-05,"{56: 1, 29: 1, 52: 1, 9: 1}","[9, 29, 52, 56]",91291521561,Ba1Cu1Te1F1
Ba2CuTe2F,mp-1214778,0.0,1.92060555,1.1986147604166661,"{56: 2, 29: 1, 52: 2, 9: 1}","[9, 29, 52, 56]",91291522562,Ba2Cu1Te2F1
BaZnAsF,mp-1079320,0.24709999999999965,2.98300574,0.0,"{56: 1, 30: 1, 33: 1, 9: 1}","[9, 30, 33, 56]",91301331561,Ba1Zn1As1F1
Ba2ZnSb2F,mp-1214559,0.0,2.34785584,0.9618393170833355,"{56: 2, 30: 1, 51: 2, 9: 1}","[9, 30, 51, 56]",91301512562,Ba2Zn1Sb2F1
BaCdAsF,mp-1095151,0.9586000000000001,2.73520641,0.0,"{56: 1, 48: 1, 33: 1, 9: 1}","[9, 33, 48, 56]",91331481561,Ba1Cd1As1F1
BaAgSeF,mp-1079647,1.2692999999999999,2.49357384,0.0,"{56: 1, 47: 1, 34: 1, 9: 1}","[9, 34, 47, 56]",91341471561,Ba1Ag1Se1F1
BaSbSe2F,mp-558946,1.3342999999999998,2.02338799,0.00393519100000006,"{56: 1, 51: 1, 34: 2, 9: 1}","[9, 34, 51, 56]",91342511561,Ba1Sb1Se2F1
BaBrF,mp-23070,4.8824,0.01544395,0.0,"{56: 1, 35: 1, 9: 1}","[9, 35, 56]",91351561,Ba1Br1F1
Ba2Br2F,mp-1206930,0.0,-1.79726298,1.1490071720000001,"{56: 2, 35: 2, 9: 1}","[9, 35, 56]",91352562,Ba2Br2F1
Ba2CaMgAl2F14,mp-540862,7.1836,-0.77299653,0.0,"{56: 2, 20: 1, 12: 1, 13: 2, 9: 14}","[9, 12, 13, 20, 56]",914121132201562,Ba2Ca1Mg1Al2F14
Ba2MgTi2CuF14,mp-1360674,0.0690000000000004,3.29065254,0.16598877999998063,"{56: 2, 12: 1, 22: 2, 29: 1, 9: 14}","[9, 12, 22, 29, 56]",914121222291562,Ba2Mg1Ti2Cu1F14
Ba2MgV2CuF14,mp-1357073,0.2219,0.95521445,0.023587003500054493,"{56: 2, 12: 1, 23: 2, 29: 1, 9: 14}","[9, 12, 23, 29, 56]",914121232291562,Ba2Mg1V2Cu1F14
Ba2MgCr2CuF14,mp-1045870,0.9550000000000001,0.56397113,0.03104439075000176,"{56: 2, 12: 1, 24: 2, 29: 1, 9: 14}","[9, 12, 24, 29, 56]",914121242291562,Ba2Mg1Cr2Cu1F14
Ba2MgMn2CuF14,mp-1045910,1.0008,0.5357305,0.029145083000004846,"{56: 2, 12: 1, 25: 2, 29: 1, 9: 14}","[9, 12, 25, 29, 56]",914121252291562,Ba2Mg1Mn2Cu1F14
Ba2MgFe2CuF14,mp-1045836,3.1943,0.322636,0.03445526524998055,"{56: 2, 12: 1, 26: 2, 29: 1, 9: 14}","[9, 12, 26, 29, 56]",914121262291562,Ba2Mg1Fe2Cu1F14
Ba2MgCo2CuF14,mp-1358843,0.018000000000000016,0.39320104,0.028152872249992633,"{56: 2, 12: 1, 27: 2, 29: 1, 9: 14}","[9, 12, 27, 29, 56]",914121272291562,Ba2Mg1Co2Cu1F14
Ba2MgCuMo2F14,mp-1045901,4.550199999999999,0.84239027,0.029341615187496117,"{56: 2, 12: 1, 29: 1, 42: 2, 9: 14}","[9, 12, 29, 42, 56]",914121291422562,Ba2Mg1Cu1Mo2F14
Ba2MgCuAg2F14,mp-1045802,0.1195,-0.53406826,0.04854908712500805,"{56: 2, 12: 1, 29: 1, 47: 2, 9: 14}","[9, 12, 29, 47, 56]",914121291472562,Ba2Mg1Cu1Ag2F14
Ba2MgCuSn2F14,mp-1379988,0.0,2.83440602,0.16838431700000367,"{56: 2, 12: 1, 29: 1, 50: 2, 9: 14}","[9, 12, 29, 50, 56]",914121291502562,Ba2Mg1Cu1Sn2F14
Ba2MgCuSb2F14,mp-1045695,0.8667,1.1812762,0.06205019075000351,"{56: 2, 12: 1, 29: 1, 51: 2, 9: 14}","[9, 12, 29, 51, 56]",914121291512562,Ba2Mg1Cu1Sb2F14
Ba2MgCuBi2F14,mp-1361554,1.3099999999999998,0.37841465,0.045426505400012474,"{56: 2, 12: 1, 29: 1, 83: 2, 9: 14}","[9, 12, 29, 56, 83]",914121291562832,Ba2Mg1Cu1Bi2F14
Ba2MgCu3F14,mp-1045463,0.0,0.15499026,0.0,"{56: 2, 12: 1, 29: 3, 9: 14}","[9, 12, 29, 56]",914121293562,Ba2Mg1Cu3F14
Ba2MnAl2CoF14,mp-1214777,2.9722999999999997,0.52280952,0.05258158525000045,"{56: 2, 25: 1, 13: 2, 27: 1, 9: 14}","[9, 13, 25, 27, 56]",914132251271562,Ba2Mn1Al2Co1F14
Ba2MnAl2CuF14,mp-1214705,0.8823,0.85249362,0.0051743200000000655,"{56: 2, 25: 1, 13: 2, 29: 1, 9: 14}","[9, 13, 25, 29, 56]",914132251291562,Ba2Mn1Al2Cu1F14
Ba2CaTi2CuF14,mp-1380678,1.0044,3.1420761,0.12124776149997984,"{56: 2, 20: 1, 22: 2, 29: 1, 9: 14}","[9, 20, 22, 29, 56]",914201222291562,Ba2Ca1Ti2Cu1F14
Ba2CaMnV2F14,mp-1214724,1.2483,2.04363329,0.0,"{56: 2, 20: 1, 25: 1, 23: 2, 9: 14}","[9, 20, 23, 25, 56]",914201232251562,Ba2Ca1Mn1V2F14
Ba2CaV2FeF14,mp-1214736,1.0213999999999999,2.08966885,0.0,"{56: 2, 20: 1, 23: 2, 26: 1, 9: 14}","[9, 20, 23, 26, 56]",914201232261562,Ba2Ca1V2Fe1F14
Ba2CaV2CoF14,mp-1203415,2.5605,3.09320677,0.0,"{56: 2, 20: 1, 23: 2, 27: 1, 9: 14}","[9, 20, 23, 27, 56]",914201232271562,Ba2Ca1V2Co1F14
Ba2CaV2CuF14,mp-581167,0.1441,0.70344131,0.0,"{56: 2, 20: 1, 23: 2, 29: 1, 9: 14}","[9, 20, 23, 29, 56]",914201232291562,Ba2Ca1V2Cu1F14
Ba2CaCr2CuF14,mp-582663,0.0,1.17086998,0.0,"{56: 2, 20: 1, 24: 2, 29: 1, 9: 14}","[9, 20, 24, 29, 56]",914201242291562,Ba2Ca1Cr2Cu1F14
Ba2CaCr2F14,mp-1360720,0.9289999999999999,-0.51713476,0.07115006368421195,"{56: 2, 20: 1, 24: 2, 9: 14}","[9, 20, 24, 56]",914201242562,Ba2Ca1Cr2F14
Ba2CaMnFe2F14,mp-1214779,2.1519000000000004,2.56317727,0.007248193249994372,"{56: 2, 20: 1, 25: 1, 26: 2, 9: 14}","[9, 20, 25, 26, 56]",914201251262562,Ba2Ca1Mn1Fe2F14
Ba2CaMn2CuF14,mp-1045850,0.7884999999999999,0.24948034,0.0,"{56: 2, 20: 1, 25: 2, 29: 1, 9: 14}","[9, 20, 25, 29, 56]",914201252291562,Ba2Ca1Mn2Cu1F14
Ba2CaFe2CoF14,mp-1214725,2.6655,2.63715743,0.006697427000001532,"{56: 2, 20: 1, 26: 2, 27: 1, 9: 14}","[9, 20, 26, 27, 56]",914201262271562,Ba2Ca1Fe2Co1F14
Ba2CaFe2CuF14,mp-581641,2.8937,0.07102246,0.005849728000020704,"{56: 2, 20: 1, 26: 2, 29: 1, 9: 14}","[9, 20, 26, 29, 56]",914201262291562,Ba2Ca1Fe2Cu1F14
Ba2CaCo2CuF14,mp-1354389,0.3508,0.34671847,0.0,"{56: 2, 20: 1, 27: 2, 29: 1, 9: 14}","[9, 20, 27, 29, 56]",914201272291562,Ba2Ca1Co2Cu1F14
Ba2CaGa2CuF14,mp-1214730,0.9278,1.21178032,0.0,"{56: 2, 20: 1, 31: 2, 29: 1, 9: 14}","[9, 20, 29, 31, 56]",914201291312562,Ba2Ca1Ga2Cu1F14
Ba2CaCuMo2F14,mp-1045884,4.4818,0.69069919,0.00014009193750830207,"{56: 2, 20: 1, 29: 1, 42: 2, 9: 14}","[9, 20, 29, 42, 56]",914201291422562,Ba2Ca1Cu1Mo2F14
Ba2CaCuAg2F14,mp-1045649,0.0,-0.60693472,0.01858021686110245,"{56: 2, 20: 1, 29: 1, 47: 2, 9: 14}","[9, 20, 29, 47, 56]",914201291472562,Ba2Ca1Cu1Ag2F14
Ba2CaCuSn2F14,mp-1361075,0.0,2.75515232,0.13258974025000292,"{56: 2, 20: 1, 29: 1, 50: 2, 9: 14}","[9, 20, 29, 50, 56]",914201291502562,Ba2Ca1Cu1Sn2F14
Ba2CaCuSb2F14,mp-1045646,4.1268,1.00664247,0.05581684250000585,"{56: 2, 20: 1, 29: 1, 51: 2, 9: 14}","[9, 20, 29, 51, 56]",914201291512562,Ba2Ca1Cu1Sb2F14
Ba2CaCuBi2F14,mp-1045638,4.2989999999999995,0.35527065,0.04179541200001058,"{56: 2, 20: 1, 29: 1, 83: 2, 9: 14}","[9, 20, 29, 56, 83]",914201291562832,Ba2Ca1Cu1Bi2F14
Ba2CaCu3F14,mp-1045459,0.0,-0.05227307,0.0,"{56: 2, 20: 1, 29: 3, 9: 14}","[9, 20, 29, 56]",914201293562,Ba2Ca1Cu3F14
Ba2Ti2CuF14,mp-1045006,0.7757000000000001,-0.54046359,0.04621656526316276,"{56: 2, 22: 2, 29: 1, 9: 14}","[9, 22, 29, 56]",914222291562,Ba2Ti2Cu1F14
Ba2V2ZnCuF14,mp-1379905,0.4786999999999999,1.03679089,0.012783985999995195,"{56: 2, 23: 2, 30: 1, 29: 1, 9: 14}","[9, 23, 29, 30, 56]",914232291301562,Ba2V2Zn1Cu1F14
Ba2ZnCr2CuF14,mp-1045862,3.0107,0.12997914,0.020160474249999893,"{56: 2, 30: 1, 24: 2, 29: 1, 9: 14}","[9, 24, 29, 30, 56]",914242291301562,Ba2Zn1Cr2Cu1F14
Ba2Cr2CuF14,mp-1379023,0.4807,-0.2827791,0.0344105089473663,"{56: 2, 24: 2, 29: 1, 9: 14}","[9, 24, 29, 56]",914242291562,Ba2Cr2Cu1F14
Ba2MnCdFe2F14,mp-1214631,2.2854,0.21045926,0.0070019604999966845,"{56: 2, 25: 1, 48: 1, 26: 2, 9: 14}","[9, 25, 26, 48, 56]",914251262481562,Ba2Mn1Cd1Fe2F14
Ba2Mn2ZnCuF14,mp-1045867,0.6338999999999999,0.34369375,0.025994102749995918,"{56: 2, 25: 2, 30: 1, 29: 1, 9: 14}","[9, 25, 29, 30, 56]",914252291301562,Ba2Mn2Zn1Cu1F14
Ba2Mn2CuF14,mp-1045769,0.7907000000000001,-0.8280585,0.0,"{56: 2, 25: 2, 29: 1, 9: 14}","[9, 25, 29, 56]",914252291562,Ba2Mn2Cu1F14
Ba2ZnFe2CuF14,mp-1045827,0.48460000000000003,0.2983222,0.030757064000019874,"{56: 2, 30: 1, 26: 2, 29: 1, 9: 14}","[9, 26, 29, 30, 56]",914262291301562,Ba2Zn1Fe2Cu1F14
Ba2Fe2CuF14,mp-1361380,0.0,-1.78399999,0.0,"{56: 2, 26: 2, 29: 1, 9: 14}","[9, 26, 29, 56]",914262291562,Ba2Fe2Cu1F14
Ba2ZnFe2F14,mp-1356655,0.18390000000000017,-1.83806718,0.015098777368416805,"{56: 2, 30: 1, 26: 2, 9: 14}","[9, 26, 30, 56]",914262301562,Ba2Zn1Fe2F14
Ba2ZnCuAg2F14,mp-1045718,0.03810000000000002,-0.92602571,0.044266580749998674,"{56: 2, 30: 1, 29: 1, 47: 2, 9: 14}","[9, 29, 30, 47, 56]",914291301472562,Ba2Zn1Cu1Ag2F14
Ba2ZnCuSn2F14,mp-1045777,0.0,2.75015758,0.1363265357500021,"{56: 2, 30: 1, 29: 1, 50: 2, 9: 14}","[9, 29, 30, 50, 56]",914291301502562,Ba2Zn1Cu1Sn2F14
Ba2ZnCuSb2F14,mp-1045711,3.8585999999999996,0.92438536,0.05042715300000289,"{56: 2, 30: 1, 29: 1, 51: 2, 9: 14}","[9, 29, 30, 51, 56]",914291301512562,Ba2Zn1Cu1Sb2F14
Ba2ZnCuBi2F14,mp-1359492,1.3302,0.28257299,0.03408302515000017,"{56: 2, 30: 1, 29: 1, 83: 2, 9: 14}","[9, 29, 30, 56, 83]",914291301562832,Ba2Zn1Cu1Bi2F14
Ba2CuMo2F14,mp-1045817,0.9322999999999999,-0.51013104,0.0,"{56: 2, 29: 1, 42: 2, 9: 14}","[9, 29, 42, 56]",914291422562,Ba2Cu1Mo2F14
Ba2CuSn2F14,mp-1358549,1.3161,1.2189481,0.04919601157895226,"{56: 2, 29: 1, 50: 2, 9: 14}","[9, 29, 50, 56]",914291502562,Ba2Cu1Sn2F14
Ba2ZnCu3F14,mp-1045620,0.0,0.02775012,0.0,"{56: 2, 30: 1, 29: 3, 9: 14}","[9, 29, 30, 56]",914293301562,Ba2Zn1Cu3F14
Ba2Cu5F14,mp-29457,0.0,0.95686222,0.0,"{56: 2, 29: 5, 9: 14}","[9, 29, 56]",914295562,Ba2Cu5F14
BaAgTeF,mp-16742,1.5109999999999997,3.4487153,0.0,"{56: 1, 47: 1, 52: 1, 9: 1}","[9, 47, 52, 56]",91471521561,Ba1Ag1Te1F1
Ba2AgTe2F,mp-1214752,0.0,1.79307195,1.200261948333336,"{56: 2, 47: 1, 52: 2, 9: 1}","[9, 47, 52, 56]",91471522562,Ba2Ag1Te2F1
BaCdSbF,mp-1078693,0.28969999999999985,3.65210444,0.0,"{56: 1, 48: 1, 51: 1, 9: 1}","[9, 48, 51, 56]",91481511561,Ba1Cd1Sb1F1
Ba5Cd2Sb5F,mp-865528,0.0692999999999997,3.4470802,0.0,"{56: 5, 48: 2, 51: 5, 9: 1}","[9, 48, 51, 56]",91482515565,Ba5Cd2Sb5F1
BaIF,mp-22951,4.0263,1.54364582,0.0,"{56: 1, 53: 1, 9: 1}","[9, 53, 56]",91531561,Ba1I1F1
Ba2I2F,mp-1206496,0.0,-1.66677051,1.0238740067499967,"{56: 2, 53: 2, 9: 1}","[9, 53, 56]",91532562,Ba2I2F1
Ba3Al2Cu2F16,mp-556036,0.3173,0.83756319,0.0020156014855094995,"{56: 3, 13: 2, 29: 2, 9: 16}","[9, 13, 29, 56]",916132292563,Ba3Al2Cu2F16
Ba5Cu4ClF17,mp-559141,0.15769999999999995,0.97126135,0.0,"{56: 5, 29: 4, 17: 1, 9: 17}","[9, 17, 29, 56]",917171294565,Ba5Cu4Cl1F17
Ba4Y3F17,mp-34578,6.6616,-0.70083729,0.0,"{56: 4, 39: 3, 9: 17}","[9, 39, 56]",917393564,Ba4Y3F17
Ba4Nd3F17,mp-35986,6.347799999999999,-0.59090732,0.007094056249999703,"{56: 4, 60: 3, 9: 17}","[9, 56, 60]",917564603,Ba4Nd3F17
Ba4Er3F17,mp-675681,6.4909,-0.4242148,0.00027132208332858454,"{56: 4, 68: 3, 9: 17}","[9, 56, 68]",917564683,Ba4Er3F17
Ba4Bi3F17,mp-38357,4.9991,0.38027206,0.0,"{56: 4, 83: 3, 9: 17}","[9, 56, 83]",917564833,Ba4Bi3F17
Ba8Bi2F17,mp-676105,0.0,3.30690437,0.47049490946502015,"{56: 8, 83: 2, 9: 17}","[9, 56, 83]",917568832,Ba8Bi2F17
Ba18In8(S7F6)3,mp-1204693,2.3067,2.1811386,0.007369834923077079,"{56: 18, 49: 8, 16: 21, 9: 18}","[9, 16, 49, 56]",91816214985618,Ba18In8S21F18
Ba5Cr3F18,mp-1204444,1.4566,2.04680483,0.000498510336536917,"{56: 5, 24: 3, 9: 18}","[9, 24, 56]",918243565,Ba5Cr3F18
Ba2Zn7F18,mp-541827,4.0504999999999995,-1.16816581,0.0,"{56: 2, 30: 7, 9: 18}","[9, 30, 56]",918307562,Ba2Zn7F18
Ba5Al3F19,mp-1197073,6.9003000000000005,-1.10663971,0.006387030787035286,"{56: 5, 13: 3, 9: 19}","[9, 13, 56]",919133565,Ba5Al3F19
Ba12Br3Cl2F19,mp-1228710,5.5636,5.02837226,0.01863922694444753,"{56: 12, 35: 3, 17: 2, 9: 19}","[9, 17, 35, 56]",9191723535612,Ba12Br3Cl2F19
Ba12Cl5F19,mp-560641,5.980499999999999,-0.7686166,0.015713907777773706,"{56: 12, 17: 5, 9: 19}","[9, 17, 56]",9191755612,Ba12Cl5F19
Ba5Y3F19,mp-778387,6.5926,4.23243747,0.08509498666666548,"{56: 5, 39: 3, 9: 19}","[9, 39, 56]",919393565,Ba5Y3F19
Ba2Y5F19,mp-778072,6.1194,-4.2512695,0.09932421663463753,"{56: 2, 39: 5, 9: 19}","[9, 39, 56]",919395562,Ba2Y5F19
Ba5In3F19,mp-1201460,4.7376000000000005,-0.67594612,0.006915935879635349,"{56: 5, 49: 3, 9: 19}","[9, 49, 56]",919493565,Ba5In3F19
Ba3Na2Cr4F20,mp-558077,3.5814,-0.86929014,0.0,"{56: 3, 11: 2, 24: 4, 9: 20}","[9, 11, 24, 56]",920112244563,Ba3Na2Cr4F20
BaP2(XeF5)4,mp-581294,2.7024999999999997,-3.78040489,0.0,"{56: 1, 15: 2, 54: 4, 9: 20}","[9, 15, 54, 56]",920152544561,Ba1P2Xe4F20
Ba4Al3Cu2F21,mp-553943,0.6525000000000001,1.16316033,0.0036640341388780584,"{56: 4, 13: 3, 29: 2, 9: 21}","[9, 13, 29, 56]",921133292564,Ba4Al3Cu2F21
Ba2SnS3F2,mp-17918,2.3078000000000003,1.93070131,0.0,"{56: 2, 50: 1, 16: 3, 9: 2}","[9, 16, 50, 56]",92163501562,Ba2Sn1S3F2
BaAs2Xe5F22,mp-1214472,2.6010999999999997,-3.74489192,0.0,"{56: 1, 33: 2, 54: 5, 9: 22}","[9, 33, 54, 56]",922332545561,Ba1As2Xe5F22
BaNb2Xe5F22,mp-1192672,2.6409,-3.80518737,0.0,"{56: 1, 41: 2, 54: 5, 9: 22}","[9, 41, 54, 56]",922412545561,Ba1Nb2Xe5F22
BaRu2Xe5F22,mp-1194442,1.2392999999999998,-3.01768877,0.0,"{56: 1, 44: 2, 54: 5, 9: 22}","[9, 44, 54, 56]",922442545561,Ba1Ru2Xe5F22
BaSb2Xe5F22,mp-556539,2.5745,-3.35178057,0.0,"{56: 1, 51: 2, 54: 5, 9: 22}","[9, 51, 54, 56]",922512545561,Ba1Sb2Xe5F22
Ba2SnSe3F2,mp-17805,1.7221999999999997,2.03048403,0.0,"{56: 2, 50: 1, 34: 3, 9: 2}","[9, 34, 50, 56]",92343501562,Ba2Sn1Se3F2
Ba2IBrF2,mp-1228367,4.3552,0.8943592,0.006992028333331568,"{56: 2, 53: 1, 35: 1, 9: 2}","[9, 35, 53, 56]",92351531562,Ba2I1Br1F2
BaF2,mp-1029,6.6029,-1.97931744,0.0,"{56: 1, 9: 2}","[9, 56]",92561,Ba1F2
Ba6Mg7F26,mp-18549,6.8161000000000005,-0.96254213,0.008733760769230159,"{56: 6, 12: 7, 9: 26}","[9, 12, 56]",926127566,Ba6Mg7F26
Ba6Zn7F26,mp-31026,4.3667,-0.85302508,0.004217575641034088,"{56: 6, 30: 7, 9: 26}","[9, 30, 56]",926307566,Ba6Zn7F26
Ba4CaV4Cu2F28,mp-1355181,0.9638,1.00614594,0.0,"{56: 4, 20: 1, 23: 4, 29: 2, 9: 28}","[9, 20, 23, 29, 56]",928201234292564,Ba4Ca1V4Cu2F28
Ba4CaCr4Cu2F28,mp-1353956,0.2097,0.85074002,0.018488979999983002,"{56: 4, 20: 1, 24: 4, 29: 2, 9: 28}","[9, 20, 24, 29, 56]",928201244292564,Ba4Ca1Cr4Cu2F28
Ba4CaFe4Cu2F28,mp-1358947,0.08429999999999982,-1.00943573,0.031775346666665705,"{56: 4, 20: 1, 26: 4, 29: 2, 9: 28}","[9, 20, 26, 29, 56]",928201264292564,Ba4Ca1Fe4Cu2F28
Ba2ClF3,mp-1018650,5.7361,-0.79340549,0.06083588166666232,"{56: 2, 17: 1, 9: 3}","[9, 17, 56]",93171562,Ba2Cl1F3
Ba6Mg11F34,mp-30942,6.5470999999999995,-0.67261262,0.0022681984313734915,"{56: 6, 12: 11, 9: 34}","[9, 12, 56]",9341211566,Ba6Mg11F34
Ba7MnFe6F34,mp-22484,2.1105,1.90574575,0.0,"{56: 7, 25: 1, 26: 6, 9: 34}","[9, 25, 26, 56]",934251266567,Ba7Mn1Fe6F34
Ba7Fe6CuF34,mp-553974,0.6143000000000001,-0.24463526,0.0015799915104031115,"{56: 7, 26: 6, 29: 1, 9: 34}","[9, 26, 29, 56]",934266291567,Ba7Fe6Cu1F34
Ba7Fe7F34,mp-1214486,1.9244,1.86073265,0.0010450310416700859,"{56: 7, 26: 7, 9: 34}","[9, 26, 56]",934267567,Ba7Fe7F34
Ba6Cu11F34,mp-15387,0.2531,0.84940071,0.00035957882352732895,"{56: 6, 29: 11, 9: 34}","[9, 29, 56]",9342911566,Ba6Cu11F34
BaF3,mp-1183303,0.0,-1.75430217,0.0,"{56: 1, 9: 3}","[9, 56]",93561,Ba1F3
BaMgF4,mp-14568,6.8004999999999995,-1.45726378,0.0037440633333361006,"{56: 1, 12: 1, 9: 4}","[9, 12, 56]",94121561,Ba1Mg1F4
Ba4CrGa2(S3F2)2,mp-1199018,2.1491000000000002,2.78454981,0.049903420288672784,"{56: 4, 24: 1, 31: 2, 16: 6, 9: 4}","[9, 16, 24, 31, 56]",94166241312564,Ba4Cr1Ga2S6F4
Ba4MnGa2(S3F2)2,mp-1197784,2.9405,4.86378087,0.0,"{56: 4, 25: 1, 31: 2, 16: 6, 9: 4}","[9, 16, 25, 31, 56]",94166251312564,Ba4Mn1Ga2S6F4
Ba4MnIn2(S3F2)2,mp-1204819,2.0034,2.41486694,0.1564142034558822,"{56: 4, 25: 1, 49: 2, 16: 6, 9: 4}","[9, 16, 25, 49, 56]",94166251492564,Ba4Mn1In2S6F4
Ba4Ga2Fe(S3F2)2,mp-1204862,2.4483,1.90806361,0.15463530735294118,"{56: 4, 31: 2, 26: 1, 16: 6, 9: 4}","[9, 16, 26, 31, 56]",94166261312564,Ba4Ga2Fe1S6F4