formula,material_id,band_gap,efermi,energy_above_hull,comp_atoms,sorted_keys_comp_atoms,comp_number,new_formula
BaTaNO2,mp-1227303,0.3398000000000003,4.40064029,0.032383697611129136,"{56: 1, 73: 1, 7: 1, 8: 2}","[7, 8, 56, 73]",7182561731,Ba1Ta1N1O2
BaBiNO5,mp-1228172,2.2192999999999996,1.25755121,0.0,"{56: 1, 83: 1, 7: 1, 8: 5}","[7, 8, 56, 83]",7185561831,Ba1Bi1N1O5
Ba2NO6,mp-1078941,0.25179999999999997,-0.18382856,0.2979159350000016,"{56: 2, 7: 1, 8: 6}","[7, 8, 56]",7186562,Ba2N1O6
BaNb3NO7,mp-776461,1.2963000000000002,1.68450493,0.05538061145833417,"{56: 1, 41: 3, 7: 1, 8: 7}","[7, 8, 41, 56]",7187413561,Ba1Nb3N1O7
Ba6In2NF,mp-996942,0.0,3.1668459,0.026404899275864757,"{56: 6, 49: 2, 7: 1, 9: 1}","[7, 9, 49, 56]",7191492566,Ba6In2N1F1
Ba2NF,mp-1018096,1.0924,2.44784719,0.010331257291667839,"{56: 2, 7: 1, 9: 1}","[7, 9, 56]",7191562,Ba2N1F1
Ba16Nb5N19,mp-30001,1.6979000000000002,2.62831981,0.0,"{56: 16, 41: 5, 7: 19}","[7, 41, 56]",7194155616,Ba16Nb5N19
BaSm5Al3Si9N20O,mp-1227863,2.8745000000000003,5.58410883,0.022757216271369174,"{56: 1, 62: 5, 13: 3, 14: 9, 7: 20, 8: 1}","[7, 8, 13, 14, 56, 62]",72081133149561625,Ba1Sm5Al3Si9N20O1
Ba2MgN2,mp-1247488,0.0,2.39637329,0.1918479106944453,"{56: 2, 12: 1, 7: 2}","[7, 12, 56]",72121562,Ba2Mg1N2
BaMg2N2,mp-1247195,0.9633000000000003,4.40412165,0.09024384772222138,"{56: 1, 12: 2, 7: 2}","[7, 12, 56]",72122561,Ba1Mg2N2
BaSiN2,mp-3777,2.9202000000000004,4.54581667,0.0,"{56: 1, 14: 1, 7: 2}","[7, 14, 56]",72141561,Ba1Si1N2
Ba2CaN2,mp-1245728,0.0,1.98078241,0.1021050689444456,"{56: 2, 20: 1, 7: 2}","[7, 20, 56]",72201562,Ba2Ca1N2
BaCa2N2,mp-1245603,0.008399999999999963,3.156437,0.3701668032222223,"{56: 1, 20: 2, 7: 2}","[7, 20, 56]",72202561,Ba1Ca2N2
BaTiN2,mp-1029374,0.0,5.20759257,0.3398309356249998,"{56: 1, 22: 1, 7: 2}","[7, 22, 56]",72221561,Ba1Ti1N2
BaVN2,mp-1245629,0.15219999999999967,4.76066733,0.031192194062498402,"{56: 1, 23: 1, 7: 2}","[7, 23, 56]",72231561,Ba1V1N2
BaCrN2,mp-1029770,0.0,4.67331589,0.0,"{56: 1, 24: 1, 7: 2}","[7, 24, 56]",72241561,Ba1Cr1N2
Ba2CrN2,mp-1246729,0.0,3.17688562,0.27503843666666405,"{56: 2, 24: 1, 7: 2}","[7, 24, 56]",72241562,Ba2Cr1N2
Ba(CrN)2,mp-1246467,0.0,6.24696439,0.3591315183333297,"{56: 1, 24: 2, 7: 2}","[7, 24, 56]",72242561,Ba1Cr2N2
BaMnN2,mp-1029775,0.0,4.64632663,0.0,"{56: 1, 25: 1, 7: 2}","[7, 25, 56]",72251561,Ba1Mn1N2
Ba2MnN2,mp-1247370,0.0,3.21191529,0.20758409213792994,"{56: 2, 25: 1, 7: 2}","[7, 25, 56]",72251562,Ba2Mn1N2
Ba(MnN)2,mp-1246276,0.0,3.45504919,0.2956665799137914,"{56: 1, 25: 2, 7: 2}","[7, 25, 56]",72252561,Ba1Mn2N2
Ba2FeN2,mp-1246299,0.19579999999999975,3.37782254,0.1560729633333331,"{56: 2, 26: 1, 7: 2}","[7, 26, 56]",72261562,Ba2Fe1N2
Ba(FeN)2,mp-1245963,0.0,3.31897017,0.030071778999999133,"{56: 1, 26: 2, 7: 2}","[7, 26, 56]",72262561,Ba1Fe2N2
BaCoN2,mp-1246830,0.0,4.07819216,0.16750969562500018,"{56: 1, 27: 1, 7: 2}","[7, 27, 56]",72271561,Ba1Co1N2
Ba2CoN2,mp-1247530,0.0,3.06098932,0.053069074266666405,"{56: 2, 27: 1, 7: 2}","[7, 27, 56]",72271562,Ba2Co1N2
Ba(CoN)2,mp-1029457,0.0,3.59572112,0.0,"{56: 1, 27: 2, 7: 2}","[7, 27, 56]",72272561,Ba1Co2N2
Ba2CuN2,mp-1245897,0.0,2.82645634,0.09093515199999835,"{56: 2, 29: 1, 7: 2}","[7, 29, 56]",72291562,Ba2Cu1N2
Ba2ZnN2,mp-9307,0.4771000000000001,2.4028959,0.0,"{56: 2, 30: 1, 7: 2}","[7, 30, 56]",72301562,Ba2Zn1N2
Ba(ZnN)2,mp-1245788,0.5185,2.82056162,0.18297776138461685,"{56: 1, 30: 2, 7: 2}","[7, 30, 56]",72302561,Ba1Zn2N2
Ba2Nd7Si11N23,mp-567918,0.6173000000000002,4.7285405,0.017526012732560048,"{56: 2, 60: 7, 14: 11, 7: 23}","[7, 14, 56, 60]",7231411562607,Ba2Nd7Si11N23
BaGeN2,mp-1029743,2.4829,3.447766,0.0,"{56: 1, 32: 1, 7: 2}","[7, 32, 56]",72321561,Ba1Ge1N2
Ba3(GeN)2,mp-29092,0.0,3.11874152,0.0,"{56: 3, 32: 2, 7: 2}","[7, 32, 56]",72322563,Ba3Ge2N2
Ba6Ge5N2,mp-601322,0.0,3.32606387,0.0,"{56: 6, 32: 5, 7: 2}","[7, 32, 56]",72325566,Ba6Ge5N2
BaZrN2,mp-3104,0.9972000000000003,3.14991617,0.0,"{56: 1, 40: 1, 7: 2}","[7, 40, 56]",72401561,Ba1Zr1N2
BaRuN2,mp-1246017,0.0,4.64381526,0.18741297499999998,"{56: 1, 44: 1, 7: 2}","[7, 44, 56]",72441561,Ba1Ru1N2
Ba2RuN2,mp-1245574,0.39239999999999986,3.60982498,0.06185921133332872,"{56: 2, 44: 1, 7: 2}","[7, 44, 56]",72441562,Ba2Ru1N2
Ba(RuN)2,mp-1245703,0.0,3.530862,0.30352990799999624,"{56: 1, 44: 2, 7: 2}","[7, 44, 56]",72442561,Ba1Ru2N2
Ba2PdN2,mp-1247516,0.0,2.73051686,0.23564860300000046,"{56: 2, 46: 1, 7: 2}","[7, 46, 56]",72461562,Ba2Pd1N2
Ba2CdN2,mp-1247299,0.47909999999999986,2.67324134,0.1859941410000001,"{56: 2, 48: 1, 7: 2}","[7, 48, 56]",72481562,Ba2Cd1N2
BaSnN2,mp-1246036,0.7749999999999995,4.14458411,0.1902820034374999,"{56: 1, 50: 1, 7: 2}","[7, 50, 56]",72501561,Ba1Sn1N2
Ba2SnN2,mp-1247232,0.2879999999999998,3.67829398,0.1635944545000001,"{56: 2, 50: 1, 7: 2}","[7, 50, 56]",72501562,Ba2Sn1N2
BaN2,mp-1001,0.0,3.78572257,0.0,"{56: 1, 7: 2}","[7, 56]",72561,Ba1N2
BaCeN2,mp-4887,0.6481000000000003,5.11252325,0.0,"{56: 1, 58: 1, 7: 2}","[7, 56, 58]",72561581,Ba1Ce1N2
BaHfN2,mp-10322,1.2537000000000003,3.37402275,0.0,"{56: 1, 72: 1, 7: 2}","[7, 56, 72]",72561721,Ba1Hf1N2
BaOsN2,mp-1246295,0.0,3.79723077,0.17562727500000097,"{56: 1, 76: 1, 7: 2}","[7, 56, 76]",72561761,Ba1Os1N2
BaIrN2,mp-1247077,0.0,3.79249307,0.28403468062500004,"{56: 1, 77: 1, 7: 2}","[7, 56, 77]",72561771,Ba1Ir1N2
BaThN2,mp-1206598,0.4357999999999995,5.23058322,0.0,"{56: 1, 90: 1, 7: 2}","[7, 56, 90]",72561901,Ba1Th1N2
Ba3N2,mp-1214623,0.09779999999999989,2.46457633,0.11413891116666797,"{56: 3, 7: 2}","[7, 56]",72563,Ba3N2
Ba2Ti6N2O11,mp-755526,1.7616,2.96315268,0.018552394071416956,"{56: 2, 22: 6, 7: 2, 8: 11}","[7, 8, 22, 56]",72811226562,Ba2Ti6N2O11
Ba3Si6(NO6)2,mp-985697,4.6093,2.39529945,0.0,"{56: 3, 14: 6, 7: 2, 8: 12}","[7, 8, 14, 56]",72812146563,Ba3Si6N2O12
Ba3ZnN2O,mp-545788,0.4216000000000002,2.69006548,0.007597668571426297,"{56: 3, 30: 1, 7: 2, 8: 1}","[7, 8, 30, 56]",7281301563,Ba3Zn1N2O1
Ba2MgNb6(NO7)2,mp-1233478,0.0,4.06146313,0.10765116200756175,"{56: 2, 12: 1, 41: 6, 7: 2, 8: 14}","[7, 8, 12, 41, 56]",72814121416562,Ba2Mg1Nb6N2O14
BaSi2(NO)2,mp-6764,3.0102,3.77712942,0.0,"{56: 1, 14: 2, 7: 2, 8: 2}","[7, 8, 14, 56]",7282142561,Ba1Si2N2O2
Ba(NO2)2,mp-27897,2.3829000000000002,0.15843534,0.07296408871428728,"{56: 1, 7: 2, 8: 4}","[7, 8, 56]",7284561,Ba1N2O4
BaS2(NO3)2,mp-728538,1.6921,-0.66181546,0.6071810486363649,"{56: 1, 16: 2, 7: 2, 8: 6}","[7, 8, 16, 56]",7286162561,Ba1S2N2O6
Ba3Mo2(NO3)2,mp-1228095,3.1689,1.72170596,0.02669040053301064,"{56: 3, 42: 2, 7: 2, 8: 6}","[7, 8, 42, 56]",7286422563,Ba3Mo2N2O6
Ba(NO3)2,mp-4396,3.6327000000000003,-0.95854967,0.0,"{56: 1, 7: 2, 8: 6}","[7, 8, 56]",7286561,Ba1N2O6
Ba3AlN3,mp-1246710,0.3069000000000002,2.44063461,0.05902225916666737,"{56: 3, 13: 1, 7: 3}","[7, 13, 56]",73131563,Ba3Al1N3
Ba6Br2N3Cl,mp-1227977,1.1198000000000001,2.50235223,0.0018462166666672886,"{56: 6, 35: 2, 7: 3, 17: 1}","[7, 17, 35, 56]",73171352566,Ba6Br2N3Cl1
BaN3Cl,mp-569812,4.0786999999999995,0.51560096,0.0,"{56: 1, 7: 3, 17: 1}","[7, 17, 56]",73171561,Ba1N3Cl1
Ba3TaN3Cl2,mp-1195508,1.9944000000000002,2.63614245,0.0,"{56: 3, 73: 1, 7: 3, 17: 2}","[7, 17, 56, 73]",73172563731,Ba3Ta1N3Cl2
KBaN3,mp-1223538,0.0,-0.95751841,1.9233960413666669,"{19: 1, 56: 1, 7: 3}","[7, 19, 56]",73191561,K1Ba1N3
Ba3ScN3,mp-1245831,0.19500000000000028,2.02474302,0.27518256119047635,"{56: 3, 21: 1, 7: 3}","[7, 21, 56]",73211563,Ba3Sc1N3
Ba3TiN3,mp-1246088,0.0,2.18798332,0.12960138928571308,"{56: 3, 22: 1, 7: 3}","[7, 22, 56]",73221563,Ba3Ti1N3
Ba2VN3,mp-17696,1.1814,2.9129511,0.0,"{56: 2, 23: 1, 7: 3}","[7, 23, 56]",73231562,Ba2V1N3
Ba3VN3,mp-1245925,0.0,2.84785698,0.1038448017857112,"{56: 3, 23: 1, 7: 3}","[7, 23, 56]",73231563,Ba3V1N3
Ba2CrN3,mp-1029843,0.0,4.55464311,0.0,"{56: 2, 24: 1, 7: 3}","[7, 24, 56]",73241562,Ba2Cr1N3
Ba3CrN3,mp-12905,0.0,3.40837535,0.0,"{56: 3, 24: 1, 7: 3}","[7, 24, 56]",73241563,Ba3Cr1N3
Ba3MnN3,mp-9324,0.0,3.57512463,0.0,"{56: 3, 25: 1, 7: 3}","[7, 25, 56]",73251563,Ba3Mn1N3
Ba3FeN3,mp-8306,0.0,3.43371992,0.0,"{56: 3, 26: 1, 7: 3}","[7, 26, 56]",73261563,Ba3Fe1N3
Ba3CoN3,mp-1246164,0.0,3.33025209,0.03547948923809319,"{56: 3, 27: 1, 7: 3}","[7, 27, 56]",73271563,Ba3Co1N3
Ba3CuN3,mp-1246600,0.0,2.74546287,0.2469936147619025,"{56: 3, 29: 1, 7: 3}","[7, 29, 56]",73291563,Ba3Cu1N3
Ba3GaN3,mp-1029573,0.28049999999999997,2.51711144,0.0,"{56: 3, 31: 1, 7: 3}","[7, 31, 56]",73311563,Ba3Ga1N3
RbBaN3,mp-1219638,0.0,-0.66352326,1.8661509688333329,"{37: 1, 56: 1, 7: 3}","[7, 37, 56]",73371561,Rb1Ba1N3
Ba3YN3,mp-1245853,0.0,2.07975269,0.3338832261904754,"{56: 3, 39: 1, 7: 3}","[7, 39, 56]",73391563,Ba3Y1N3
Ba3ZrN3,mp-1246640,0.05989999999999984,2.23889668,0.24609314857142994,"{56: 3, 40: 1, 7: 3}","[7, 40, 56]",73401563,Ba3Zr1N3
Ba2NbN3,mp-17024,1.9547999999999996,2.34074571,0.0,"{56: 2, 41: 1, 7: 3}","[7, 41, 56]",73411562,Ba2Nb1N3
Ba3NbN3,mp-1245926,0.5491999999999999,2.52449223,0.13586021214285626,"{56: 3, 41: 1, 7: 3}","[7, 41, 56]",73411563,Ba3Nb1N3
Ba2MoN3,mp-1247251,0.0,4.73708742,0.013990281944446181,"{56: 2, 42: 1, 7: 3}","[7, 42, 56]",73421562,Ba2Mo1N3
Ba3MoN3,mp-1246810,0.2958000000000003,3.50773822,0.024933742321429975,"{56: 3, 42: 1, 7: 3}","[7, 42, 56]",73421563,Ba3Mo1N3
Ba2RuN3,mp-1247564,0.0,4.17586988,0.09908873972221954,"{56: 2, 44: 1, 7: 3}","[7, 44, 56]",73441562,Ba2Ru1N3
Ba3RuN3,mp-1029537,0.0,3.76300321,0.0,"{56: 3, 44: 1, 7: 3}","[7, 44, 56]",73441563,Ba3Ru1N3
Ba2SbN3,mp-1247464,1.3703000000000003,3.52978948,0.2949487612500006,"{56: 2, 51: 1, 7: 3}","[7, 51, 56]",73511562,Ba2Sb1N3
BaWN3,mp-989622,1.2852000000000001,3.3536893,0.0,"{56: 1, 74: 1, 7: 3}","[7, 56, 74]",73561741,Ba1W1N3
BaReN3,mp-989637,1.7855000000000003,1.54289253,0.0,"{56: 1, 75: 1, 7: 3}","[7, 56, 75]",73561751,Ba1Re1N3
Ba2TaN3,mp-17400,2.0155000000000003,2.38042326,0.0,"{56: 2, 73: 1, 7: 3}","[7, 56, 73]",73562731,Ba2Ta1N3
Ba2ReN3,mp-1246715,0.0,4.67283307,0.0,"{56: 2, 75: 1, 7: 3}","[7, 56, 75]",73562751,Ba2Re1N3
Ba2IrN3,mp-1247287,0.0,4.12918718,0.22300004458333067,"{56: 2, 77: 1, 7: 3}","[7, 56, 77]",73562771,Ba2Ir1N3
Ba3TaN3,mp-1247074,0.601,2.59839803,0.1616006257142839,"{56: 3, 73: 1, 7: 3}","[7, 56, 73]",73563731,Ba3Ta1N3
Ba3WN3,mp-1246178,0.0,3.4897612,0.04247649441964274,"{56: 3, 74: 1, 7: 3}","[7, 56, 74]",73563741,Ba3W1N3
Ba3ReN3,mp-1245965,0.0,3.91466196,0.0,"{56: 3, 75: 1, 7: 3}","[7, 56, 75]",73563751,Ba3Re1N3
Ba3OsN3,mp-1029640,0.6770000000000005,3.85941145,0.0,"{56: 3, 76: 1, 7: 3}","[7, 56, 76]",73563761,Ba3Os1N3
Ba3IrN3,mp-1029626,0.0,3.9311959,0.0,"{56: 3, 77: 1, 7: 3}","[7, 56, 77]",73563771,Ba3Ir1N3
Ba4GaN3O,mp-1019516,1.1839,2.78513293,0.06355108513888919,"{56: 4, 31: 1, 7: 3, 8: 1}","[7, 8, 31, 56]",7381311564,Ba4Ga1N3O1
Ba3MgGeN4,mp-1019521,1.2902,3.29695628,0.019148895478394934,"{56: 3, 12: 1, 32: 1, 7: 4}","[7, 12, 32, 56]",74121321563,Ba3Mg1Ge1N4
Ba3(AlN2)2,mp-17133,1.5661999999999998,3.98513782,0.0,"{56: 3, 13: 2, 7: 4}","[7, 13, 56]",74132563,Ba3Al2N4
Ba4SiN4,mp-1246210,0.0,2.57091966,0.3424633295370372,"{56: 4, 14: 1, 7: 4}","[7, 14, 56]",74141564,Ba4Si1N4
Ba(PN2)2,mp-2983,3.9118000000000004,4.80492398,0.0,"{56: 1, 15: 2, 7: 4}","[7, 15, 56]",74152561,Ba1P2N4
Ba4W(N2Cl)2,mp-570453,2.2089000000000003,2.03522916,0.0,"{56: 4, 74: 1, 7: 4, 17: 2}","[7, 17, 56, 74]",74172564741,Ba4W1N4Cl2
BaCa(CoN2)2,mp-1357819,0.38270000000000004,0.60958546,0.6941506659375083,"{56: 1, 20: 1, 27: 2, 7: 4}","[7, 20, 27, 56]",74201272561,Ba1Ca1Co2N4
Ba2CaMoN4,mp-1214858,2.4126999999999996,4.82194531,0.0,"{56: 2, 20: 1, 42: 1, 7: 4}","[7, 20, 42, 56]",74201421562,Ba2Ca1Mo1N4
Ba2CaWN4,mp-669377,1.8491,3.05844589,0.00415725312500026,"{56: 2, 20: 1, 74: 1, 7: 4}","[7, 20, 56, 74]",74201562741,Ba2Ca1W1N4
BaCa2(CoN2)2,mp-1352057,0.7009000000000001,1.36221148,0.4922024355555523,"{56: 1, 20: 2, 27: 2, 7: 4}","[7, 20, 27, 56]",74202272561,Ba1Ca2Co2N4
BaCa2WN4,mp-1214597,2.5788999999999995,5.08970699,0.0,"{56: 1, 20: 2, 74: 1, 7: 4}","[7, 20, 56, 74]",74202561741,Ba1Ca2W1N4
BaCa3(CuN2)2,mp-1350317,0.0,2.06159946,0.27245490733334066,"{56: 1, 20: 3, 29: 2, 7: 4}","[7, 20, 29, 56]",74203292561,Ba1Ca3Cu2N4
BaCa4(CoN2)2,mp-606338,0.2914000000000003,3.14724569,0.0,"{56: 1, 20: 4, 27: 2, 7: 4}","[7, 20, 27, 56]",74204272561,Ba1Ca4Co2N4
BaCa4(CuN2)2,mp-569603,0.21879999999999988,3.11687365,0.0,"{56: 1, 20: 4, 29: 2, 7: 4}","[7, 20, 29, 56]",74204292561,Ba1Ca4Cu2N4
Ba3Sc2N4,mp-1247132,1.6042,2.67520547,0.1233583303703707,"{56: 3, 21: 2, 7: 4}","[7, 21, 56]",74212563,Ba3Sc2N4
Ba4TiN4,mp-1245986,0.8544000000000005,4.00717598,0.05479081935184826,"{56: 4, 22: 1, 7: 4}","[7, 22, 56]",74221564,Ba4Ti1N4
Ba3(TiN2)2,mp-1246374,0.0,4.74386576,0.09223803888888682,"{56: 3, 22: 2, 7: 4}","[7, 22, 56]",74222563,Ba3Ti2N4
Ba4VN4,mp-1245490,0.16610000000000014,3.42525862,0.033088135277775876,"{56: 4, 23: 1, 7: 4}","[7, 23, 56]",74231564,Ba4V1N4
Ba(VN2)2,mp-1029918,1.5780000000000003,2.27465353,0.01516849040476309,"{56: 1, 23: 2, 7: 4}","[7, 23, 56]",74232561,Ba1V2N4
Ba3(VN2)2,mp-1246136,0.0,4.05774695,0.08213960014814514,"{56: 3, 23: 2, 7: 4}","[7, 23, 56]",74232563,Ba3V2N4
Ba(CrN2)2,mp-1029568,0.0,3.6108148,0.111158827880951,"{56: 1, 24: 2, 7: 4}","[7, 24, 56]",74242561,Ba1Cr2N4
Ba3(CrN2)2,mp-1246167,0.0,5.2192129,0.12516175805555552,"{56: 3, 24: 2, 7: 4}","[7, 24, 56]",74242563,Ba3Cr2N4
Ba4MnN4,mp-1246840,0.0,3.42216303,0.0810610537037002,"{56: 4, 25: 1, 7: 4}","[7, 25, 56]",74251564,Ba4Mn1N4
Ba(MnN2)2,mp-1245357,0.0,3.47584652,0.054360668142853896,"{56: 1, 25: 2, 7: 4}","[7, 25, 56]",74252561,Ba1Mn2N4
Ba3(MnN2)2,mp-1246671,0.0,5.07215627,0.137728950076621,"{56: 3, 25: 2, 7: 4}","[7, 25, 56]",74252563,Ba3Mn2N4
Ba3(FeN2)2,mp-1246438,0.0,4.79536943,0.1060161727777782,"{56: 3, 26: 2, 7: 4}","[7, 26, 56]",74262563,Ba3Fe2N4
Ba5(FeN2)2,mp-1245602,0.0,3.13989619,0.13146713121212095,"{56: 5, 26: 2, 7: 4}","[7, 26, 56]",74262565,Ba5Fe2N4
Ba4CoN4,mp-1246144,0.0,3.38477363,0.15874186533333212,"{56: 4, 27: 1, 7: 4}","[7, 27, 56]",74271564,Ba4Co1N4
Ba3(CoN2)2,mp-1246197,0.0,4.51828207,0.22958919622221963,"{56: 3, 27: 2, 7: 4}","[7, 27, 56]",74272563,Ba3Co2N4
Ba3(GaN2)2,mp-18297,1.4937000000000005,3.09023104,0.002699011111110927,"{56: 3, 31: 2, 7: 4}","[7, 31, 56]",74312563,Ba3Ga2N4
Ba4GeN4,mp-1246705,1.0221999999999998,2.95211614,0.08846627046296351,"{56: 4, 32: 1, 7: 4}","[7, 32, 56]",74321564,Ba4Ge1N4
Ba3(GeN2)2,mp-1246626,0.5575000000000001,4.3394401,0.21059205819444582,"{56: 3, 32: 2, 7: 4}","[7, 32, 56]",74322563,Ba3Ge2N4
Ba3Y2N4,mp-1246601,0.6835,2.88727614,0.1736016320370375,"{56: 3, 39: 2, 7: 4}","[7, 39, 56]",74392563,Ba3Y2N4
Ba4ZrN4,mp-1245594,0.8917000000000002,2.74988152,0.028886333703703748,"{56: 4, 40: 1, 7: 4}","[7, 40, 56]",74401564,Ba4Zr1N4
Ba(NbN2)2,mp-1029502,2.1708,2.19668261,0.0,"{56: 1, 41: 2, 7: 4}","[7, 41, 56]",74412561,Ba1Nb2N4
Ba3(NbN2)2,mp-1246053,0.0,3.18290155,0.1342249563333322,"{56: 3, 41: 2, 7: 4}","[7, 41, 56]",74412563,Ba3Nb2N4
Ba3MoN4,mp-8863,1.8505000000000003,2.1645019,0.0,"{56: 3, 42: 1, 7: 4}","[7, 42, 56]",74421563,Ba3Mo1N4
Ba(MoN2)2,mp-1029505,0.0,4.56317851,0.0037370319279386166,"{56: 1, 42: 2, 7: 4}","[7, 42, 56]",74422561,Ba1Mo2N4
Ba3(MoN2)2,mp-1247339,0.0,5.2916583,0.18849899472222198,"{56: 3, 42: 2, 7: 4}","[7, 42, 56]",74422563,Ba3Mo2N4
Ba4RuN4,mp-1245784,0.0,4.15998608,0.14772851370370166,"{56: 4, 44: 1, 7: 4}","[7, 44, 56]",74441564,Ba4Ru1N4
Ba(RuN2)2,mp-1246989,0.0,4.06233425,0.2579185505952397,"{56: 1, 44: 2, 7: 4}","[7, 44, 56]",74442561,Ba1Ru2N4
Ba3(RuN2)2,mp-1247072,0.0,4.85334225,0.19085832685184734,"{56: 3, 44: 2, 7: 4}","[7, 44, 56]",74442563,Ba3Ru2N4
Ba3(InN2)2,mp-1246176,1.0001999999999995,3.82406761,0.2638328399999983,"{56: 3, 49: 2, 7: 4}","[7, 49, 56]",74492563,Ba3In2N4
Ba4SnN4,mp-1246104,0.6517,3.47201794,0.18986510444444438,"{56: 4, 50: 1, 7: 4}","[7, 50, 56]",74501564,Ba4Sn1N4
Ba(SbN2)2,mp-1246824,1.3093000000000004,4.07885896,0.4288482627380956,"{56: 1, 51: 2, 7: 4}","[7, 51, 56]",74512561,Ba1Sb2N4
Ba(TaN2)2,mp-1029616,2.6931,2.21394006,0.0,"{56: 1, 73: 2, 7: 4}","[7, 56, 73]",74561732,Ba1Ta2N4
Ba(ReN2)2,mp-1029619,0.0860000000000003,4.25885121,0.08901903880953554,"{56: 1, 75: 2, 7: 4}","[7, 56, 75]",74561752,Ba1Re2N4
Ba(OsN2)2,mp-1246067,0.0,4.44676899,0.2827519114285728,"{56: 1, 76: 2, 7: 4}","[7, 56, 76]",74561762,Ba1Os2N4
Ba3(TaN2)2,mp-1246804,0.0,3.96144766,0.09998161233333036,"{56: 3, 73: 2, 7: 4}","[7, 56, 73]",74563732,Ba3Ta2N4
Ba3WN4,mp-14743,1.9649999999999999,2.06341096,0.0,"{56: 3, 74: 1, 7: 4}","[7, 56, 74]",74563741,Ba3W1N4
Ba3(WN2)2,mp-1246361,0.0,5.12403402,0.275711423472222,"{56: 3, 74: 2, 7: 4}","[7, 56, 74]",74563742,Ba3W2N4
Ba3(OsN2)2,mp-1247412,0.0,4.99585237,0.257461258055554,"{56: 3, 76: 2, 7: 4}","[7, 56, 76]",74563762,Ba3Os2N4
Ba3(IrN2)2,mp-1247183,0.12230000000000008,4.74967492,0.2993206858333286,"{56: 3, 77: 2, 7: 4}","[7, 56, 77]",74563772,Ba3Ir2N4
Ba3(BiN2)2,mp-1246206,0.8849,3.8099825,0.4549190625000019,"{56: 3, 83: 2, 7: 4}","[7, 56, 83]",74563832,Ba3Bi2N4
Ba4IrN4,mp-1246507,0.0,3.72618792,0.1613169759259261,"{56: 4, 77: 1, 7: 4}","[7, 56, 77]",74564771,Ba4Ir1N4
Ba4PtN4,mp-1245908,0.0,3.60006172,0.3814366562962954,"{56: 4, 78: 1, 7: 4}","[7, 56, 78]",74564781,Ba4Pt1N4
BaErAl3SiN4O3,mp-1214427,2.6118999999999994,7.92371462,0.022519388437507004,"{56: 1, 68: 1, 13: 3, 14: 1, 7: 4, 8: 3}","[7, 8, 13, 14, 56, 68]",7483133141561681,Ba1Er1Al3Si1N4O3
BaAl2Si3(NO)4,mp-1019531,3.5521000000000003,3.71502102,0.0,"{56: 1, 13: 2, 14: 3, 7: 4, 8: 4}","[7, 8, 13, 14, 56]",7484132143561,Ba1Al2Si3N4O4
K2Ba(NO2)4,mp-560282,2.0734000000000004,0.13374494,0.060723037966658566,"{19: 2, 56: 1, 7: 4, 8: 8}","[7, 8, 19, 56]",7488192561,K2Ba1N4O8
Ba3Si6N4O9,mp-554885,4.372,2.86060963,0.0,"{56: 3, 14: 6, 7: 4, 8: 9}","[7, 8, 14, 56]",7489146563,Ba3Si6N4O9
Ba3Al3N5,mp-1247525,1.7764999999999995,4.1946926,0.04165869227272889,"{56: 3, 13: 3, 7: 5}","[7, 13, 56]",75133563,Ba3Al3N5
Ba10Br4N5Cl,mp-1228723,1.1066000000000003,2.46901026,0.0026066540000009297,"{56: 10, 35: 4, 7: 5, 17: 1}","[7, 17, 35, 56]",751713545610,Ba10Br4N5Cl1
Ba10BrN5Cl4,mp-1228725,1.0519000000000003,2.60826733,0.0020743360000006206,"{56: 10, 35: 1, 7: 5, 17: 4}","[7, 17, 35, 56]",751743515610,Ba10Br1N5Cl4
Ba3Sc3N5,mp-1247430,1.7797000000000005,4.37372024,0.11383380303030322,"{56: 3, 21: 3, 7: 5}","[7, 21, 56]",75213563,Ba3Sc3N5
Ba3Ti3N5,mp-1247437,0.0,4.93297258,0.13454681499999843,"{56: 3, 22: 3, 7: 5}","[7, 22, 56]",75223563,Ba3Ti3N5
Ba3V3N5,mp-1245439,0.0,4.9841007,0.1946508159242395,"{56: 3, 23: 3, 7: 5}","[7, 23, 56]",75233563,Ba3V3N5
Ba5CrN5,mp-29082,0.1251000000000002,2.88617922,0.0,"{56: 5, 24: 1, 7: 5}","[7, 24, 56]",75241565,Ba5Cr1N5
Ba3Cr3N5,mp-1246255,0.0,5.08276444,0.18254018454545395,"{56: 3, 24: 3, 7: 5}","[7, 24, 56]",75243563,Ba3Cr3N5
Ba3Mn3N5,mp-1247297,0.0,4.7128028,0.1177399433072086,"{56: 3, 25: 3, 7: 5}","[7, 25, 56]",75253563,Ba3Mn3N5
Ba3Fe3N5,mp-1247465,0.0,4.52556203,0.009673596818181807,"{56: 3, 26: 3, 7: 5}","[7, 26, 56]",75263563,Ba3Fe3N5
Ba3Co3N5,mp-1245810,0.0,3.9922821,0.13606905345454123,"{56: 3, 27: 3, 7: 5}","[7, 27, 56]",75273563,Ba3Co3N5
Ba3Ga3N5,mp-1019515,1.4175999999999997,2.97355745,0.007061815681818295,"{56: 3, 31: 3, 7: 5}","[7, 31, 56]",75313563,Ba3Ga3N5
Ba10IBr4N5,mp-1228784,1.1258999999999997,2.53266621,0.0,"{56: 10, 53: 1, 35: 4, 7: 5}","[7, 35, 53, 56]",753545315610,Ba10I1Br4N5
Ba3Y3N5,mp-1246917,1.1798000000000002,3.4207139,0.1620542939393923,"{56: 3, 39: 3, 7: 5}","[7, 39, 56]",75393563,Ba3Y3N5
Ba3Nb3N5,mp-1246866,0.0,4.71759061,0.1794010312727261,"{56: 3, 41: 3, 7: 5}","[7, 41, 56]",75413563,Ba3Nb3N5
Ba3Mo3N5,mp-1246568,0.0,5.25702166,0.20559913113635897,"{56: 3, 42: 3, 7: 5}","[7, 42, 56]",75423563,Ba3Mo3N5
Ba3Ru3N5,mp-1245968,0.0,4.78694269,0.15129675393939923,"{56: 3, 44: 3, 7: 5}","[7, 44, 56]",75443563,Ba3Ru3N5
Ba3In3N5,mp-1246621,0.5379000000000005,4.6205323,0.2521443266477279,"{56: 3, 49: 3, 7: 5}","[7, 49, 56]",75493563,Ba3In3N5
Ba3Ta3N5,mp-1246332,0.0,4.99862353,0.19577200199999822,"{56: 3, 73: 3, 7: 5}","[7, 56, 73]",75563733,Ba3Ta3N5
Ba3W3N5,mp-1245852,0.0,5.06888405,0.32252816965908515,"{56: 3, 74: 3, 7: 5}","[7, 56, 74]",75563743,Ba3W3N5