formula,material_id,band_gap,efermi,energy_above_hull,comp_atoms,sorted_keys_comp_atoms,comp_number,new_formula
BaNb4Bi4PbO18,mp-1228636,1.8561999999999999,3.54779976,0.017970152839281717,"{56: 1, 41: 4, 83: 4, 82: 1, 8: 18}","[8, 41, 56, 82, 83]",818414561821834,Ba1Nb4Bi4Pb1O18
Ba3Mo2(IO9)2,mp-1198357,0.0,1.23481316,0.13930265279999787,"{56: 3, 42: 2, 53: 2, 8: 18}","[8, 42, 53, 56]",818422532563,Ba3Mo2I2O18
Ba2Ru7O18,mp-559442,0.0,3.65953499,0.0,"{56: 2, 44: 7, 8: 18}","[8, 44, 56]",818447562,Ba2Ru7O18
Ba6Bi2(TeO6)3,mp-1228122,2.0681000000000003,3.30372099,0.0,"{56: 6, 83: 2, 52: 3, 8: 18}","[8, 52, 56, 83]",818523566832,Ba6Bi2Te3O18
Ba(WO3)6,mp-867545,0.0,2.99366232,0.00022334520000377722,"{56: 1, 74: 6, 8: 18}","[8, 56, 74]",818561746,Ba1W6O18
Ba6Gd(ReO6)3,mp-1229259,1.9388999999999998,1.92488791,0.0,"{56: 6, 64: 1, 75: 3, 8: 18}","[8, 56, 64, 75]",818566641753,Ba6Gd1Re3O18
Ba6Lu2(WO6)3,mp-16928,2.9903,2.15659937,0.0,"{56: 6, 71: 2, 74: 3, 8: 18}","[8, 56, 71, 74]",818566712743,Ba6Lu2W3O18
Ba8Dy3(Pt2O9)2,mp-1214436,0.0,2.96397919,0.0,"{56: 8, 66: 3, 78: 4, 8: 18}","[8, 56, 66, 78]",818568663784,Ba8Dy3Pt4O18
Ba8Ho3(Pt2O9)2,mp-1214459,0.0,2.94249988,0.0,"{56: 8, 67: 3, 78: 4, 8: 18}","[8, 56, 67, 78]",818568673784,Ba8Ho3Pt4O18
Ba8Lu3(Pt2O9)2,mp-1214446,0.0,2.93843121,0.0,"{56: 8, 71: 3, 78: 4, 8: 18}","[8, 56, 71, 78]",818568713784,Ba8Lu3Pt4O18
Ba4NbP4(O9F)2,mp-695140,0.0,-0.12731221,0.21160736900863597,"{56: 4, 41: 1, 15: 4, 8: 18, 9: 2}","[8, 9, 15, 41, 56]",81892154411564,Ba4Nb1P4O18F2
Ba7Sc6Al2O19,mp-559325,2.4206999999999996,2.43714339,0.0,"{56: 7, 21: 6, 13: 2, 8: 19}","[8, 13, 21, 56]",819132216567,Ba7Sc6Al2O19
BaNb10SiO19,mp-555764,0.014800000000000146,4.74705294,0.0,"{56: 1, 41: 10, 14: 1, 8: 19}","[8, 14, 41, 56]",8191414110561,Ba1Nb10Si1O19
BaU2P2O19,mp-1201878,0.6748,0.7106385,0.3872691549999985,"{56: 1, 92: 2, 15: 2, 8: 19}","[8, 15, 56, 92]",819152561922,Ba1U2P2O19
Ba6Ca3Cu6Hg3O19,mp-1228161,0.0,2.43915952,0.04067622495495549,"{56: 6, 20: 3, 29: 6, 80: 3, 8: 19}","[8, 20, 29, 56, 80]",819203296566803,Ba6Ca3Cu6Hg3O19
Ba4Ca4Tl3Cu6O19,mp-542197,0.0,3.86690946,0.01285629020832424,"{56: 4, 20: 4, 81: 3, 29: 6, 8: 19}","[8, 20, 29, 56, 81]",819204296564813,Ba4Ca4Tl3Cu6O19
Ba2Fe2S2OF2,mp-551403,1.8181000000000003,3.14638537,0.026352776666666244,"{56: 2, 26: 2, 16: 2, 8: 1, 9: 2}","[8, 9, 16, 26, 56]",8192162262562,Ba2Fe2S2O1F2
Ba2Mn2Se2OF2,mp-1080029,0.0,3.25606048,0.0,"{56: 2, 25: 2, 34: 2, 8: 1, 9: 2}","[8, 9, 25, 34, 56]",8192252342562,Ba2Mn2Se2O1F2
Ba2Fe2Se2OF2,mp-549058,1.8099999999999996,2.71548869,0.003922526111109548,"{56: 2, 26: 2, 34: 2, 8: 1, 9: 2}","[8, 9, 26, 34, 56]",8192262342562,Ba2Fe2Se2O1F2
BaV4As4O19,mp-560714,1.5368000000000002,2.36966252,0.14503612937499444,"{56: 1, 23: 4, 33: 4, 8: 19}","[8, 23, 33, 56]",819234334561,Ba1V4As4O19
Ba12V4O19,mp-1228785,0.0,4.02068064,0.055449637107143346,"{56: 12, 23: 4, 8: 19}","[8, 23, 56]",8192345612,Ba12V4O19
BaFe12O19,mp-554293,1.2163,4.04123458,0.05535916000000629,"{56: 1, 26: 12, 8: 19}","[8, 26, 56]",8192612561,Ba1Fe12O19
Ba8Co7O19,mp-704890,0.5323000000000002,2.7270771,0.07524221139706633,"{56: 8, 27: 7, 8: 19}","[8, 27, 56]",819277568,Ba8Co7O19
Ba8Cu8O19,mp-766404,0.0,2.85949139,0.03765309799999805,"{56: 8, 29: 8, 8: 19}","[8, 29, 56]",819298568,Ba8Cu8O19
BaGa12O19,mp-850536,1.9291,2.55984034,0.015173574218749764,"{56: 1, 31: 12, 8: 19}","[8, 31, 56]",8193112561,Ba1Ga12O19
Ba3U2As4O19,mp-1199328,2.363,3.302874,0.016654942455364363,"{56: 3, 92: 2, 33: 4, 8: 19}","[8, 33, 56, 92]",819334563922,Ba3U2As4O19
BaTiOF4,mp-16915,3.3400000000000003,-0.25869798,0.0,"{56: 1, 22: 1, 8: 1, 9: 4}","[8, 9, 22, 56]",8194221561,Ba1Ti1O1F4
BaVOF4,mp-556379,2.7946,0.31466853,0.0,"{56: 1, 23: 1, 8: 1, 9: 4}","[8, 9, 23, 56]",8194231561,Ba1V1O1F4
Ba8In8O19,mp-757574,1.3122000000000003,3.32600154,0.016691979253969258,"{56: 8, 49: 8, 8: 19}","[8, 49, 56]",819498568,Ba8In8O19
BaMnOF5,mp-1189956,0.0,-0.88626417,0.2631325853124995,"{56: 1, 25: 1, 8: 1, 9: 5}","[8, 9, 25, 56]",8195251561,Ba1Mn1O1F5
BaFeOF5,mp-1196275,0.8303,-2.11466788,0.3055752121874997,"{56: 1, 26: 1, 8: 1, 9: 5}","[8, 9, 26, 56]",8195261561,Ba1Fe1O1F5
BaW6O19,mp-675198,0.0,2.86487856,0.337223438894231,"{56: 1, 74: 6, 8: 19}","[8, 56, 74]",819561746,Ba1W6O19
Ba7Ir6O19,mp-28867,0.0,4.17046705,0.00715372951172899,"{56: 7, 77: 6, 8: 19}","[8, 56, 77]",819567776,Ba7Ir6O19
Ba2TiOF6,mp-561256,3.6382000000000003,-0.74815877,0.010474552250006042,"{56: 2, 22: 1, 8: 1, 9: 6}","[8, 9, 22, 56]",8196221562,Ba2Ti1O1F6
Ba4OF6,mp-754354,3.6156,0.2121105,0.013757840454546866,"{56: 4, 8: 1, 9: 6}","[8, 9, 56]",8196564,Ba4O1F6
Ba3TaOF9,mp-1228505,0.0,1.86548025,0.2411026770357152,"{56: 3, 73: 1, 8: 1, 9: 9}","[8, 9, 56, 73]",8199563731,Ba3Ta1O1F9
Ba3NaY3(Si3O10)2,mp-1019523,4.7986,1.35122123,0.0,"{56: 3, 11: 1, 39: 3, 14: 6, 8: 20}","[8, 11, 14, 39, 56]",820111146393563,Ba3Na1Y3Si6O20
Ba3NaNd3(Si3O10)2,mp-559502,4.346500000000001,1.23257642,0.0,"{56: 3, 11: 1, 60: 3, 14: 6, 8: 20}","[8, 11, 14, 56, 60]",820111146563603,Ba3Na1Nd3Si6O20
Ba3NaSm3(Si3O10)2,mp-1195058,4.63,1.22975015,0.0,"{56: 3, 11: 1, 62: 3, 14: 6, 8: 20}","[8, 11, 14, 56, 62]",820111146563623,Ba3Na1Sm3Si6O20
Ba3NaEu3(Si3O10)2,mp-1098017,0.0,1.56249306,0.032058624659082824,"{56: 3, 11: 1, 63: 3, 14: 6, 8: 20}","[8, 11, 14, 56, 63]",820111146563633,Ba3Na1Eu3Si6O20
Ba3NaGd3(Si3O10)2,mp-1194728,3.3773,4.64337526,0.0,"{56: 3, 11: 1, 64: 3, 14: 6, 8: 20}","[8, 11, 14, 56, 64]",820111146563643,Ba3Na1Gd3Si6O20
Ba3TiAl10O20,mp-1228063,3.2524,2.67326146,0.007033299147062522,"{56: 3, 22: 1, 13: 10, 8: 20}","[8, 13, 22, 56]",8201310221563,Ba3Ti1Al10O20
Ba6Sm3Al(Cu2O5)4,mp-1228395,0.0,3.38900218,0.07499252589966332,"{56: 6, 62: 3, 13: 1, 29: 8, 8: 20}","[8, 13, 29, 56, 62]",820131298566623,Ba6Sm3Al1Cu8O20
Ba3Zn6Si4TeO20,mp-543034,2.6456000000000004,2.09808277,0.0,"{56: 3, 30: 6, 14: 4, 52: 1, 8: 20}","[8, 14, 30, 52, 56]",820144306521563,Ba3Zn6Si4Te1O20
BaBi6(PO5)4,mp-554084,3.4275999999999995,3.15531673,0.0,"{56: 1, 83: 6, 15: 4, 8: 20}","[8, 15, 56, 83]",820154561836,Ba1Bi6P4O20
Ba3U2(PO5)4,mp-726684,0.059700000000000086,1.21343415,0.021436842413795176,"{56: 3, 92: 2, 15: 4, 8: 20}","[8, 15, 56, 92]",820154563922,Ba3U2P4O20
Ba(SO4)5,mp-1198200,0.0,-2.0052842,0.19329700964741647,"{56: 1, 16: 5, 8: 20}","[8, 16, 56]",820165561,Ba1S5O20
Ba4CaTl4(Cu3O10)2,mp-1356093,0.0,2.95087209,0.20228127142860242,"{56: 4, 20: 1, 81: 4, 29: 6, 8: 20}","[8, 20, 29, 56, 81]",820201296564814,Ba4Ca1Tl4Cu6O20
Ba7Ca2Mn3V2O20,mp-560912,2.1808,4.53796269,0.0,"{56: 7, 20: 2, 25: 3, 23: 2, 8: 20}","[8, 20, 23, 25, 56]",820202232253567,Ba7Ca2Mn3V2O20
Ba7Ca2Mn3Cr2O20,mp-556182,0.0,2.52924594,0.002274689558839249,"{56: 7, 20: 2, 25: 3, 24: 2, 8: 20}","[8, 20, 24, 25, 56]",820202242253567,Ba7Ca2Mn3Cr2O20
Ba7Ca2Mn5O20,mp-556409,0.7955000000000001,2.372734,0.0,"{56: 7, 20: 2, 25: 5, 8: 20}","[8, 20, 25, 56]",820202255567,Ba7Ca2Mn5O20
BaTi10O20,mp-766314,0.0,4.42770969,0.01232560822583828,"{56: 1, 22: 10, 8: 20}","[8, 22, 56]",8202210561,Ba1Ti10O20
Ba2Ti9O20,mp-560731,2.7429,4.8978811,0.00656966262096681,"{56: 2, 22: 9, 8: 20}","[8, 22, 56]",820229562,Ba2Ti9O20
Ba3Fe10SnO20,mp-1228526,1.7977999999999998,1.93677274,0.04671581735294872,"{56: 3, 26: 10, 50: 1, 8: 20}","[8, 26, 50, 56]",8202610501563,Ba3Fe10Sn1O20
Ba3Fe8Sn3O20,mp-1214965,0.04290000000000038,4.04619938,0.10316808676473599,"{56: 3, 26: 8, 50: 3, 8: 20}","[8, 26, 50, 56]",820268503563,Ba3Fe8Sn3O20
Ba4Fe9O20,mp-1182448,0.0,1.89007739,0.08554702818181692,"{56: 4, 26: 9, 8: 20}","[8, 26, 56]",820269564,Ba4Fe9O20
Ba3Co8Sn3O20,mp-1214703,0.0,2.75480281,0.11353876492647252,"{56: 3, 27: 8, 50: 3, 8: 20}","[8, 27, 50, 56]",820278503563,Ba3Co8Sn3O20
Ba4Nd8Cu3PtO20,mp-1228282,0.8457000000000003,3.71660352,0.016909012569483295,"{56: 4, 60: 8, 29: 3, 78: 1, 8: 20}","[8, 29, 56, 60, 78]",820293564608781,Ba4Nd8Cu3Pt1O20
Ba6Y3Cu9O20,mp-1228278,0.0,3.36857508,0.031461961421038964,"{56: 6, 39: 3, 29: 9, 8: 20}","[8, 29, 39, 56]",820299393566,Ba6Y3Cu9O20
Ba2Ga11BiO20,mp-1228575,2.9869999999999997,1.33023106,0.002205046948528633,"{56: 2, 31: 11, 83: 1, 8: 20}","[8, 31, 56, 83]",8203111562831,Ba2Ga11Bi1O20
Ba7Nb4MoO20,mp-1228195,2.6403,4.44571983,0.008759826093751144,"{56: 7, 41: 4, 42: 1, 8: 20}","[8, 41, 42, 56]",820414421567,Ba7Nb4Mo1O20
Ba4TiAl3P4(O5F)4,mp-1228335,0.0,1.87801636,0.07693945438131866,"{56: 4, 22: 1, 13: 3, 15: 4, 8: 20, 9: 4}","[8, 9, 13, 15, 22, 56]",82094133154221564,Ba4Ti1Al3P4O20F4
BaNaCuClO2,mp-1232325,0.0,2.27528531,0.09638177770833245,"{56: 1, 11: 1, 29: 1, 17: 1, 8: 2}","[8, 11, 17, 29, 56]",82111171291561,Ba1Na1Cu1Cl1O2
BaNaCuBrO2,mp-1147772,0.0,2.05877567,0.0825868818750024,"{56: 1, 11: 1, 29: 1, 35: 1, 8: 2}","[8, 11, 29, 35, 56]",82111291351561,Ba1Na1Cu1Br1O2
Ba6Mg(P2O7)3,mp-1233105,1.5761000000000003,4.19337757,0.16414591640125753,"{56: 6, 12: 1, 15: 6, 8: 21}","[8, 12, 15, 56]",821121156566,Ba6Mg1P6O21
Ba2Na2U(S2O)2,mp-1102325,1.2452999999999999,3.4110578,0.0,"{56: 2, 11: 2, 92: 1, 16: 4, 8: 2}","[8, 11, 16, 56, 92]",82112164562921,Ba2Na2U1S4O2
BaNa2O2,mp-755391,1.5152,0.71755752,0.06155149600000165,"{56: 1, 11: 2, 8: 2}","[8, 11, 56]",82112561,Ba1Na2O2
Ba3Al2(Sb2O7)3,mp-1252320,1.358,3.72373787,0.22346754429687543,"{56: 3, 13: 2, 51: 6, 8: 21}","[8, 13, 51, 56]",821132516563,Ba3Al2Sb6O21
Ba3Al4(Sb2O7)3,mp-1358157,0.0,1.72337921,0.3271153558455824,"{56: 3, 13: 4, 51: 6, 8: 21}","[8, 13, 51, 56]",821134516563,Ba3Al4Sb6O21
BaSi(S2O7)3,mp-1201400,5.2985999999999995,-0.49244777,0.0,"{56: 1, 14: 1, 16: 6, 8: 21}","[8, 14, 16, 56]",821141166561,Ba1Si1S6O21
Ba5Si8O21,mp-669333,4.5125,1.13879386,0.00500625786762221,"{56: 5, 14: 8, 8: 21}","[8, 14, 56]",821148565,Ba5Si8O21
BaTi(S2O7)3,mp-1198551,2.7332,-0.88868148,0.0,"{56: 1, 22: 1, 16: 6, 8: 21}","[8, 16, 22, 56]",821166221561,Ba1Ti1S6O21
BaGe(S2O7)3,mp-1019548,3.9450000000000003,3.09550443,0.0,"{56: 1, 32: 1, 16: 6, 8: 21}","[8, 16, 32, 56]",821166321561,Ba1Ge1S6O21
Ba7V6CoCl4O21,mp-1194914,1.3615,1.29402088,0.03710314651709279,"{56: 7, 23: 6, 27: 1, 17: 4, 8: 21}","[8, 17, 23, 27, 56]",821174236271567,Ba7V6Co1Cl4O21
KBa6Zn4(GaO3)7,mp-677520,2.4644,0.98880385,0.0,"{19: 1, 56: 6, 30: 4, 31: 7, 8: 21}","[8, 19, 30, 31, 56]",821191304317566,K1Ba6Zn4Ga7O21
Ba6CaEu2Cu6(HgO7)3,mp-1228635,0.0,2.48158362,0.14756625897436138,"{56: 6, 20: 1, 63: 2, 29: 6, 80: 3, 8: 21}","[8, 20, 29, 56, 63, 80]",821201296566632803,Ba6Ca1Eu2Cu6Hg3O21
BaMgCuO2,mp-2225405,0.0,4.30077541,0.9415128380000022,"{56: 1, 12: 1, 29: 1, 8: 2}","[8, 12, 29, 56]",82121291561,Ba1Mg1Cu1O2
Rb2Ba8Mg(Sb3O)2,mp-1234383,0.5471999999999997,3.25143208,0.12372916136841994,"{37: 2, 56: 8, 12: 1, 51: 6, 8: 2}","[8, 12, 37, 51, 56]",82121372516568,Rb2Ba8Mg1Sb6O2
BaMgAgO2,mp-2227990,0.0,3.12781476,0.8855477556666687,"{56: 1, 12: 1, 47: 1, 8: 2}","[8, 12, 47, 56]",82121471561,Ba1Mg1Ag1O2
BaMgO2,mp-756018,3.1592000000000002,1.34969686,0.03772488416666686,"{56: 1, 12: 1, 8: 2}","[8, 12, 56]",82121561,Ba1Mg1O2
Ba7Ti2Nb4O21,mp-1228174,2.5316,2.05457305,0.001803005588250528,"{56: 7, 22: 2, 41: 4, 8: 21}","[8, 22, 41, 56]",821222414567,Ba7Ti2Nb4O21
Ba3Ti4Sb4O21,mp-1228624,2.4014,5.52596069,0.02860096880857821,"{56: 3, 22: 4, 51: 4, 8: 21}","[8, 22, 51, 56]",821224514563,Ba3Ti4Sb4O21
Ba3Ta4Ti4O21,mp-1228489,2.1932,4.16925857,0.0,"{56: 3, 73: 4, 22: 4, 8: 21}","[8, 22, 56, 73]",821224563734,Ba3Ta4Ti4O21
Ba3Ta2Ti6O21,mp-1214621,0.0,1.85235334,0.03333744628124968,"{56: 3, 73: 2, 22: 6, 8: 21}","[8, 22, 56, 73]",821226563732,Ba3Ta2Ti6O21
BaV8O21,mp-766124,1.0306000000000002,0.20582645,0.006977107111111991,"{56: 1, 23: 8, 8: 21}","[8, 23, 56]",821238561,Ba1V8O21
Ba5Y8Mn4O21,mp-1199104,1.5582000000000003,3.62600127,0.013974079703947595,"{56: 5, 39: 8, 25: 4, 8: 21}","[8, 25, 39, 56]",821254398565,Ba5Y8Mn4O21
Ba5Nd8Mn4O21,mp-19460,1.8889,3.36903354,0.0,"{56: 5, 60: 8, 25: 4, 8: 21}","[8, 25, 56, 60]",821254565608,Ba5Nd8Mn4O21
Ba5Sm8Mn4O21,mp-19471,0.5510999999999999,4.60137343,0.0,"{56: 5, 62: 8, 25: 4, 8: 21}","[8, 25, 56, 62]",821254565628,Ba5Sm8Mn4O21
Ba5Gd8Mn4O21,mp-19485,0.2378,3.81842254,1.4129250439144752,"{56: 5, 64: 8, 25: 4, 8: 21}","[8, 25, 56, 64]",821254565648,Ba5Gd8Mn4O21
Ba5Ho8Mn4O21,mp-17339,0.5823,4.73830812,0.011178888914475493,"{56: 5, 67: 8, 25: 4, 8: 21}","[8, 25, 56, 67]",821254565678,Ba5Ho8Mn4O21
Ba8Mn8O21,mp-694888,0.0,3.01607514,0.0,"{56: 8, 25: 8, 8: 21}","[8, 25, 56]",821258568,Ba8Mn8O21
Ba3Ta6Fe2O21,mp-1228561,2.2005999999999997,3.93330237,0.0,"{56: 3, 73: 6, 26: 2, 8: 21}","[8, 26, 56, 73]",821262563736,Ba3Ta6Fe2O21
Ba4Pr4Fe4Cu4O21,mp-1228619,0.07240000000000002,3.42347064,0.025072006664429658,"{56: 4, 59: 4, 26: 4, 29: 4, 8: 21}","[8, 26, 29, 56, 59]",821264294564594,Ba4Pr4Fe4Cu4O21
Ba8Fe8O21,mp-757601,0.0,2.63412603,0.040793076254824534,"{56: 8, 26: 8, 8: 21}","[8, 26, 56]",821268568,Ba8Fe8O21
Ba8(CoO3)7,mp-30201,0.1522000000000001,2.68217752,0.024508068402780303,"{56: 8, 27: 7, 8: 21}","[8, 27, 56]",821277568,Ba8Co7O21
Ba10Cu5Hg5O21,mp-1229200,0.0,1.8816353,0.042857528780495535,"{56: 10, 29: 5, 80: 5, 8: 21}","[8, 29, 56, 80]",8212955610805,Ba10Cu5Hg5O21
Ba6YTl3(Cu2O7)3,mp-1356115,0.0,2.42870422,0.1485671641723183,"{56: 6, 39: 1, 81: 3, 29: 6, 8: 21}","[8, 29, 39, 56, 81]",821296391566813,Ba6Y1Tl3Cu6O21
Ba5Y8Zn4O21,mp-1214479,3.4094999999999995,2.42677303,0.012574262039466433,"{56: 5, 39: 8, 30: 4, 8: 21}","[8, 30, 39, 56]",821304398565,Ba5Y8Zn4O21
Ba5Eu8Zn4O21,mp-581206,0.0,2.05738912,0.1675103358552601,"{56: 5, 63: 8, 30: 4, 8: 21}","[8, 30, 56, 63]",821304565638,Ba5Eu8Zn4O21
Ba5Gd8Zn4O21,mp-16538,2.7487999999999997,2.38040874,0.006873087083342,"{56: 5, 64: 8, 30: 4, 8: 21}","[8, 30, 56, 64]",821304565648,Ba5Gd8Zn4O21
Ba5Dy8Zn4O21,mp-18296,3.3654,2.44554436,0.007140439013152644,"{56: 5, 66: 8, 30: 4, 8: 21}","[8, 30, 56, 66]",821304565668,Ba5Dy8Zn4O21
Ba5Ho8Zn4O21,mp-6795,3.3644000000000003,2.45910542,0.00967607651315383,"{56: 5, 67: 8, 30: 4, 8: 21}","[8, 30, 56, 67]",821304565678,Ba5Ho8Zn4O21
Ba5Er8Zn4O21,mp-6416,3.3617999999999997,2.49003011,0.012862385592104175,"{56: 5, 68: 8, 30: 4, 8: 21}","[8, 30, 56, 68]",821304565688,Ba5Er8Zn4O21
Ba5Tm8Zn4O21,mp-6054,3.359,2.50166673,0.01691985901315718,"{56: 5, 69: 8, 30: 4, 8: 21}","[8, 30, 56, 69]",821304565698,Ba5Tm8Zn4O21
Ba2Nb6Te2O21,mp-16998,2.1563,1.28761649,0.0,"{56: 2, 41: 6, 52: 2, 8: 21}","[8, 41, 52, 56]",821416522562,Ba2Nb6Te2O21
Ba2Ta6Te2O21,mp-6238,2.8259000000000003,1.66698328,0.0,"{56: 2, 73: 6, 52: 2, 8: 21}","[8, 52, 56, 73]",821522562736,Ba2Ta6Te2O21
Ba2Zn3(PO)2,mp-1147550,0.41400000000000015,3.76105275,0.12329947567183375,"{56: 2, 30: 3, 15: 2, 8: 2}","[8, 15, 30, 56]",82152303562,Ba2Zn3P2O2
Ba5(Bi2O3)7,mp-676617,0.0,5.41806318,0.4423562826875065,"{56: 5, 83: 14, 8: 21}","[8, 56, 83]",8215658314,Ba5Bi14O21
Ba8(Bi2O7)3,mp-867542,0.0,3.05072467,0.0,"{56: 8, 83: 6, 8: 21}","[8, 56, 83]",821568836,Ba8Bi6O21
Ba2CuSO2,mp-1147767,0.6408,2.83492633,0.1418262062500002,"{56: 2, 29: 1, 16: 1, 8: 2}","[8, 16, 29, 56]",82161291562,Ba2Cu1S1O2
BaSO2,mp-696582,1.5130000000000003,3.66019006,0.489819501875,"{56: 1, 16: 1, 8: 2}","[8, 16, 56]",82161561,Ba1S1O2
Ba2CoCu2(SO)2,mp-1078706,0.0,4.71803502,0.1925808483333329,"{56: 2, 27: 1, 29: 2, 16: 2, 8: 2}","[8, 16, 27, 29, 56]",82162271292562,Ba2Co1Cu2S2O2
Ba2Cu(SO)2,mp-1147564,0.0,2.77268946,0.31066084785713777,"{56: 2, 29: 1, 16: 2, 8: 2}","[8, 16, 29, 56]",82162291562,Ba2Cu1S2O2
BaTeS3O2,mp-1193611,0.6271999999999998,3.42141144,0.5505115193452372,"{56: 1, 52: 1, 16: 3, 8: 2}","[8, 16, 52, 56]",82163521561,Ba1Te1S3O2
Ba2CuClO2,mp-551456,2.3029,1.6352683,0.0,"{56: 2, 29: 1, 17: 1, 8: 2}","[8, 17, 29, 56]",82171291562,Ba2Cu1Cl1O2
BaSbClO2,mp-545500,2.881,2.95011778,0.0,"{56: 1, 51: 1, 17: 1, 8: 2}","[8, 17, 51, 56]",82171511561,Ba1Sb1Cl1O2
BaBiClO2,mp-552806,3.1773999999999996,1.97078817,0.0,"{56: 1, 83: 1, 17: 1, 8: 2}","[8, 17, 56, 83]",82171561831,Ba1Bi1Cl1O2
Ba(ClO)2,mp-726753,0.0,-0.04574757,1.0287971239999925,"{56: 1, 17: 2, 8: 2}","[8, 17, 56]",82172561,Ba1Cl2O2
BaHg2(ClO)2,mp-555736,1.6109999999999998,0.48727674,0.0,"{56: 1, 80: 2, 17: 2, 8: 2}","[8, 17, 56, 80]",82172561802,Ba1Hg2Cl2O2
Ba3(ClO)2,mp-1178551,2.4432,3.49171413,0.023377207142857515,"{56: 3, 17: 2, 8: 2}","[8, 17, 56]",82172563,Ba3Cl2O2
Rb2Ba8Ca(Sb3O)2,mp-1234470,0.5611000000000002,2.6939921,0.11708148557894305,"{37: 2, 56: 8, 20: 1, 51: 6, 8: 2}","[8, 20, 37, 51, 56]",82201372516568,Rb2Ba8Ca1Sb6O2
BaCaO2,mp-756930,2.8163000000000005,1.99983909,0.054121792500000154,"{56: 1, 20: 1, 8: 2}","[8, 20, 56]",82201561,Ba1Ca1O2
Ba2MgMo4(Se2O11)2,mp-1234048,1.9622,1.63245281,0.06828134833332733,"{56: 2, 12: 1, 42: 4, 34: 4, 8: 22}","[8, 12, 34, 42, 56]",822121344424562,Ba2Mg1Mo4Se4O22
Ba3(P3O11)2,mp-1228675,0.2006,-0.59803538,0.3078422792741673,"{56: 3, 15: 6, 8: 22}","[8, 15, 56]",822156563,Ba3P6O22
Ba8Mn6Co2ClO22,mp-1228330,0.40490000000000004,3.21799885,0.009453022596076721,"{56: 8, 25: 6, 27: 2, 17: 1, 8: 22}","[8, 17, 25, 27, 56]",822171256272568,Ba8Mn6Co2Cl1O22
Ba4CaNd3(Co4O11)2,mp-1228232,0.0,3.35697514,0.07293069085527204,"{56: 4, 20: 1, 60: 3, 27: 8, 8: 22}","[8, 20, 27, 56, 60]",822201278564603,Ba4Ca1Nd3Co8O22
Ba4CaGd3(Co4O11)2,mp-1229195,0.0,2.91980496,0.509903310888169,"{56: 4, 20: 1, 64: 3, 27: 8, 8: 22}","[8, 20, 27, 56, 64]",822201278564643,Ba4Ca1Gd3Co8O22
Ba2Ti13O22,mp-28917,0.0,6.46094651,0.0,"{56: 2, 22: 13, 8: 22}","[8, 22, 56]",8222213562,Ba2Ti13O22
Ba4Nd4Ti3Mn(Cu2O11)2,mp-1228289,0.0,3.99598234,0.022779139868418063,"{56: 4, 60: 4, 22: 3, 25: 1, 29: 4, 8: 22}","[8, 22, 25, 29, 56, 60]",822223251294564604,Ba4Nd4Ti3Mn1Cu4O22
Ba8V7O22,mp-28902,0.0,3.84858067,0.024175946756768596,"{56: 8, 23: 7, 8: 22}","[8, 23, 56]",822237568,Ba8V7O22
Ba2Zn2Cr7Ga2(SnO11)2,mp-1214629,0.0,3.2380798,0.0,"{56: 2, 30: 2, 24: 7, 31: 2, 50: 2, 8: 22}","[8, 24, 30, 31, 50, 56]",822247302312502562,Ba2Zn2Cr7Ga2Sn2O22
Ba6Y3Co3(Cu3O11)2,mp-1228789,0.0,3.5502441,0.04702336995487588,"{56: 6, 39: 3, 27: 3, 29: 6, 8: 22}","[8, 27, 29, 39, 56]",822273296393566,Ba6Y3Co3Cu6O22
Ba3La3Pr3Cu9O22,mp-1229252,0.0,4.9325126,0.0627828143177096,"{56: 3, 57: 3, 59: 3, 29: 9, 8: 22}","[8, 29, 56, 57, 59]",822299563573593,Ba3La3Pr3Cu9O22
Ba4Nd5Cu9O22,mp-1228592,0.0,3.83418633,0.06627745272917362,"{56: 4, 60: 5, 29: 9, 8: 22}","[8, 29, 56, 60]",822299564605,Ba4Nd5Cu9O22
Ba3Ge9O22,mp-1204343,0.14759999999999995,0.7772721,0.05091644725489708,"{56: 3, 32: 9, 8: 22}","[8, 32, 56]",822329563,Ba3Ge9O22
BaU2(AsO11)2,mp-1202924,0.0,-0.64283204,0.4447520268518552,"{56: 1, 92: 2, 33: 2, 8: 22}","[8, 33, 56, 92]",822332561922,Ba1U2As2O22
Ba2MnZn2(AsO)2,mp-19045,0.0,3.77342592,0.0,"{56: 2, 25: 1, 30: 2, 33: 2, 8: 2}","[8, 25, 30, 33, 56]",82251302332562,Ba2Mn1Zn2As2O2
BaMnO2,mp-1199857,1.2781000000000002,2.73061481,0.03827345203125532,"{56: 1, 25: 1, 8: 2}","[8, 25, 56]",82251561,Ba1Mn1O2
Ba2Mn3(AsO)2,mp-18963,0.0,3.95304311,0.0553063326388914,"{56: 2, 25: 3, 33: 2, 8: 2}","[8, 25, 33, 56]",82253332562,Ba2Mn3As2O2
Ba2Mn3(SbO)2,mp-18787,0.0,4.42986509,0.027979522222223885,"{56: 2, 25: 3, 51: 2, 8: 2}","[8, 25, 51, 56]",82253512562,Ba2Mn3Sb2O2
Ba10Re3O22,mp-1203847,0.0,1.31873712,0.052755457857145416,"{56: 10, 75: 3, 8: 22}","[8, 56, 75]",8225610753,Ba10Re3O22
Ba2CoAg2(SeO)2,mp-1078198,0.0,3.19368813,0.12525910157407427,"{56: 2, 27: 1, 47: 2, 34: 2, 8: 2}","[8, 27, 34, 47, 56]",82271342472562,Ba2Co1Ag2Se2O2
BaCoO2,mp-19086,0.39670000000000005,2.85091042,0.0,"{56: 1, 27: 1, 8: 2}","[8, 27, 56]",82271561,Ba1Co1O2
Ba3NaMn4Si6O22F,mp-1197574,0.6761000000000001,1.93806047,0.16014523013063542,"{56: 3, 11: 1, 25: 4, 14: 6, 8: 22, 9: 1}","[8, 9, 11, 14, 25, 56]",82291111146254563,Ba3Na1Mn4Si6O22F1
Ba2CuSeO2,mp-1147589,0.49470000000000036,2.6282248,0.047273427222223496,"{56: 2, 29: 1, 34: 1, 8: 2}","[8, 29, 34, 56]",82291341562,Ba2Cu1Se1O2
Ba2CuBrO2,mp-552934,2.3072999999999997,1.4944861,0.0,"{56: 2, 29: 1, 35: 1, 8: 2}","[8, 29, 35, 56]",82291351562,Ba2Cu1Br1O2
Ba2CuTeO2,mp-1147751,0.3494999999999999,3.35966733,0.0760072277777768,"{56: 2, 29: 1, 52: 1, 8: 2}","[8, 29, 52, 56]",82291521562,Ba2Cu1Te1O2