formula,material_id,band_gap,efermi,energy_above_hull,comp_atoms,sorted_keys_comp_atoms,comp_number,new_formula
Ba4Fe3(S3F2)2,mp-557161,1.2306,2.57862276,0.14615620750000158,"{56: 4, 26: 3, 16: 6, 9: 4}","[9, 16, 26, 56]",94166263564,Ba4Fe3S6F4
BaMnF4,mp-556850,2.3195,1.28819488,0.006095996666668491,"{56: 1, 25: 1, 9: 4}","[9, 25, 56]",94251561,Ba1Mn1F4
BaFeF4,mp-554451,3.3521,0.90546073,0.004656280833335025,"{56: 1, 26: 1, 9: 4}","[9, 26, 56]",94261561,Ba1Fe1F4
Ba4Fe3(Se3F2)2,mp-1195190,0.0,2.25643544,0.4908370960294137,"{56: 4, 26: 3, 34: 6, 9: 4}","[9, 26, 34, 56]",94263346564,Ba4Fe3Se6F4
BaCoF4,mp-556101,0.0,0.78937894,0.0013119225000020052,"{56: 1, 27: 1, 9: 4}","[9, 27, 56]",94271561,Ba1Co1F4
BaCuF4,mp-12268,0.0,0.930292,0.0046551045833327365,"{56: 1, 29: 1, 9: 4}","[9, 29, 56]",94291561,Ba1Cu1F4
BaZnF4,mp-3881,4.5489,-1.18693553,0.0,"{56: 1, 30: 1, 9: 4}","[9, 30, 56]",94301561,Ba1Zn1F4
BaPdF4,mp-12623,1.4527,-0.30216251,0.0,"{56: 1, 46: 1, 9: 4}","[9, 46, 56]",94461561,Ba1Pd1F4
BaSnF4,mp-1103397,3.6599,1.1195153,0.0,"{56: 1, 50: 1, 9: 4}","[9, 50, 56]",94501561,Ba1Sn1F4
BaAlF5,mp-4376,7.2887,-1.0577164,0.0,"{56: 1, 13: 1, 9: 5}","[9, 13, 56]",95131561,Ba1Al1F5
BaCrF5,mp-541031,3.5561000000000003,-0.0074868,0.0,"{56: 1, 24: 1, 9: 5}","[9, 24, 56]",95241561,Ba1Cr1F5
BaMnF5,mp-540958,1.4957,-0.22543978,0.0,"{56: 1, 25: 1, 9: 5}","[9, 25, 56]",95251561,Ba1Mn1F5
BaFeF5,mp-14999,3.7113,-1.90283297,0.0,"{56: 1, 26: 1, 9: 5}","[9, 26, 56]",95261561,Ba1Fe1F5
BaGaF5,mp-541629,5.7568,-1.88846055,0.0,"{56: 1, 31: 1, 9: 5}","[9, 31, 56]",95311561,Ba1Ga1F5
BaPb2BrF5,mp-554116,3.2598,1.42351905,0.0013372822222237346,"{56: 1, 82: 2, 35: 1, 9: 5}","[9, 35, 56, 82]",95351561822,Ba1Pb2Br1F5
BaYF5,mp-752675,7.0045,-1.34768484,0.0,"{56: 1, 39: 1, 9: 5}","[9, 39, 56]",95391561,Ba1Y1F5
BaInF5,mp-1214395,4.7954,3.31392374,0.0,"{56: 1, 49: 1, 9: 5}","[9, 49, 56]",95491561,Ba1In1F5
BaSbF5,mp-18099,4.7524999999999995,0.12146647,0.0,"{56: 1, 51: 1, 9: 5}","[9, 51, 56]",95511561,Ba1Sb1F5
BaPb2IF5,mp-554245,2.8346000000000005,2.44779545,0.0027725947222227987,"{56: 1, 82: 2, 53: 1, 9: 5}","[9, 53, 56, 82]",95531561822,Ba1Pb2I1F5
Ba8Ca5Mn3Fe8F56,mp-1228779,2.2256,0.38175215,0.007716040625004972,"{56: 8, 20: 5, 25: 3, 26: 8, 9: 56}","[9, 20, 25, 26, 56]",956205253268568,Ba8Ca5Mn3Fe8F56
BaNaAlF6,mp-15515,6.981,-1.59541585,0.0,"{56: 1, 11: 1, 13: 1, 9: 6}","[9, 11, 13, 56]",96111131561,Ba1Na1Al1F6
BaNaTiF6,mp-1215092,0.24860000000000015,3.19526237,0.004011318888887061,"{56: 1, 11: 1, 22: 1, 9: 6}","[9, 11, 22, 56]",96111221561,Ba1Na1Ti1F6
BaNaVF6,mp-1214563,2.5539,0.148758,0.0,"{56: 1, 11: 1, 23: 1, 9: 6}","[9, 11, 23, 56]",96111231561,Ba1Na1V1F6
BaNaCrF6,mp-1214564,4.3208,-1.08486537,0.0,"{56: 1, 11: 1, 24: 1, 9: 6}","[9, 11, 24, 56]",96111241561,Ba1Na1Cr1F6
BaNaFeF6,mp-1214635,4.059,-1.83236736,0.0,"{56: 1, 11: 1, 26: 1, 9: 6}","[9, 11, 26, 56]",96111261561,Ba1Na1Fe1F6
BaNaGaF6,mp-1214538,6.093,-2.27409923,0.0,"{56: 1, 11: 1, 31: 1, 9: 6}","[9, 11, 31, 56]",96111311561,Ba1Na1Ga1F6
BaSiF6,mp-5588,7.4159,-0.90705687,0.0,"{56: 1, 14: 1, 9: 6}","[9, 14, 56]",96141561,Ba1Si1F6
BaTiF6,mp-8291,4.3236,-1.7965452,0.0,"{56: 1, 22: 1, 9: 6}","[9, 22, 56]",96221561,Ba1Ti1F6
BaCrF6,mp-559246,0.0,-0.85454931,0.0,"{56: 1, 24: 1, 9: 6}","[9, 24, 56]",96241561,Ba1Cr1F6
Ba2CrF6,mp-1214706,2.4321,2.52853296,0.04095589611111272,"{56: 2, 24: 1, 9: 6}","[9, 24, 56]",96241562,Ba2Cr1F6
Ba3MnF6,mp-1206760,0.0,3.11365236,0.5696091052068981,"{56: 3, 25: 1, 9: 6}","[9, 25, 56]",96251563,Ba3Mn1F6
Ba2CoF6,mp-555162,0.0,2.15570105,0.05586110777777886,"{56: 2, 27: 1, 9: 6}","[9, 27, 56]",96271562,Ba2Co1F6
Ba2CuF6,mp-3879,0.6278,0.65681141,0.0,"{56: 2, 29: 1, 9: 6}","[9, 29, 56]",96291562,Ba2Cu1F6
Ba2ZnF6,mp-7739,4.732399999999999,-0.5430189,0.026719526111111946,"{56: 2, 30: 1, 9: 6}","[9, 30, 56]",96301562,Ba2Zn1F6
BaGeF6,mp-14006,5.6043,-1.27144543,0.0,"{56: 1, 32: 1, 9: 6}","[9, 32, 56]",96321561,Ba1Ge1F6
BaZrF6,mp-556738,5.8986,-1.68147407,0.0,"{56: 1, 40: 1, 9: 6}","[9, 40, 56]",96401561,Ba1Zr1F6
Ba3RuF6,mp-1239116,0.8278000000000001,1.67751746,0.739631666000002,"{56: 3, 44: 1, 9: 6}","[9, 44, 56]",96441563,Ba3Ru1F6
BaRhF6,mp-7660,0.0,-0.32870053,0.0,"{56: 1, 45: 1, 9: 6}","[9, 45, 56]",96451561,Ba1Rh1F6
Ba2PdF6,mp-29794,1.5301,-0.07116467,0.0,"{56: 2, 46: 1, 9: 6}","[9, 46, 56]",96461562,Ba2Pd1F6
BaSnF6,mp-8290,4.9883,-1.10744278,0.0,"{56: 1, 50: 1, 9: 6}","[9, 50, 56]",96501561,Ba1Sn1F6
Ba3SnF6,mp-1206078,0.0,2.52761876,0.41238331949999907,"{56: 3, 50: 1, 9: 6}","[9, 50, 56]",96501563,Ba3Sn1F6
BaTeF6,mp-556778,4.6357,-0.44183503,0.000744438749999965,"{56: 1, 52: 1, 9: 6}","[9, 52, 56]",96521561,Ba1Te1F6
BaTbF6,mp-622591,0.0,-2.38395462,0.0,"{56: 1, 65: 1, 9: 6}","[9, 56, 65]",96561651,Ba1Tb1F6
BaHfF6,mp-1214420,7.123200000000001,-1.91873306,0.0,"{56: 1, 72: 1, 9: 6}","[9, 56, 72]",96561721,Ba1Hf1F6
BaIrF6,mp-13545,0.0,0.71408669,0.0,"{56: 1, 77: 1, 9: 6}","[9, 56, 77]",96561771,Ba1Ir1F6
BaPbF6,mp-19799,2.8927,-1.2041057,0.0,"{56: 1, 82: 1, 9: 6}","[9, 56, 82]",96561821,Ba1Pb1F6
BaThF6,mp-1227374,5.0771999999999995,5.00698111,0.08708888375000257,"{56: 1, 90: 1, 9: 6}","[9, 56, 90]",96561901,Ba1Th1F6
Ba3IrF6,mp-1206411,0.7308,1.36485424,0.7706084750000022,"{56: 3, 77: 1, 9: 6}","[9, 56, 77]",96563771,Ba3Ir1F6
BaNaZrF7,mp-560732,6.0585,-1.49863499,0.0,"{56: 1, 11: 1, 40: 1, 9: 7}","[9, 11, 40, 56]",97111401561,Ba1Na1Zr1F7
BaMgTiF7,mp-1041239,0.22739999999999982,3.61213415,0.015667747000000176,"{56: 1, 12: 1, 22: 1, 9: 7}","[9, 12, 22, 56]",97121221561,Ba1Mg1Ti1F7
BaMgVF7,mp-1047850,2.4216,0.62609845,0.0,"{56: 1, 12: 1, 23: 1, 9: 7}","[9, 12, 23, 56]",97121231561,Ba1Mg1V1F7
BaMgCrF7,mp-1047859,3.9409,-0.52601594,0.010134465750006427,"{56: 1, 12: 1, 24: 1, 9: 7}","[9, 12, 24, 56]",97121241561,Ba1Mg1Cr1F7
BaMgMnF7,mp-1047862,1.6600000000000001,-0.3133681,0.017944341249998885,"{56: 1, 12: 1, 25: 1, 9: 7}","[9, 12, 25, 56]",97121251561,Ba1Mg1Mn1F7
BaMgFeF7,mp-1047894,3.7146999999999997,-0.90560609,0.013509521750001419,"{56: 1, 12: 1, 26: 1, 9: 7}","[9, 12, 26, 56]",97121261561,Ba1Mg1Fe1F7
BaMgCoF7,mp-1047866,2.004,-0.98531476,0.03417363974999521,"{56: 1, 12: 1, 27: 1, 9: 7}","[9, 12, 27, 56]",97121271561,Ba1Mg1Co1F7
BaMgCuF7,mp-1041212,0.49060000000000004,-0.70358105,0.0,"{56: 1, 12: 1, 29: 1, 9: 7}","[9, 12, 29, 56]",97121291561,Ba1Mg1Cu1F7
BaMgMoF7,mp-1047848,4.7417,0.60363584,0.0,"{56: 1, 12: 1, 42: 1, 9: 7}","[9, 12, 42, 56]",97121421561,Ba1Mg1Mo1F7
BaMgAgF7,mp-1041232,0.4246000000000001,-0.99191822,0.007101863833338662,"{56: 1, 12: 1, 47: 1, 9: 7}","[9, 12, 47, 56]",97121471561,Ba1Mg1Ag1F7
BaMgSnF7,mp-1041291,0.0,2.86586291,0.11670979874998988,"{56: 1, 12: 1, 50: 1, 9: 7}","[9, 12, 50, 56]",97121501561,Ba1Mg1Sn1F7
BaMgSbF7,mp-1041269,4.816199999999999,0.88214066,0.060529772499997136,"{56: 1, 12: 1, 51: 1, 9: 7}","[9, 12, 51, 56]",97121511561,Ba1Mg1Sb1F7
BaMgWF7,mp-1047900,3.9943999999999997,0.94528842,0.03562404024999921,"{56: 1, 12: 1, 74: 1, 9: 7}","[9, 12, 56, 74]",97121561741,Ba1Mg1W1F7
BaMgBiF7,mp-1041248,5.342099999999999,0.13318114,0.04223622574999286,"{56: 1, 12: 1, 83: 1, 9: 7}","[9, 12, 56, 83]",97121561831,Ba1Mg1Bi1F7
BaCaAlF7,mp-18065,6.7993999999999994,-0.8022743,0.0,"{56: 1, 20: 1, 13: 1, 9: 7}","[9, 13, 20, 56]",97131201561,Ba1Ca1Al1F7
BaMnAlF7,mp-1214444,4.6514,0.92329613,0.0064452304999989,"{56: 1, 25: 1, 13: 1, 9: 7}","[9, 13, 25, 56]",97131251561,Ba1Mn1Al1F7
BaAlCdF7,mp-1214458,5.0553,-1.17998039,0.0013662537500103156,"{56: 1, 13: 1, 48: 1, 9: 7}","[9, 13, 48, 56]",97131481561,Ba1Al1Cd1F7
Ba2Mn2ClF7,mp-1214624,4.063599999999999,0.54870903,0.011223039166670112,"{56: 2, 25: 2, 17: 1, 9: 7}","[9, 17, 25, 56]",97171252562,Ba2Mn2Cl1F7
Ba2FeCoClF7,mp-1228629,2.1117999999999997,0.76199195,0.0022324570833385238,"{56: 2, 26: 1, 27: 1, 17: 1, 9: 7}","[9, 17, 26, 27, 56]",97171261271562,Ba2Fe1Co1Cl1F7
Ba2Fe2ClF7,mp-1214722,3.653,0.90076906,0.006030560000006346,"{56: 2, 26: 2, 17: 1, 9: 7}","[9, 17, 26, 56]",97171262562,Ba2Fe2Cl1F7
Ba2Co2ClF7,mp-556007,2.4195,0.65468596,0.014363590416663463,"{56: 2, 27: 2, 17: 1, 9: 7}","[9, 17, 27, 56]",97171272562,Ba2Co2Cl1F7
Ba2Zn2ClF7,mp-555271,4.3544,-0.62857216,0.00304756979166676,"{56: 2, 30: 2, 17: 1, 9: 7}","[9, 17, 30, 56]",97171302562,Ba2Zn2Cl1F7
BaCaTiF7,mp-1041344,0.2527999999999997,3.31673373,0.044392021500002876,"{56: 1, 20: 1, 22: 1, 9: 7}","[9, 20, 22, 56]",97201221561,Ba1Ca1Ti1F7
BaCaVF7,mp-1047952,2.3947999999999996,0.34065792,0.019124849750001616,"{56: 1, 20: 1, 23: 1, 9: 7}","[9, 20, 23, 56]",97201231561,Ba1Ca1V1F7
BaCaCrF7,mp-560577,3.8013,-0.45769621,0.0,"{56: 1, 20: 1, 24: 1, 9: 7}","[9, 20, 24, 56]",97201241561,Ba1Ca1Cr1F7
BaCaMnF7,mp-1047948,1.7915999999999999,-0.61012058,0.041159325250014867,"{56: 1, 20: 1, 25: 1, 9: 7}","[9, 20, 25, 56]",97201251561,Ba1Ca1Mn1F7
BaCaFeF7,mp-1047946,3.8826,-1.29961657,0.034791786250000456,"{56: 1, 20: 1, 26: 1, 9: 7}","[9, 20, 26, 56]",97201261561,Ba1Ca1Fe1F7
BaCaCoF7,mp-1047947,2.1235,-1.32172816,0.05157539424999413,"{56: 1, 20: 1, 27: 1, 9: 7}","[9, 20, 27, 56]",97201271561,Ba1Ca1Co1F7
BaCaCuF7,mp-1044511,0.8291000000000001,-0.86531101,0.0,"{56: 1, 20: 1, 29: 1, 9: 7}","[9, 20, 29, 56]",97201291561,Ba1Ca1Cu1F7
BaCaGaF7,mp-8416,6.3083,-1.22762495,0.0,"{56: 1, 20: 1, 31: 1, 9: 7}","[9, 20, 31, 56]",97201311561,Ba1Ca1Ga1F7
BaCaMoF7,mp-1047929,4.6469,0.34357926,0.022660464250000345,"{56: 1, 20: 1, 42: 1, 9: 7}","[9, 20, 42, 56]",97201421561,Ba1Ca1Mo1F7
BaCaAgF7,mp-1041316,0.5108999999999999,-1.15894185,0.02796823158333872,"{56: 1, 20: 1, 47: 1, 9: 7}","[9, 20, 47, 56]",97201471561,Ba1Ca1Ag1F7
BaCaSnF7,mp-1041385,0.0,2.61353075,0.13175420850000563,"{56: 1, 20: 1, 50: 1, 9: 7}","[9, 20, 50, 56]",97201501561,Ba1Ca1Sn1F7
BaCaSbF7,mp-1041343,4.388999999999999,0.96539559,0.09061983525000628,"{56: 1, 20: 1, 51: 1, 9: 7}","[9, 20, 51, 56]",97201511561,Ba1Ca1Sb1F7
BaCaWF7,mp-1047958,3.9032999999999998,0.47260211,0.06831793274999587,"{56: 1, 20: 1, 74: 1, 9: 7}","[9, 20, 56, 74]",97201561741,Ba1Ca1W1F7
BaCaBiF7,mp-1041345,4.8837,0.12081751,0.05909470800000349,"{56: 1, 20: 1, 83: 1, 9: 7}","[9, 20, 56, 83]",97201561831,Ba1Ca1Bi1F7
BaTiZnF7,mp-1041319,0.24429999999999996,3.33358148,0.08282739200000044,"{56: 1, 22: 1, 30: 1, 9: 7}","[9, 22, 30, 56]",97221301561,Ba1Ti1Zn1F7
BaMnVF7,mp-1214547,2.0544000000000002,0.76152931,0.03752743049999285,"{56: 1, 25: 1, 23: 1, 9: 7}","[9, 23, 25, 56]",97231251561,Ba1Mn1V1F7
BaVZnF7,mp-1047908,2.3922,0.39358913,0.0,"{56: 1, 23: 1, 30: 1, 9: 7}","[9, 23, 30, 56]",97231301561,Ba1V1Zn1F7
BaVCdF7,mp-1214298,2.5315,2.76985604,0.0,"{56: 1, 23: 1, 48: 1, 9: 7}","[9, 23, 48, 56]",97231481561,Ba1V1Cd1F7
BaZnCrF7,mp-1047910,3.7428999999999997,-0.68288831,0.003719984000009724,"{56: 1, 30: 1, 24: 1, 9: 7}","[9, 24, 30, 56]",97241301561,Ba1Zn1Cr1F7
BaCrCdF7,mp-1214499,4.103,3.16915371,0.00037744850000720476,"{56: 1, 24: 1, 48: 1, 9: 7}","[9, 24, 48, 56]",97241481561,Ba1Cr1Cd1F7
BaCrF7,mp-1048114,0.0,-1.77323081,0.021636340555543754,"{56: 1, 24: 1, 9: 7}","[9, 24, 56]",97241561,Ba1Cr1F7
BaMnFeF7,mp-22728,1.6811999999999998,2.30131158,0.009269062000007544,"{56: 1, 25: 1, 26: 1, 9: 7}","[9, 25, 26, 56]",97251261561,Ba1Mn1Fe1F7
BaMnZnF7,mp-1047907,1.523,-0.37797184,0.011205338250003472,"{56: 1, 25: 1, 30: 1, 9: 7}","[9, 25, 30, 56]",97251301561,Ba1Mn1Zn1F7
BaMnGaF7,mp-622203,3.624,0.43849817,0.004840617750005549,"{56: 1, 25: 1, 31: 1, 9: 7}","[9, 25, 31, 56]",97251311561,Ba1Mn1Ga1F7
BaFeCuF7,mp-1228033,0.3700000000000001,1.02723946,0.015066848249994713,"{56: 1, 26: 1, 29: 1, 9: 7}","[9, 26, 29, 56]",97261291561,Ba1Fe1Cu1F7
BaZnFeF7,mp-554362,3.9328000000000003,-1.11525392,0.006605109499995265,"{56: 1, 30: 1, 26: 1, 9: 7}","[9, 26, 30, 56]",97261301561,Ba1Zn1Fe1F7
BaCdFeF7,mp-1214477,3.7965999999999998,2.33008443,0.007427161750000799,"{56: 1, 48: 1, 26: 1, 9: 7}","[9, 26, 48, 56]",97261481561,Ba1Cd1Fe1F7
BaFe2F7,mp-1214474,1.8116999999999999,0.56085074,0.015786852500013993,"{56: 1, 26: 2, 9: 7}","[9, 26, 56]",97262561,Ba1Fe2F7
BaZnCoF7,mp-1047922,1.6673,-1.04093187,0.020845747500009892,"{56: 1, 30: 1, 27: 1, 9: 7}","[9, 27, 30, 56]",97271301561,Ba1Zn1Co1F7
BaZnCuF7,mp-1041302,0.5794999999999999,-0.87401339,0.0,"{56: 1, 30: 1, 29: 1, 9: 7}","[9, 29, 30, 56]",97291301561,Ba1Zn1Cu1F7
BaInCuF7,mp-1228148,1.3409,1.78469549,0.0,"{56: 1, 49: 1, 29: 1, 9: 7}","[9, 29, 49, 56]",97291491561,Ba1In1Cu1F7
BaZnMoF7,mp-1047902,3.8422000000000005,0.34523868,0.0,"{56: 1, 30: 1, 42: 1, 9: 7}","[9, 30, 42, 56]",97301421561,Ba1Zn1Mo1F7
BaZnAgF7,mp-1041309,0.38270000000000004,-1.18705162,0.0,"{56: 1, 30: 1, 47: 1, 9: 7}","[9, 30, 47, 56]",97301471561,Ba1Zn1Ag1F7
BaZnSnF7,mp-1041328,0.0,2.61834149,0.10480148185714278,"{56: 1, 30: 1, 50: 1, 9: 7}","[9, 30, 50, 56]",97301501561,Ba1Zn1Sn1F7
BaZnSbF7,mp-1041326,4.3858,0.80214174,0.05601674799999756,"{56: 1, 30: 1, 51: 1, 9: 7}","[9, 30, 51, 56]",97301511561,Ba1Zn1Sb1F7
BaZnWF7,mp-1047930,3.1929,0.44905141,0.015580123375001698,"{56: 1, 30: 1, 74: 1, 9: 7}","[9, 30, 56, 74]",97301561741,Ba1Zn1W1F7
BaZnBiF7,mp-1041314,5.1549,-0.14698066,0.03047168649999854,"{56: 1, 30: 1, 83: 1, 9: 7}","[9, 30, 56, 83]",97301561831,Ba1Zn1Bi1F7
BaCdGaF7,mp-621924,4.4668,-1.61936072,0.0,"{56: 1, 48: 1, 31: 1, 9: 7}","[9, 31, 48, 56]",97311481561,Ba1Cd1Ga1F7
Ba2YF7,mp-777744,6.9627,-1.69844853,0.002719536499999009,"{56: 2, 39: 1, 9: 7}","[9, 39, 56]",97391562,Ba2Y1F7
BaMoF7,mp-1047957,2.0488999999999997,-1.26359398,0.0032684683333359388,"{56: 1, 42: 1, 9: 7}","[9, 42, 56]",97421561,Ba1Mo1F7
BaSbF7,mp-1041341,2.6294,-0.36439562,0.025801003333334016,"{56: 1, 51: 1, 9: 7}","[9, 51, 56]",97511561,Ba1Sb1F7
BaTaF7,mp-559835,5.691,-1.74429488,0.0,"{56: 1, 73: 1, 9: 7}","[9, 56, 73]",97561731,Ba1Ta1F7
BaWF7,mp-1047945,3.276,-1.23280853,0.0,"{56: 1, 74: 1, 9: 7}","[9, 56, 74]",97561741,Ba1W1F7
BaBiF7,mp-1041349,0.366,-0.66091696,0.0,"{56: 1, 83: 1, 9: 7}","[9, 56, 83]",97561831,Ba1Bi1F7
Ba2PrF7,mp-676002,6.2167,-1.36024062,0.044643562500003675,"{56: 2, 59: 1, 9: 7}","[9, 56, 59]",97562591,Ba2Pr1F7
Ba2TlF7,mp-1214714,3.1260000000000003,-1.31560633,0.0,"{56: 2, 81: 1, 9: 7}","[9, 56, 81]",97562811,Ba2Tl1F7
Ba7In2(Se3F4)2,mp-1192196,1.1987999999999999,1.90684398,0.02500798815217653,"{56: 7, 49: 2, 34: 6, 9: 8}","[9, 34, 49, 56]",98346492567,Ba7In2Se6F8
Ba(BrF4)2,mp-1190125,3.2254,-1.19006293,0.0,"{56: 1, 35: 2, 9: 8}","[9, 35, 56]",98352561,Ba1Br2F8
BaY2F8,mp-768240,6.8177,-0.94388765,0.0,"{56: 1, 39: 2, 9: 8}","[9, 39, 56]",98392561,Ba1Y2F8
Ba2ZrF8,mp-5900,5.9374,-1.25436448,0.0,"{56: 2, 40: 1, 9: 8}","[9, 40, 56]",98401562,Ba2Zr1F8
BaEr2F8,mp-12803,7.215,-1.08040533,0.0,"{56: 1, 68: 2, 9: 8}","[9, 56, 68]",98561682,Ba1Er2F8
BaTm2F8,mp-7693,7.2347,-1.04339045,0.0,"{56: 1, 69: 2, 9: 8}","[9, 56, 69]",98561692,Ba1Tm2F8
BaLu2F8,mp-1214962,7.3128,5.9564242,0.0,"{56: 1, 71: 2, 9: 8}","[9, 56, 71]",98561712,Ba1Lu2F8
Ba(AuF4)2,mp-28719,2.4882,-2.19737877,0.0,"{56: 1, 79: 2, 9: 8}","[9, 56, 79]",98561792,Ba1Au2F8
BaNaCr2F9,mp-556890,3.1974,2.70627342,0.0,"{56: 1, 11: 1, 24: 2, 9: 9}","[9, 11, 24, 56]",99111242561,Ba1Na1Cr2F9
BaNaFe2F9,mp-554149,3.9213,2.05036673,0.0020432380769221936,"{56: 1, 11: 1, 26: 2, 9: 9}","[9, 11, 26, 56]",99111262561,Ba1Na1Fe2F9
Ba2AlCuF9,mp-1228786,0.14619999999999989,0.94557737,0.016621705384624264,"{56: 2, 13: 1, 29: 1, 9: 9}","[9, 13, 29, 56]",99131291562,Ba2Al1Cu1F9
Ba2AlZnF9,mp-1228674,5.658799999999999,-0.8266712,0.00484704413460868,"{56: 2, 13: 1, 30: 1, 9: 9}","[9, 13, 30, 56]",99131301562,Ba2Al1Zn1F9
Ba3AlF9,mp-556863,6.5801,-0.95757298,0.005861223750003752,"{56: 3, 13: 1, 9: 9}","[9, 13, 56]",99131563,Ba3Al1F9
Ba2FeCoF9,mp-541648,2.2110000000000003,2.39090813,0.0006797301923091581,"{56: 2, 26: 1, 27: 1, 9: 9}","[9, 26, 27, 56]",99261271562,Ba2Fe1Co1F9
RbBa2Fe2F9,mp-1219607,0.04339999999999966,3.11382797,0.18237648624999903,"{37: 1, 56: 2, 26: 2, 9: 9}","[9, 26, 37, 56]",99262371562,Rb1Ba2Fe2F9
CsBa2Co2F9,mp-1225929,1.495,2.07769327,0.026354299553566385,"{55: 1, 56: 2, 27: 2, 9: 9}","[9, 27, 55, 56]",99272551562,Cs1Ba2Co2F9
CsBa2Zn2F9,mp-1225924,4.8824,-0.72895692,0.03296907714285702,"{55: 1, 56: 2, 30: 2, 9: 9}","[9, 30, 55, 56]",99302551562,Cs1Ba2Zn2F9
Ba3YF9,mp-777258,6.227799999999999,-1.79908591,0.07322459750000032,"{56: 3, 39: 1, 9: 9}","[9, 39, 56]",99391563,Ba3Y1F9
Ba3PrF9,mp-675426,5.8738,-0.76599785,0.05388862192307986,"{56: 3, 59: 1, 9: 9}","[9, 56, 59]",99563591,Ba3Pr1F9