formula,material_id,band_gap,efermi,energy_above_hull,comp_atoms,sorted_keys_comp_atoms,comp_number,new_formula
Ba2GaBiTe5,mp-1202829,1.0651999999999995,3.26532916,0.013914690000001784,"{56: 2, 31: 1, 83: 1, 52: 5}","[31, 52, 56, 83]",311525562831,Ba2Ga1Bi1Te5
Ba10Ga,mp-30430,0.0,1.63093373,0.12736682935064914,"{56: 10, 31: 1}","[31, 56]",3115610,Ba10Ga1
Ba2GaHg,mp-1096236,0.0,-1.90024606,1.447785121971153,"{56: 2, 31: 1, 80: 1}","[31, 56, 80]",311562801,Ba2Ga1Hg1
Ba4Ga22Sn,mp-1214544,0.0,2.59592716,0.11920418074074135,"{56: 4, 31: 22, 50: 1}","[31, 50, 56]",3122501564,Ba4Ga22Sn1
BaGa2GeSe6,mp-1227970,1.9186,1.8348933,0.016288658625000174,"{56: 1, 31: 2, 32: 1, 34: 6}","[31, 32, 34, 56]",312321346561,Ba1Ga2Ge1Se6
Ba(GaAs)2,mp-1183302,1.3062,2.85611178,0.0,"{56: 1, 31: 2, 33: 2}","[31, 33, 56]",312332561,Ba1Ga2As2
Ba(GaSe2)2,mp-7841,1.8578000000000001,1.06519527,0.0,"{56: 1, 31: 2, 34: 4}","[31, 34, 56]",312344561,Ba1Ga2Se4
Ba5(GaSe4)2,mp-1204617,1.8701,1.91565677,0.021245057333331374,"{56: 5, 31: 2, 34: 8}","[31, 34, 56]",312348565,Ba5Ga2Se8
Ba(GaSb)2,mp-29938,0.027800000000000047,4.13425799,0.0,"{56: 1, 31: 2, 51: 2}","[31, 51, 56]",312512561,Ba1Ga2Sb2
Ba(GaTe2)2,mp-38117,0.5291000000000001,2.75982205,0.0,"{56: 1, 31: 2, 52: 4}","[31, 52, 56]",312524561,Ba1Ga2Te4
BaGa2,mp-1219,0.0,2.4292018,0.0,"{56: 1, 31: 2}","[31, 56]",312561,Ba1Ga2
Ba(GaPt)2,mp-504985,0.0,3.81552185,0.0,"{56: 1, 31: 2, 78: 2}","[31, 56, 78]",312561782,Ba1Ga2Pt2
Ba19Na29Li13,mp-569025,0.009400000000000075,1.00155095,0.0019011825744299493,"{56: 19, 11: 29, 3: 13}","[3, 11, 56]",31311295619,Ba19Na29Li13
Ba4LiGa5Se12,mp-1197353,1.7354,1.62245542,0.022521868181820892,"{56: 4, 3: 1, 31: 5, 34: 12}","[3, 31, 34, 56]",313153412564,Ba4Li1Ga5Se12
BaLiGe2,mp-13140,0.0,2.20576567,0.0,"{56: 1, 3: 1, 32: 2}","[3, 32, 56]",31322561,Ba1Li1Ge2
Ba2LiGe3,mp-17491,0.09699999999999998,2.52977869,0.0,"{56: 2, 3: 1, 32: 3}","[3, 32, 56]",31323562,Ba2Li1Ge3
Ba8Li13GaSb12,mp-1228109,0.7191000000000001,3.31063137,0.0015750850735281041,"{56: 8, 3: 13, 31: 1, 51: 12}","[3, 31, 51, 56]",3133115112568,Ba8Li13Ga1Sb12
BaLiAs,mp-10616,0.5928,2.47973006,0.0,"{56: 1, 3: 1, 33: 1}","[3, 33, 56]",31331561,Ba1Li1As1
Ba4Ga3Ge20,mp-1214614,0.0,4.90933074,0.020572610173611672,"{56: 4, 31: 3, 32: 20}","[31, 32, 56]",3133220564,Ba4Ga3Ge20
BaGa3Sn,mp-1227967,0.0,4.25494473,0.019365479500000227,"{56: 1, 31: 3, 50: 1}","[31, 50, 56]",313501561,Ba1Ga3Sn1
Ba7Ga4As9,mp-1195273,0.7708999999999997,2.6971685,0.0,"{56: 7, 31: 4, 33: 9}","[31, 33, 56]",314339567,Ba7Ga4As9
Ba5(Ga2Se5)2,mp-1228123,2.0136000000000003,1.95485066,0.023378608684212487,"{56: 5, 31: 4, 34: 10}","[31, 34, 56]",3143410565,Ba5Ga4Se10
Ba4Ga4SnSe12,mp-1195344,1.3292000000000002,1.74769368,0.00787337571428992,"{56: 4, 31: 4, 50: 1, 34: 12}","[31, 34, 50, 56]",3143412501564,Ba4Ga4Sn1Se12
BaGa4Se7,mp-1191072,1.4955999999999998,1.73469357,0.01086476791666069,"{56: 1, 31: 4, 34: 7}","[31, 34, 56]",314347561,Ba1Ga4Se7
Ba3Ga4Sb5,mp-1228664,0.0,3.69554776,0.05682535712797776,"{56: 3, 31: 4, 51: 5}","[31, 51, 56]",314515563,Ba3Ga4Sb5
Ba7Ga4Sb9,mp-28314,0.0,3.71356327,0.010018084008931005,"{56: 7, 31: 4, 51: 9}","[31, 51, 56]",314519567,Ba7Ga4Sb9
BaGa4,mp-335,0.0,3.41671877,0.0,"{56: 1, 31: 4}","[31, 56]",314561,Ba1Ga4
Ba2LiCd,mp-1095977,0.1151000000000002,-2.00110848,1.3421255466666664,"{56: 2, 3: 1, 48: 1}","[3, 48, 56]",31481562,Ba2Li1Cd1
Ba3LiIn11,mp-1214979,0.0,5.47721053,0.04455916355555711,"{56: 3, 3: 1, 49: 11}","[3, 49, 56]",314911563,Ba3Li1In11
Ba2LiIn,mp-1093728,0.023399999999999865,-2.00028393,1.416199411730772,"{56: 2, 3: 1, 49: 1}","[3, 49, 56]",31491562,Ba2Li1In1
Ba2LiB10O19,mp-1200459,0.0363,0.33986771,0.08981150842284435,"{56: 2, 3: 1, 5: 10, 8: 19}","[3, 5, 8, 56]",31510819562,Ba2Li1B10O19
BaLiSb,mp-10485,0.6946999999999997,2.9489126,0.0,"{56: 1, 3: 1, 51: 1}","[3, 51, 56]",31511561,Ba1Li1Sb1
Ba4Ga5AgSe12,mp-1228309,1.5706,1.75625164,0.013194890176769114,"{56: 4, 31: 5, 47: 1, 34: 12}","[31, 34, 47, 56]",3153412471564,Ba4Ga5Ag1Se12
Ba7Ga5AgSe15,mp-1198460,1.9040000000000001,1.94772203,0.0074780079960330426,"{56: 7, 31: 5, 47: 1, 34: 15}","[31, 34, 47, 56]",3153415471567,Ba7Ga5Ag1Se15
Ba4Li(BN2)3,mp-1214440,2.4764,1.98526056,0.02253767369047832,"{56: 4, 3: 1, 5: 3, 7: 6}","[3, 5, 7, 56]",315376564,Ba4Li1B3N6
Ba5Ga5Sn,mp-568967,0.0,3.21077713,0.0,"{56: 5, 31: 5, 50: 1}","[31, 50, 56]",315501565,Ba5Ga5Sn1
Ba5Ga5Pb,mp-605650,0.0,3.24693793,0.0,"{56: 5, 31: 5, 82: 1}","[31, 56, 82]",315565821,Ba5Ga5Pb1
Ba2LiHg,mp-1096603,0.11489999999999978,-1.96563307,1.3086962516666638,"{56: 2, 3: 1, 80: 1}","[3, 56, 80]",31562801,Ba2Li1Hg1
Ba2LiTl,mp-1096688,0.40259999999999985,-2.27885555,1.191388658333335,"{56: 2, 3: 1, 81: 1}","[3, 56, 81]",31562811,Ba2Li1Tl1
Ba3Li,mp-1183341,0.0,1.33206497,0.11287636770833354,"{56: 3, 3: 1}","[3, 56]",31563,Ba3Li1
Ba9LiSi10C(ClO4)7,mp-559419,4.6715,1.12249844,0.0017212522991041368,"{56: 9, 3: 1, 14: 10, 6: 1, 17: 7, 8: 28}","[3, 6, 8, 14, 17, 56]",31618281410177569,Ba9Li1Si10C1Cl7O28
Ba4LiCu(CO5)2,mp-15472,0.9264999999999999,2.26216642,0.0,"{56: 4, 3: 1, 29: 1, 6: 2, 8: 10}","[3, 6, 8, 29, 56]",3162810291564,Ba4Li1Cu1C2O10
Ba2Li(CO3)2,mp-1235375,0.5032000000000001,3.63611746,0.23237274335227287,"{56: 2, 3: 1, 6: 2, 8: 6}","[3, 6, 8, 56]",316286562,Ba2Li1C2O6
Ba2LiAl(CN2)4,mp-1197768,4.1281,0.9479901,0.0,"{56: 2, 3: 1, 13: 1, 6: 4, 7: 8}","[3, 6, 7, 13, 56]",316478131562,Ba2Li1Al1C4N8
Ba5Ga6,mp-1361615,0.05069999999999997,2.48172275,0.0,"{56: 5, 31: 6}","[31, 56]",316565,Ba5Ga6
BaLiN,mp-1247100,0.5322,2.88441173,0.03846265814814842,"{56: 1, 3: 1, 7: 1}","[3, 7, 56]",3171561,Ba1Li1N1
Ba2LiN,mp-605860,0.0,1.93427355,0.05486756677083493,"{56: 2, 3: 1, 7: 1}","[3, 7, 56]",3171562,Ba2Li1N1
Ba3LiN,mp-13288,0.0,1.71186116,0.027976386666667796,"{56: 3, 3: 1, 7: 1}","[3, 7, 56]",3171563,Ba3Li1N1
Ba2LiFe2N3,mp-8924,0.0,3.85715076,0.014259522083330367,"{56: 2, 3: 1, 26: 2, 7: 3}","[3, 7, 26, 56]",3173262562,Ba2Li1Fe2N3
Ba5LiGaN3F5,mp-1199258,1.3588000000000005,2.71841703,0.0061587938981499946,"{56: 5, 3: 1, 31: 1, 7: 3, 9: 5}","[3, 7, 9, 31, 56]",317395311565,Ba5Li1Ga1N3F5
Ba2LiReN4,mp-10555,1.7902,2.23738378,0.0,"{56: 2, 3: 1, 75: 1, 7: 4}","[3, 7, 56, 75]",3174562751,Ba2Li1Re1N4
Ba2Ga7Ag,mp-1228403,0.0,3.06054321,0.008028120333336553,"{56: 2, 31: 7, 47: 1}","[31, 47, 56]",317471562,Ba2Ga7Ag1
Ba8Ga7,mp-30429,0.0,2.36950584,0.0,"{56: 8, 31: 7}","[31, 56]",317568,Ba8Ga7
Ba14Na14LiN6,mp-645662,0.0,1.28872615,0.0,"{56: 14, 11: 14, 3: 1, 7: 6}","[3, 7, 11, 56]",317611145614,Ba14Na14Li1N6
K2BaLiCo(NO2)6,mp-1236436,1.1227,1.05879838,0.18594733593821466,"{19: 2, 56: 1, 3: 1, 27: 1, 7: 6, 8: 12}","[3, 7, 8, 19, 27, 56]",3176812192271561,K2Ba1Li1Co1N6O12
Ba5LiMo2N7Cl2,mp-1228175,2.3448,2.00141736,0.0,"{56: 5, 3: 1, 42: 2, 7: 7, 17: 2}","[3, 7, 17, 42, 56]",3177172422565,Ba5Li1Mo2N7Cl2
Ba4LiMo2N7,mp-6011,1.5654,2.63861912,0.0,"{56: 4, 3: 1, 42: 2, 7: 7}","[3, 7, 42, 56]",3177422564,Ba4Li1Mo2N7
Ba4LiW2N7,mp-6665,1.763,2.40843436,0.0,"{56: 4, 3: 1, 74: 2, 7: 7}","[3, 7, 56, 74]",3177564742,Ba4Li1W2N7
Ba2LiY2(Fe2O5)2,mp-1235532,1.7834000000000003,2.8133104,0.12342229254385817,"{56: 2, 3: 1, 39: 2, 26: 4, 8: 10}","[3, 8, 26, 39, 56]",31810264392562,Ba2Li1Y2Fe4O10
BaLiMg2AlSi3(O5F)2,mp-1227900,4.3189,6.40629428,0.015826509895846996,"{56: 1, 3: 1, 12: 2, 13: 1, 14: 3, 8: 10, 9: 2}","[3, 8, 9, 12, 13, 14, 56]",3181092122131143561,Ba1Li1Mg2Al1Si3O10F2
BaLiRu5O11,mp-1214370,0.0,4.32738169,0.026851857569445414,"{56: 1, 3: 1, 44: 5, 8: 11}","[3, 8, 44, 56]",31811445561,Ba1Li1Ru5O11
Ba4LiBi3O11,mp-775429,0.0,3.3530616,0.047180593362515566,"{56: 4, 3: 1, 83: 3, 8: 11}","[3, 8, 56, 83]",31811564833,Ba4Li1Bi3O11
Ba6LiNb2Ir(ClO6)2,mp-1235210,1.6881999999999997,2.73157225,0.05678980055713989,"{56: 6, 3: 1, 41: 2, 77: 1, 17: 2, 8: 12}","[3, 8, 17, 41, 56, 77]",31812172412566771,Ba6Li1Nb2Ir1Cl2O12
BaLiTi2Bi2O,mp-1235401,0.0,5.48393964,0.10067330048612266,"{56: 1, 3: 1, 22: 2, 83: 2, 8: 1}","[3, 8, 22, 56, 83]",3181222561832,Ba1Li1Ti2Bi2O1
Ba4Li(GeO3)4,mp-1235550,0.0,4.35535632,0.10378010279760108,"{56: 4, 3: 1, 32: 4, 8: 12}","[3, 8, 32, 56]",31812324564,Ba4Li1Ge4O12
Ba4LiNb3O12,mp-18274,2.5797999999999996,2.03933289,0.0,"{56: 4, 3: 1, 41: 3, 8: 12}","[3, 8, 41, 56]",31812413564,Ba4Li1Nb3O12
Ba4Li(RhO3)4,mp-1235078,0.0,3.42608515,0.08869886716931852,"{56: 4, 3: 1, 45: 4, 8: 12}","[3, 8, 45, 56]",31812454564,Ba4Li1Rh4O12
Ba4Li(SbO4)3,mp-7971,1.4543999999999997,3.43861072,0.0,"{56: 4, 3: 1, 51: 3, 8: 12}","[3, 8, 51, 56]",31812513564,Ba4Li1Sb3O12
Ba4LiTa3O12,mp-16792,3.1132999999999997,5.15634877,0.0,"{56: 4, 3: 1, 73: 3, 8: 12}","[3, 8, 56, 73]",31812564733,Ba4Li1Ta3O12
Ba4Li(IrO4)3,mp-1228761,0.0,3.72359477,0.010958519322912252,"{56: 4, 3: 1, 77: 3, 8: 12}","[3, 8, 56, 77]",31812564773,Ba4Li1Ir3O12
Ba4Li(BiO4)3,mp-1214461,0.5661,3.08621092,0.0,"{56: 4, 3: 1, 83: 3, 8: 12}","[3, 8, 56, 83]",31812564833,Ba4Li1Bi3O12
Ba2LiV2(Si2O7)2,mp-1235709,0.2716000000000003,4.33254382,0.07722187711951989,"{56: 2, 3: 1, 23: 2, 14: 4, 8: 14}","[3, 8, 14, 23, 56]",31814144232562,Ba2Li1V2Si4O14
Ba2LiMn2(P2O7)2,mp-1235287,0.0,5.40252752,0.13614492818325719,"{56: 2, 3: 1, 25: 2, 15: 4, 8: 14}","[3, 8, 15, 25, 56]",31814154252562,Ba2Li1Mn2P4O14
Ba4LiY2Cu5O14,mp-757073,0.0,2.79750006,0.024140332954062593,"{56: 4, 3: 1, 39: 2, 29: 5, 8: 14}","[3, 8, 29, 39, 56]",31814295392564,Ba4Li1Y2Cu5O14
BaLiGd2(MoO4)4,mp-1214380,0.039200000000000124,3.78200628,0.043057239999983565,"{56: 1, 3: 1, 64: 2, 42: 4, 8: 16}","[3, 8, 42, 56, 64]",31816424561642,Ba1Li1Gd2Mo4O16
Ba3LiTi5Nb3O21,mp-766208,1.8373,1.94319279,0.006650027765161326,"{56: 3, 3: 1, 22: 5, 41: 3, 8: 21}","[3, 8, 22, 41, 56]",31821225413563,Ba3Li1Ti5Nb3O21
Ba3LiTi5(SbO7)3,mp-766108,2.3975,2.91765986,0.029786568560624005,"{56: 3, 3: 1, 22: 5, 51: 3, 8: 21}","[3, 8, 22, 51, 56]",31821225513563,Ba3Li1Ti5Sb3O21
Ba3LiTa3Ti5O21,mp-677212,2.2708000000000004,2.14117043,0.0022602644318165943,"{56: 3, 3: 1, 73: 3, 22: 5, 8: 21}","[3, 8, 22, 56, 73]",31821225563733,Ba3Li1Ta3Ti5O21
Ba2LiZn2(SO)2,mp-1236024,0.0,3.49321642,0.21149749796296646,"{56: 2, 3: 1, 30: 2, 16: 2, 8: 2}","[3, 8, 16, 30, 56]",3182162302562,Ba2Li1Zn2S2O2
Rb2Ba8Li(Sb3O)2,mp-1235803,0.0,3.34051877,0.07292205578947453,"{37: 2, 56: 8, 3: 1, 51: 6, 8: 2}","[3, 8, 37, 51, 56]",3182372516568,Rb2Ba8Li1Sb6O2
Ba2LiTi11O24,mp-767384,0.0,4.8769652,0.014405742664505894,"{56: 2, 3: 1, 22: 11, 8: 24}","[3, 8, 22, 56]",318242211562,Ba2Li1Ti11O24
Ba8LiNb7O24,mp-773072,0.0,4.67791967,0.01892700212497722,"{56: 8, 3: 1, 41: 7, 8: 24}","[3, 8, 41, 56]",31824417568,Ba8Li1Nb7O24
Ba8LiTa7O24,mp-772523,0.0,5.3871357,0.034696482278334884,"{56: 8, 3: 1, 73: 7, 8: 24}","[3, 8, 56, 73]",31824568737,Ba8Li1Ta7O24
Ba10LiW7O30,mp-772977,1.4584000000000006,4.12556097,0.06193243757811295,"{56: 10, 3: 1, 74: 7, 8: 30}","[3, 8, 56, 74]",318305610747,Ba10Li1W7O30
BaLiZrO3,mp-1236336,0.0,5.32369464,0.31088801547743117,"{56: 1, 3: 1, 40: 1, 8: 3}","[3, 8, 40, 56]",3183401561,Ba1Li1Zr1O3
BaLiO3,mp-1183284,0.0,0.60233715,0.3086951149999937,"{56: 1, 3: 1, 8: 3}","[3, 8, 56]",3183561,Ba1Li1O3
Ba14LiY7(Cu10O21)2,mp-774711,0.0,3.27354109,0.01331964599701596,"{56: 14, 3: 1, 39: 7, 29: 20, 8: 42}","[3, 8, 29, 39, 56]",3184229203975614,Ba14Li1Y7Cu20O42
BaLiYCu2O5,mp-1236494,0.0,3.07922162,0.18197622575000416,"{56: 1, 3: 1, 39: 1, 29: 2, 8: 5}","[3, 8, 29, 39, 56]",3185292391561,Ba1Li1Y1Cu2O5
Ba2LiMn2O6,mp-1235162,0.7942,2.83630149,0.07345597030300866,"{56: 2, 3: 1, 25: 2, 8: 6}","[3, 8, 25, 56]",3186252562,Ba2Li1Mn2O6
Ba2Li(CuO2)3,mp-18713,0.0,3.37470546,0.008382105052079147,"{56: 2, 3: 1, 29: 3, 8: 6}","[3, 8, 29, 56]",3186293562,Ba2Li1Cu3O6
BaLiZrBiO6,mp-1517265,1.0751,2.04215282,0.1295575758749985,"{56: 1, 3: 1, 40: 1, 83: 1, 8: 6}","[3, 8, 40, 56, 83]",3186401561831,Ba1Li1Zr1Bi1O6
BaLiNbBiO6,mp-1522600,0.0,2.84705466,0.18600282996875883,"{56: 1, 3: 1, 41: 1, 83: 1, 8: 6}","[3, 8, 41, 56, 83]",3186411561831,Ba1Li1Nb1Bi1O6
Ba2LiHoRuO6,mp-1235690,0.0,4.04059813,0.13631071499999603,"{56: 2, 3: 1, 67: 1, 44: 1, 8: 6}","[3, 8, 44, 56, 67]",3186441562671,Ba2Li1Ho1Ru1O6
BaLiSnBiO6,mp-1517901,0.00010000000000021103,2.98106228,0.17294317987497987,"{56: 1, 3: 1, 50: 1, 83: 1, 8: 6}","[3, 8, 50, 56, 83]",3186501561831,Ba1Li1Sn1Bi1O6
Ba2LiTbSnO6,mp-1235139,3.3960000000000004,2.9468014,0.10820800863635949,"{56: 2, 3: 1, 65: 1, 50: 1, 8: 6}","[3, 8, 50, 56, 65]",3186501562651,Ba2Li1Tb1Sn1O6
BaLiCeSbO6,mp-1516690,1.9094000000000002,2.91066013,0.13845655488888475,"{56: 1, 3: 1, 58: 1, 51: 1, 8: 6}","[3, 8, 51, 56, 58]",3186511561581,Ba1Li1Ce1Sb1O6
BaLiTbSbO6,mp-1521096,0.0,1.89105791,0.1795364002177795,"{56: 1, 3: 1, 65: 1, 51: 1, 8: 6}","[3, 8, 51, 56, 65]",3186511561651,Ba1Li1Tb1Sb1O6
BaLiLaTeO6,mp-40189,2.9505999999999997,4.6733601,0.03017070157499102,"{56: 1, 3: 1, 57: 1, 52: 1, 8: 6}","[3, 8, 52, 56, 57]",3186521561571,Ba1Li1La1Te1O6
BaLiPrTeO6,mp-41219,3.1399,3.73820304,0.06587202262500202,"{56: 1, 3: 1, 59: 1, 52: 1, 8: 6}","[3, 8, 52, 56, 59]",3186521561591,Ba1Li1Pr1Te1O6
Ba2LiTeO6,mp-1214633,0.0,2.40352138,0.0,"{56: 2, 3: 1, 52: 1, 8: 6}","[3, 8, 52, 56]",3186521562,Ba2Li1Te1O6
Ba2LiIO6,mp-1207120,2.0756000000000006,4.85607901,0.0,"{56: 2, 3: 1, 53: 1, 8: 6}","[3, 8, 53, 56]",3186531562,Ba2Li1I1O6
BaLiHfBiO6,mp-1518397,1.1166,2.19321237,0.13499825287500133,"{56: 1, 3: 1, 72: 1, 83: 1, 8: 6}","[3, 8, 56, 72, 83]",3186561721831,Ba1Li1Hf1Bi1O6
Ba2LiLaIrO6,mp-1235355,0.0,4.41735156,0.11382031149999605,"{56: 2, 3: 1, 57: 1, 77: 1, 8: 6}","[3, 8, 56, 57, 77]",3186562571771,Ba2Li1La1Ir1O6
Ba2LiTbIrO6,mp-1236116,0.0,3.67726138,0.14266291470454107,"{56: 2, 3: 1, 65: 1, 77: 1, 8: 6}","[3, 8, 56, 65, 77]",3186562651771,Ba2Li1Tb1Ir1O6
Ba2LiReO6,mp-6270,1.8198000000000003,1.90746988,0.0,"{56: 2, 3: 1, 75: 1, 8: 6}","[3, 8, 56, 75]",3186562751,Ba2Li1Re1O6
Ba2LiOsO6,mp-10584,0.0,3.31328515,0.0,"{56: 2, 3: 1, 76: 1, 8: 6}","[3, 8, 56, 76]",3186562761,Ba2Li1Os1O6
Ba2LiUO6,mp-1214701,0.0,2.62492743,0.0199729980535599,"{56: 2, 3: 1, 92: 1, 8: 6}","[3, 8, 56, 92]",3186562921,Ba2Li1U1O6
CsBaLiP2O7,mp-1019708,4.8877999999999995,0.35398392,0.0,"{55: 1, 56: 1, 3: 1, 15: 2, 8: 7}","[3, 8, 15, 55, 56]",3187152551561,Cs1Ba1Li1P2O7
Ba2LiSmCoCu2O7,mp-1235043,0.0,3.17520501,0.14223604558035596,"{56: 2, 3: 1, 62: 1, 27: 1, 29: 2, 8: 7}","[3, 8, 27, 29, 56, 62]",3187271292562621,Ba2Li1Sm1Co1Cu2O7
Ba2LiLaCu3O7,mp-1235359,0.0,3.9391558,0.07694286270088124,"{56: 2, 3: 1, 57: 1, 29: 3, 8: 7}","[3, 8, 29, 56, 57]",3187293562571,Ba2Li1La1Cu3O7
Ba2LiTmCu3O7,mp-1236002,0.0,2.99124552,0.1267303225714258,"{56: 2, 3: 1, 69: 1, 29: 3, 8: 7}","[3, 8, 29, 56, 69]",3187293562691,Ba2Li1Tm1Cu3O7
Ba3LiTi3O8,mp-1235029,0.0,5.44310169,0.1298055710000119,"{56: 3, 3: 1, 22: 3, 8: 8}","[3, 8, 22, 56]",3188223563,Ba3Li1Ti3O8
Ba2LiEu(CuO2)4,mp-1235553,0.0,2.98228481,0.027637014062500853,"{56: 2, 3: 1, 63: 1, 29: 4, 8: 8}","[3, 8, 29, 56, 63]",3188294562631,Ba2Li1Eu1Cu4O8
Ba3Li(AsO4)2,mp-1235212,0.0,5.30563473,0.13252001911765188,"{56: 3, 3: 1, 33: 2, 8: 8}","[3, 8, 33, 56]",3188332563,Ba3Li1As2O8
BaLiCaVP2O9,mp-759611,2.0006999999999997,3.39873351,0.06047966157870199,"{56: 1, 3: 1, 20: 1, 23: 1, 15: 2, 8: 9}","[3, 8, 15, 20, 23, 56]",3189152201231561,Ba1Li1Ca1V1P2O9
Ba2LiVP2O9,mp-760067,1.8933999999999997,4.75344474,0.0929643019860773,"{56: 2, 3: 1, 23: 1, 15: 2, 8: 9}","[3, 8, 15, 23, 56]",3189152231562,Ba2Li1V1P2O9
Ba3LiIrRuO9,mp-1228318,0.0,3.14171133,0.0021160388333374414,"{56: 3, 3: 1, 77: 1, 44: 1, 8: 9}","[3, 8, 44, 56, 77]",3189441563771,Ba3Li1Ir1Ru1O9
Ba3LiRu2O9,mp-542122,0.0,3.04036996,0.0,"{56: 3, 3: 1, 44: 2, 8: 9}","[3, 8, 44, 56]",3189442563,Ba3Li1Ru2O9
Ba3LiOs2O9,mp-542207,0.0,3.51730526,0.0,"{56: 3, 3: 1, 76: 2, 8: 9}","[3, 8, 56, 76]",3189563762,Ba3Li1Os2O9
Ba3LiIr2O9,mp-554837,0.0,3.3430786,0.0,"{56: 3, 3: 1, 77: 2, 8: 9}","[3, 8, 56, 77]",3189563772,Ba3Li1Ir2O9
BaLiZr2F11,mp-555845,5.7451,-1.4558018,0.005116610583352887,"{56: 1, 3: 1, 40: 2, 9: 11}","[3, 9, 40, 56]",31911402561,Ba1Li1Zr2F11
BaNa5LiCo5F18,mp-694942,2.0206000000000004,0.35804303,0.05858318766666404,"{56: 1, 11: 5, 3: 1, 27: 5, 9: 18}","[3, 9, 11, 27, 56]",31918115275561,Ba1Na5Li1Co5F18
BaLiF3,mp-10250,6.564299999999999,-0.97391884,0.02190322000000222,"{56: 1, 3: 1, 9: 3}","[3, 9, 56]",3193561,Ba1Li1F3
BaLiAlF6,mp-543044,7.3161000000000005,-1.3976455,0.0,"{56: 1, 3: 1, 13: 1, 9: 6}","[3, 9, 13, 56]",3196131561,Ba1Li1Al1F6
KBaLiZnF6,mp-1223441,5.5617,4.51911979,0.007384822999999763,"{19: 1, 56: 1, 3: 1, 30: 1, 9: 6}","[3, 9, 19, 30, 56]",3196191301561,K1Ba1Li1Zn1F6
BaLiCrF6,mp-560949,2.1413,0.94211,0.0,"{56: 1, 3: 1, 24: 1, 9: 6}","[3, 9, 24, 56]",3196241561,Ba1Li1Cr1F6
BaLiCoF6,mp-17034,2.2721,-1.61776452,0.040099867500001274,"{56: 1, 3: 1, 27: 1, 9: 6}","[3, 9, 27, 56]",3196271561,Ba1Li1Co1F6
Ba2CdGe10,mp-1228889,0.05989999999999984,4.38444168,0.008155363701922269,"{56: 2, 48: 1, 32: 10}","[32, 48, 56]",3210481562,Ba2Cd1Ge10
BaLi2(MgSi)2,mp-570771,0.0,3.28636659,0.0,"{56: 1, 3: 2, 12: 2, 14: 2}","[3, 12, 14, 56]",32122142561,Ba1Li2Mg2Si2
BaLi2(MgGe)2,mp-569396,0.0,2.62065619,0.0,"{56: 1, 3: 2, 12: 2, 32: 2}","[3, 12, 32, 56]",32122322561,Ba1Li2Mg2Ge2
Ba4Cd11Ge12,mp-1214704,0.0,2.6879098,0.17870201462963076,"{56: 4, 48: 11, 32: 12}","[32, 48, 56]",32124811564,Ba4Cd11Ge12
Ba(Ge3Pt)4,mp-642304,0.0,5.4404482,0.0,"{56: 1, 32: 12, 78: 4}","[32, 56, 78]",3212561784,Ba1Ge12Pt4
Ba2GeAs2,mp-8195,0.5785999999999998,2.95775852,0.0,"{56: 2, 32: 1, 33: 2}","[32, 33, 56]",321332562,Ba2Ge1As2
Ba4GeAs4,mp-14002,0.8233999999999999,2.30539003,0.0,"{56: 4, 32: 1, 33: 4}","[32, 33, 56]",321334564,Ba4Ge1As4
Ba2Ge(TeSe)2,mp-570803,0.8477000000000001,2.82781863,0.0,"{56: 2, 32: 1, 52: 2, 34: 2}","[32, 34, 52, 56]",321342522562,Ba2Ge1Te2Se2
BaAg2GeSe4,mp-569790,0.03500000000000014,2.91478177,0.0,"{56: 1, 47: 2, 32: 1, 34: 4}","[32, 34, 47, 56]",321344472561,Ba1Ag2Ge1Se4
Ba2GeSe4,mp-11902,1.4121000000000001,1.98518789,0.0,"{56: 2, 32: 1, 34: 4}","[32, 34, 56]",321344562,Ba2Ge1Se4
BaLi2Si,mp-27454,0.0,2.47355483,0.0,"{56: 1, 3: 2, 14: 1}","[3, 14, 56]",32141561,Ba1Li2Si1
BaCdGe,mp-11816,0.0,2.87741973,0.0,"{56: 1, 48: 1, 32: 1}","[32, 48, 56]",321481561,Ba1Cd1Ge1
Ba2CdGe,mp-1093582,0.06710000000000016,-1.97922073,1.5044454525,"{56: 2, 48: 1, 32: 1}","[32, 48, 56]",321481562,Ba2Cd1Ge1
BaInGe,mp-1227944,0.0,3.95673042,0.042575342291666374,"{56: 1, 49: 1, 32: 1}","[32, 49, 56]",321491561,Ba1In1Ge1
Ba3GeI2,mp-568836,0.0,2.01818587,0.0,"{56: 3, 32: 1, 53: 2}","[32, 53, 56]",321532563,Ba3Ge1I2
BaGe,mp-1730,0.0,3.48977955,0.0,"{56: 1, 32: 1}","[32, 56]",321561,Ba1Ge1
BaGePt,mp-22151,0.0,4.46071072,0.0,"{56: 1, 32: 1, 78: 1}","[32, 56, 78]",321561781,Ba1Ge1Pt1
BaGeAu3,mp-1227958,0.0,4.11745207,0.0,"{56: 1, 32: 1, 79: 3}","[32, 56, 79]",321561793,Ba1Ge1Au3
Ba2Ge,mp-13922,0.0,2.73645218,0.0,"{56: 2, 32: 1}","[32, 56]",321562,Ba2Ge1
Ba2HgGe,mp-1097574,0.1664000000000001,-1.93275365,1.4802903149999986,"{56: 2, 80: 1, 32: 1}","[32, 56, 80]",321562801,Ba2Hg1Ge1
Ba4Li2(CdP2)3,mp-1192527,0.48530000000000006,3.17347896,0.0,"{56: 4, 3: 2, 48: 3, 15: 6}","[3, 15, 48, 56]",32156483564,Ba4Li2Cd3P6
Ba3(Ge4Rh)4,mp-1192163,0.0,5.41791701,0.0036739504859291117,"{56: 3, 32: 16, 45: 4}","[32, 45, 56]",3216454563,Ba3Ge16Rh4
Ba3(Ge4Ir)4,mp-1190530,0.0,5.69279497,0.0,"{56: 3, 32: 16, 77: 4}","[32, 56, 77]",3216563774,Ba3Ge16Ir4
BaLi2Ca,mp-1097520,0.14360000000000017,-2.06931884,1.2942429393749997,"{56: 1, 3: 2, 20: 1}","[3, 20, 56]",32201561,Ba1Li2Ca1
Ba4Ge20Pd3,mp-30170,0.0,3.13066155,0.03532800680555681,"{56: 4, 32: 20, 46: 3}","[32, 46, 56]",3220463564,Ba4Ge20Pd3
Ba4Ag3Ge20,mp-570662,0.0,2.98782351,0.0,"{56: 4, 47: 3, 32: 20}","[32, 47, 56]",3220473564,Ba4Ag3Ge20
Ba4Ge20Pt3,mp-1201052,0.0,4.79749405,0.03437959180555694,"{56: 4, 32: 20, 78: 3}","[32, 56, 78]",3220564783,Ba4Ge20Pt3
Ba4Ge20Au3,mp-21839,0.0,3.23304579,0.0,"{56: 4, 32: 20, 79: 3}","[32, 56, 79]",3220564793,Ba4Ge20Au3
Ba(GeAs)2,mp-27810,0.02859999999999996,3.97288774,0.0,"{56: 1, 32: 2, 33: 2}","[32, 33, 56]",322332561,Ba1Ge2As2