formula,material_id,band_gap,efermi,energy_above_hull,comp_atoms,sorted_keys_comp_atoms,comp_number,new_formula
BaYMn4O7,mp-1048366,0.0,2.47659963,0.10496181212499067,"{56: 1, 39: 1, 25: 4, 8: 7}","[8, 25, 39, 56]",87254391561,Ba1Y1Mn4O7
BaMn4O7,mp-1048508,0.0,1.30944853,0.39028863277780435,"{56: 1, 25: 4, 8: 7}","[8, 25, 56]",87254561,Ba1Mn4O7
Ba2FeGe2O7,mp-1190820,0.0,3.46967613,0.0,"{56: 2, 26: 1, 32: 2, 8: 7}","[8, 26, 32, 56]",87261322562,Ba2Fe1Ge2O7
Ba2YTlFe2O7,mp-1046351,0.0,4.09346845,0.15653723600961733,"{56: 2, 39: 1, 81: 1, 26: 2, 8: 7}","[8, 26, 39, 56, 81]",87262391562811,Ba2Y1Tl1Fe2O7
BaLa2Fe2O7,mp-1227917,0.0,5.34763108,0.01506756184028113,"{56: 1, 57: 2, 26: 2, 8: 7}","[8, 26, 56, 57]",87262561572,Ba1La2Fe2O7
Ba2TlFe2O7,mp-1046342,0.0,1.85074088,0.27451729517361745,"{56: 2, 81: 1, 26: 2, 8: 7}","[8, 26, 56, 81]",87262562811,Ba2Tl1Fe2O7
Ba2Fe3O7,mp-1048495,0.0,1.62043164,0.3333344804166467,"{56: 2, 26: 3, 8: 7}","[8, 26, 56]",87263562,Ba2Fe3O7
BaYFe4O7,mp-1048387,1.4460000000000002,2.76828801,0.053084529903861366,"{56: 1, 39: 1, 26: 4, 8: 7}","[8, 26, 39, 56]",87264391561,Ba1Y1Fe4O7
BaInFe4O7,mp-1214344,0.0,5.16524324,0.18504236425824683,"{56: 1, 49: 1, 26: 4, 8: 7}","[8, 26, 49, 56]",87264491561,Ba1In1Fe4O7
BaFe4O7,mp-504445,0.0,2.42076816,0.06989024791668186,"{56: 1, 26: 4, 8: 7}","[8, 26, 56]",87264561,Ba1Fe4O7
BaGdFe4O7,mp-1193020,1.6574999999999998,2.4378496,0.031044779679490375,"{56: 1, 64: 1, 26: 4, 8: 7}","[8, 26, 56, 64]",87264561641,Ba1Gd1Fe4O7
BaTbFe4O7,mp-1214367,0.47840000000000016,3.8872715,0.08015389190247024,"{56: 1, 65: 1, 26: 4, 8: 7}","[8, 26, 56, 65]",87264561651,Ba1Tb1Fe4O7
BaDyFe4O7,mp-1192895,1.7414,2.44505503,0.02571402233517084,"{56: 1, 66: 1, 26: 4, 8: 7}","[8, 26, 56, 66]",87264561661,Ba1Dy1Fe4O7
BaHoFe4O7,mp-1194202,0.07889999999999997,2.57636986,0.014844236133246369,"{56: 1, 67: 1, 26: 4, 8: 7}","[8, 26, 56, 67]",87264561671,Ba1Ho1Fe4O7
BaErFe4O7,mp-1104205,0.0,3.08815769,0.06663998271977967,"{56: 1, 68: 1, 26: 4, 8: 7}","[8, 26, 56, 68]",87264561681,Ba1Er1Fe4O7
BaTmFe4O7,mp-1103591,0.0,3.25895677,0.0735860593544011,"{56: 1, 69: 1, 26: 4, 8: 7}","[8, 26, 56, 69]",87264561691,Ba1Tm1Fe4O7
BaLuFe4O7,mp-1103986,0.0,3.17080532,0.07345463026786092,"{56: 1, 71: 1, 26: 4, 8: 7}","[8, 26, 56, 71]",87264561711,Ba1Lu1Fe4O7
Ba2YCoCu2O7,mp-1214571,0.0,3.39484028,0.04013376531088131,"{56: 2, 39: 1, 27: 1, 29: 2, 8: 7}","[8, 27, 29, 39, 56]",87271292391562,Ba2Y1Co1Cu2O7
Ba2LaCoCu2O7,mp-1214652,0.0,4.01033439,0.02505097275640722,"{56: 2, 57: 1, 27: 1, 29: 2, 8: 7}","[8, 27, 29, 56, 57]",87271292562571,Ba2La1Co1Cu2O7
Ba2PrCoCu2O7,mp-1214590,0.0,3.32999013,0.030266499102562072,"{56: 2, 59: 1, 27: 1, 29: 2, 8: 7}","[8, 27, 29, 56, 59]",87271292562591,Ba2Pr1Co1Cu2O7
Ba2NdCoCu2O7,mp-1214600,0.0,3.33908933,0.023050693525637378,"{56: 2, 60: 1, 27: 1, 29: 2, 8: 7}","[8, 27, 29, 56, 60]",87271292562601,Ba2Nd1Co1Cu2O7
Ba2SmCoCu2O7,mp-1214586,0.0,3.24317942,0.029783514519229115,"{56: 2, 62: 1, 27: 1, 29: 2, 8: 7}","[8, 27, 29, 56, 62]",87271292562621,Ba2Sm1Co1Cu2O7
Ba2EuCoCu2O7,mp-1214711,0.0,2.95093856,0.07276834842948521,"{56: 2, 63: 1, 27: 1, 29: 2, 8: 7}","[8, 27, 29, 56, 63]",87271292562631,Ba2Eu1Co1Cu2O7
Ba2GdCoCu2O7,mp-1214814,0.0,4.0069399,0.03352871897436227,"{56: 2, 64: 1, 27: 1, 29: 2, 8: 7}","[8, 27, 29, 56, 64]",87271292562641,Ba2Gd1Co1Cu2O7
Ba2DyCoCu2O7,mp-1214693,0.0,3.42527595,0.03591095628205121,"{56: 2, 66: 1, 27: 1, 29: 2, 8: 7}","[8, 27, 29, 56, 66]",87271292562661,Ba2Dy1Co1Cu2O7
Ba2HoCoCu2O7,mp-1214661,0.0,3.341998,0.038593059583334366,"{56: 2, 67: 1, 27: 1, 29: 2, 8: 7}","[8, 27, 29, 56, 67]",87271292562671,Ba2Ho1Co1Cu2O7
Ba2ErCoCu2O7,mp-1214699,0.0,3.34082261,0.04033274423076971,"{56: 2, 68: 1, 27: 1, 29: 2, 8: 7}","[8, 27, 29, 56, 68]",87271292562681,Ba2Er1Co1Cu2O7
BaYZn3CoO7,mp-1227396,0.0,1.90179345,0.039621152302352414,"{56: 1, 39: 1, 30: 3, 27: 1, 8: 7}","[8, 27, 30, 39, 56]",87271303391561,Ba1Y1Zn3Co1O7
Ba2CoGe2O7,mp-1190827,2.1240000000000006,2.12935155,0.0,"{56: 2, 27: 1, 32: 2, 8: 7}","[8, 27, 32, 56]",87271322562,Ba2Co1Ge2O7
BaCoAs2O7,mp-1191386,1.3273,1.77093151,0.004312056363641403,"{56: 1, 27: 1, 33: 2, 8: 7}","[8, 27, 33, 56]",87271332561,Ba1Co1As2O7
Ba2YTlCo2O7,mp-1298647,0.0,4.12659232,0.05670936308293051,"{56: 2, 39: 1, 81: 1, 27: 2, 8: 7}","[8, 27, 39, 56, 81]",87272391562811,Ba2Y1Tl1Co2O7
Ba2TlCo2O7,mp-1046346,0.0,1.95702205,0.26140263347221815,"{56: 2, 81: 1, 27: 2, 8: 7}","[8, 27, 56, 81]",87272562811,Ba2Tl1Co2O7
Ba2YCo3O7,mp-1048316,0.0,3.47772915,0.15613057033654165,"{56: 2, 39: 1, 27: 3, 8: 7}","[8, 27, 39, 56]",87273391562,Ba2Y1Co3O7
Ba2Co3O7,mp-1402976,0.0,1.48479605,0.27828225479164903,"{56: 2, 27: 3, 8: 7}","[8, 27, 56]",87273562,Ba2Co3O7
Ba2Co4BrO7,mp-1228776,0.0,1.88445494,0.0540924092559365,"{56: 2, 27: 4, 35: 1, 8: 7}","[8, 27, 35, 56]",87274351562,Ba2Co4Br1O7
BaYCo4O7,mp-1194048,0.7462,2.59037616,0.02211338251202566,"{56: 1, 39: 1, 27: 4, 8: 7}","[8, 27, 39, 56]",87274391561,Ba1Y1Co4O7
BaInCo4O7,mp-22402,0.0,3.43322837,0.03905223855768458,"{56: 1, 49: 1, 27: 4, 8: 7}","[8, 27, 49, 56]",87274491561,Ba1In1Co4O7
BaCo4O7,mp-1345066,0.0,1.26358355,0.305461769166679,"{56: 1, 27: 4, 8: 7}","[8, 27, 56]",87274561,Ba1Co4O7
BaDyCo4O7,mp-18804,0.0,2.38395894,0.020061765480778426,"{56: 1, 66: 1, 27: 4, 8: 7}","[8, 27, 56, 66]",87274561661,Ba1Dy1Co4O7
BaHoCo4O7,mp-17703,0.0,2.98020357,0.03282880197115379,"{56: 1, 67: 1, 27: 4, 8: 7}","[8, 27, 56, 67]",87274561671,Ba1Ho1Co4O7
BaTmCo4O7,mp-1192892,0.11870000000000003,2.87681143,0.015366182500009096,"{56: 1, 69: 1, 27: 4, 8: 7}","[8, 27, 56, 69]",87274561691,Ba1Tm1Co4O7
BaLuCo4O7,mp-1200479,0.8084000000000002,2.41063502,0.011849862836545988,"{56: 1, 71: 1, 27: 4, 8: 7}","[8, 27, 56, 71]",87274561711,Ba1Lu1Co4O7
Ba2ErZn2CuO7,mp-1214708,0.0,2.48437006,0.06210883580128268,"{56: 2, 68: 1, 30: 2, 29: 1, 8: 7}","[8, 29, 30, 56, 68]",87291302562681,Ba2Er1Zn2Cu1O7
Ba2CuGe2O7,mp-22067,0.19629999999999992,2.07044507,0.01934514166665302,"{56: 2, 29: 1, 32: 2, 8: 7}","[8, 29, 32, 56]",87291322562,Ba2Cu1Ge2O7
BaCuAs2O7,mp-6571,0.0,2.10082469,0.0,"{56: 1, 29: 1, 33: 2, 8: 7}","[8, 29, 33, 56]",87291332561,Ba1Cu1As2O7
BaCuTe2O7,mp-557735,0.0,4.64288944,0.0,"{56: 1, 29: 1, 52: 2, 8: 7}","[8, 29, 52, 56]",87291522561,Ba1Cu1Te2O7
BaCu2Ge2O7,mp-542101,0.21399999999999997,2.56305659,0.010225376620365267,"{56: 1, 29: 2, 32: 2, 8: 7}","[8, 29, 32, 56]",87292322561,Ba1Cu2Ge2O7
Ba2YCu2HgO7,mp-1214583,0.0,2.53105457,0.10872860137821494,"{56: 2, 39: 1, 29: 2, 80: 1, 8: 7}","[8, 29, 39, 56, 80]",87292391562801,Ba2Y1Cu2Hg1O7
Ba2YTlCu2O7,mp-654374,0.0,3.70577142,0.0,"{56: 2, 39: 1, 81: 1, 29: 2, 8: 7}","[8, 29, 39, 56, 81]",87292391562811,Ba2Y1Tl1Cu2O7
Ba2LaCu2HgO7,mp-1214663,0.0,3.19056104,0.10342893942308073,"{56: 2, 57: 1, 29: 2, 80: 1, 8: 7}","[8, 29, 56, 57, 80]",87292562571801,Ba2La1Cu2Hg1O7
Ba2LaTlCu2O7,mp-1228434,0.0,4.08877882,0.00019518947115226837,"{56: 2, 57: 1, 81: 1, 29: 2, 8: 7}","[8, 29, 56, 57, 81]",87292562571811,Ba2La1Tl1Cu2O7
Ba2NdCu2HgO7,mp-1214587,0.0,2.51199782,0.09930353176282214,"{56: 2, 60: 1, 29: 2, 80: 1, 8: 7}","[8, 29, 56, 60, 80]",87292562601801,Ba2Nd1Cu2Hg1O7
Ba2NdTlCu2O7,mp-1228402,0.0,3.43309131,0.0,"{56: 2, 60: 1, 81: 1, 29: 2, 8: 7}","[8, 29, 56, 60, 81]",87292562601811,Ba2Nd1Tl1Cu2O7
Ba2EuCu2HgO7,mp-1214738,0.0,2.35720759,0.14803318942308152,"{56: 2, 63: 1, 29: 2, 80: 1, 8: 7}","[8, 29, 56, 63, 80]",87292562631801,Ba2Eu1Cu2Hg1O7
Ba2GdCu2HgO7,mp-1214867,0.0,3.28883924,0.10496119999999909,"{56: 2, 64: 1, 29: 2, 80: 1, 8: 7}","[8, 29, 56, 64, 80]",87292562641801,Ba2Gd1Cu2Hg1O7
Ba2DyCu2HgO7,mp-1214696,0.0,2.58647823,0.10752334467949698,"{56: 2, 66: 1, 29: 2, 80: 1, 8: 7}","[8, 29, 56, 66, 80]",87292562661801,Ba2Dy1Cu2Hg1O7
Ba2YCu3O7,mp-20674,0.0,3.08014508,0.0313759126602422,"{56: 2, 39: 1, 29: 3, 8: 7}","[8, 29, 39, 56]",87293391562,Ba2Y1Cu3O7
Ba2YCu3PbO7,mp-1228257,0.0,3.92953189,0.0,"{56: 2, 39: 1, 29: 3, 82: 1, 8: 7}","[8, 29, 39, 56, 82]",87293391562821,Ba2Y1Cu3Pb1O7
Ba2LaCu3O7,mp-622210,0.0,3.78529948,0.02084320237180215,"{56: 2, 57: 1, 29: 3, 8: 7}","[8, 29, 56, 57]",87293562571,Ba2La1Cu3O7
Ba2PrCu3O7,mp-20936,0.0,3.02189682,0.025600017275628772,"{56: 2, 59: 1, 29: 3, 8: 7}","[8, 29, 56, 59]",87293562591,Ba2Pr1Cu3O7
Ba2NdCu3O7,mp-22719,0.0,3.01453021,0.01801490532051897,"{56: 2, 60: 1, 29: 3, 8: 7}","[8, 29, 56, 60]",87293562601,Ba2Nd1Cu3O7
Ba2SmCu3O7,mp-21451,0.0,2.96256935,0.02494394785255505,"{56: 2, 62: 1, 29: 3, 8: 7}","[8, 29, 56, 62]",87293562621,Ba2Sm1Cu3O7
Ba2EuCu3O7,mp-622211,0.0,2.93354274,0.06960399634615744,"{56: 2, 63: 1, 29: 3, 8: 7}","[8, 29, 56, 63]",87293562631,Ba2Eu1Cu3O7
Ba2GdCu3O7,mp-19813,0.0,2.97382312,0.0282650169230676,"{56: 2, 64: 1, 29: 3, 8: 7}","[8, 29, 56, 64]",87293562641,Ba2Gd1Cu3O7
Ba2DyCu3O7,mp-622105,0.0,3.01701177,0.030416161153837606,"{56: 2, 66: 1, 29: 3, 8: 7}","[8, 29, 56, 66]",87293562661,Ba2Dy1Cu3O7
Ba2HoCu3O7,mp-6616,0.0,3.0502538,0.03185183445512063,"{56: 2, 67: 1, 29: 3, 8: 7}","[8, 29, 56, 67]",87293562671,Ba2Ho1Cu3O7
Ba2ErCu3O7,mp-622110,0.0,3.01084775,0.03343360141024476,"{56: 2, 68: 1, 29: 3, 8: 7}","[8, 29, 56, 68]",87293562681,Ba2Er1Cu3O7
Ba2TmCu3O7,mp-622108,0.0,3.05371567,0.03600769173075857,"{56: 2, 69: 1, 29: 3, 8: 7}","[8, 29, 56, 69]",87293562691,Ba2Tm1Cu3O7
Ba2LuCu3O7,mp-20324,0.0,3.05725648,0.04030031350961849,"{56: 2, 71: 1, 29: 3, 8: 7}","[8, 29, 56, 71]",87293562711,Ba2Lu1Cu3O7
Ba2TlCu3O7,mp-1147544,0.0,3.62927099,0.06685053743589897,"{56: 2, 81: 1, 29: 3, 8: 7}","[8, 29, 56, 81]",87293562811,Ba2Tl1Cu3O7
BaYCu4O7,mp-1048115,0.0,2.96159849,0.1511137026922933,"{56: 1, 39: 1, 29: 4, 8: 7}","[8, 29, 39, 56]",87294391561,Ba1Y1Cu4O7
BaCu4O7,mp-1048179,0.0,1.35202696,0.2661257488281237,"{56: 1, 29: 4, 8: 7}","[8, 29, 56]",87294561,Ba1Cu4O7
Ba2ZnGe2O7,mp-1190949,3.1063,0.91354145,0.0,"{56: 2, 30: 1, 32: 2, 8: 7}","[8, 30, 32, 56]",87301322562,Ba2Zn1Ge2O7
BaZnAs2O7,mp-554083,2.7921,0.43459465,0.007739874204538921,"{56: 1, 30: 1, 33: 2, 8: 7}","[8, 30, 33, 56]",87301332561,Ba1Zn1As2O7
BaZnTe2O7,mp-1191811,1.6684,3.37008001,0.0,"{56: 1, 30: 1, 52: 2, 8: 7}","[8, 30, 52, 56]",87301522561,Ba1Zn1Te2O7
BaYZn3GaO7,mp-1192369,2.2037,1.47072233,0.0,"{56: 1, 39: 1, 30: 3, 31: 1, 8: 7}","[8, 30, 31, 39, 56]",87303311391561,Ba1Y1Zn3Ga1O7
Ba4Ga2O7,mp-30198,3.2427,1.13670875,0.0,"{56: 4, 31: 2, 8: 7}","[8, 31, 56]",87312564,Ba4Ga2O7
BaLaGa3O7,mp-1227901,3.3009,1.65032182,0.0,"{56: 1, 57: 1, 31: 3, 8: 7}","[8, 31, 56, 57]",87313561571,Ba1La1Ga3O7
BaGa4O7,mp-769971,3.4333,0.52389978,0.0,"{56: 1, 31: 4, 8: 7}","[8, 31, 56]",87314561,Ba1Ga4O7
Ba2CdGe2O7,mp-1214739,2.9629000000000003,0.40767837,0.0,"{56: 2, 48: 1, 32: 2, 8: 7}","[8, 32, 48, 56]",87322481562,Ba2Cd1Ge2O7
BaCdAs2O7,mp-1190335,2.5654,0.72859186,0.0,"{56: 1, 48: 1, 33: 2, 8: 7}","[8, 33, 48, 56]",87332481561,Ba1Cd1As2O7
BaHgAs2O7,mp-1190454,1.4956,0.97486913,0.0,"{56: 1, 80: 1, 33: 2, 8: 7}","[8, 33, 56, 80]",87332561801,Ba1Hg1As2O7
Ba2As2O7,mp-1194732,3.335,3.74609267,0.0,"{56: 2, 33: 2, 8: 7}","[8, 33, 56]",87332562,Ba2As2O7
BaRe3Se4O7,mp-1194628,0.0,2.21858041,0.8572903646587209,"{56: 1, 75: 3, 34: 4, 8: 7}","[8, 34, 56, 75]",87344561753,Ba1Re3Se4O7
BaBr2O7,mp-726134,0.0,-0.31112452,0.2685704622500005,"{56: 1, 35: 2, 8: 7}","[8, 35, 56]",87352561,Ba1Br2O7
Ba2YTlSn2O7,mp-1409888,0.0,5.54690732,0.2853957305608974,"{56: 2, 39: 1, 81: 1, 50: 2, 8: 7}","[8, 39, 50, 56, 81]",87391502562811,Ba2Y1Tl1Sn2O7
Ba2YSn3O7,mp-1048035,0.0,6.35889595,0.28804287966346465,"{56: 2, 39: 1, 50: 3, 8: 7}","[8, 39, 50, 56]",87391503562,Ba2Y1Sn3O7
BaYSn4O7,mp-1048164,0.0,4.85186488,0.21324427557692438,"{56: 1, 39: 1, 50: 4, 8: 7}","[8, 39, 50, 56]",87391504561,Ba1Y1Sn4O7
BaYW4O7,mp-1048425,0.0,5.32701176,0.9895275012499916,"{56: 1, 39: 1, 74: 4, 8: 7}","[8, 39, 56, 74]",87391561744,Ba1Y1W4O7
Ba2YTlW2O7,mp-1046386,0.0,4.88049084,0.4690490171153705,"{56: 2, 39: 1, 81: 1, 74: 2, 8: 7}","[8, 39, 56, 74, 81]",87391562742811,Ba2Y1Tl1W2O7
Ba2YW3O7,mp-1048468,0.0,5.43749068,0.6010257735256488,"{56: 2, 39: 1, 74: 3, 8: 7}","[8, 39, 56, 74]",87391562743,Ba2Y1W3O7
Ba4Y2O7,mp-779544,2.3403,1.3177626,0.09867401012820487,"{56: 4, 39: 2, 8: 7}","[8, 39, 56]",87392564,Ba4Y2O7
Ba3Zr2O7,mp-755895,3.0246000000000004,1.87987471,0.0,"{56: 3, 40: 2, 8: 7}","[8, 40, 56]",87402563,Ba3Zr2O7
Ba2TlMo2O7,mp-1048444,0.0,3.44929752,0.33636942513887735,"{56: 2, 81: 1, 42: 2, 8: 7}","[8, 42, 56, 81]",87422562811,Ba2Tl1Mo2O7
Ba2Mo3O7,mp-1048510,0.0,3.45932946,0.3349427612499811,"{56: 2, 42: 3, 8: 7}","[8, 42, 56]",87423562,Ba2Mo3O7
BaMo4O7,mp-1048520,0.01609999999999978,2.93865307,0.646232306458332,"{56: 1, 42: 4, 8: 7}","[8, 42, 56]",87424561,Ba1Mo4O7
BaAg4O7,mp-1048230,0.0,-0.37827812,0.4740494629166623,"{56: 1, 47: 4, 8: 7}","[8, 47, 56]",87474561,Ba1Ag4O7
BaLa2In2O7,mp-21699,2.4620000000000006,5.0188604,0.005722998958323622,"{56: 1, 57: 2, 49: 2, 8: 7}","[8, 49, 56, 57]",87492561572,Ba1La2In2O7
BaPr2In2O7,mp-1203636,2.4082,3.43692421,0.002619588645822901,"{56: 1, 59: 2, 49: 2, 8: 7}","[8, 49, 56, 59]",87492561592,Ba1Pr2In2O7
BaNd2In2O7,mp-1197371,2.3845999999999994,3.36117198,0.00945550958332575,"{56: 1, 60: 2, 49: 2, 8: 7}","[8, 49, 56, 60]",87492561602,Ba1Nd2In2O7
Ba4In2O7,mp-757745,1.3670999999999998,2.4868309,0.08784540346153591,"{56: 4, 49: 2, 8: 7}","[8, 49, 56]",87492564,Ba4In2O7
Ba2TlSn2O7,mp-1046053,0.0,3.38970239,0.3784010509722222,"{56: 2, 81: 1, 50: 2, 8: 7}","[8, 50, 56, 81]",87502562811,Ba2Tl1Sn2O7
Ba3Sn2O7,mp-770846,1.6702999999999997,3.33241305,0.0,"{56: 3, 50: 2, 8: 7}","[8, 50, 56]",87502563,Ba3Sn2O7
Ba2Sn3O7,mp-1048188,0.07109999999999994,3.52604817,0.24963581458333373,"{56: 2, 50: 3, 8: 7}","[8, 50, 56]",87503562,Ba2Sn3O7
BaSn4O7,mp-1048197,0.06150000000000011,3.074217,0.4108690697916666,"{56: 1, 50: 4, 8: 7}","[8, 50, 56]",87504561,Ba1Sn4O7
Ba2Sb2O7,mp-752404,0.9781999999999997,3.46290777,0.037441791818188186,"{56: 2, 51: 2, 8: 7}","[8, 51, 56]",87512562,Ba2Sb2O7
Ba2TlSb2O7,mp-1045996,0.0,4.21228141,0.3284925230555542,"{56: 2, 81: 1, 51: 2, 8: 7}","[8, 51, 56, 81]",87512562811,Ba2Tl1Sb2O7
Ba2Sb3O7,mp-1048150,0.0,4.76336548,0.2195711933593767,"{56: 2, 51: 3, 8: 7}","[8, 51, 56]",87513562,Ba2Sb3O7
BaSb4O7,mp-1048167,1.2605,1.99000363,0.4839598082291703,"{56: 1, 51: 4, 8: 7}","[8, 51, 56]",87514561,Ba1Sb4O7
BaTe3O7,mp-1195118,3.1953000000000005,6.17534544,0.0006741397158975815,"{56: 1, 52: 3, 8: 7}","[8, 52, 56]",87523561,Ba1Te3O7
BaLa2WO7,mp-1203123,3.3342,4.04759118,0.0,"{56: 1, 57: 2, 74: 1, 8: 7}","[8, 56, 57, 74]",87561572741,Ba1La2W1O7
BaW4O7,mp-1048515,0.0,3.23771253,0.8700840168749977,"{56: 1, 74: 4, 8: 7}","[8, 56, 74]",87561744,Ba1W4O7
BaPtO7,mp-734295,1.4098000000000002,1.44935623,0.4076017095833322,"{56: 1, 78: 1, 8: 7}","[8, 56, 78]",87561781,Ba1Pt1O7
BaBi4O7,mp-675450,2.3709,1.63819038,0.10818349229167179,"{56: 1, 83: 4, 8: 7}","[8, 56, 83]",87561834,Ba1Bi4O7
BaU2O7,mp-27649,1.8593000000000002,3.06416428,0.007425858250007522,"{56: 1, 92: 2, 8: 7}","[8, 56, 92]",87561922,Ba1U2O7
Ba2Ta2O7,mp-770239,2.9092000000000002,1.60447579,0.0,"{56: 2, 73: 2, 8: 7}","[8, 56, 73]",87562732,Ba2Ta2O7
Ba2TlW2O7,mp-1046350,0.0,3.73109234,0.4180607261805509,"{56: 2, 81: 1, 74: 2, 8: 7}","[8, 56, 74, 81]",87562742811,Ba2Tl1W2O7
Ba2W3O7,mp-1048501,0.0,4.47651369,0.427989609791668,"{56: 2, 74: 3, 8: 7}","[8, 56, 74]",87562743,Ba2W3O7
Ba2TlBi2O7,mp-1046056,0.0,2.11552901,0.16797066847221842,"{56: 2, 81: 1, 83: 2, 8: 7}","[8, 56, 81, 83]",87562811832,Ba2Tl1Bi2O7
Ba2Bi3O7,mp-1048204,0.0,2.96486044,0.16790787895833237,"{56: 2, 83: 3, 8: 7}","[8, 56, 83]",87562833,Ba2Bi3O7
Ba2U2O7,mp-583034,0.3482000000000003,5.25733337,0.0,"{56: 2, 92: 2, 8: 7}","[8, 56, 92]",87562922,Ba2U2O7
Ba3Hf2O7,mp-754128,3.5653,2.11661992,0.0,"{56: 3, 72: 2, 8: 7}","[8, 56, 72]",87563722,Ba3Hf2O7
Ba3Pt2O7,mp-38108,0.0,2.70349802,0.0036642634583392564,"{56: 3, 78: 2, 8: 7}","[8, 56, 78]",87563782,Ba3Pt2O7
Ba4Ce2O7,mp-770465,0.0,5.19795073,0.025259144615386475,"{56: 4, 58: 2, 8: 7}","[8, 56, 58]",87564582,Ba4Ce2O7
BaY2Si2O7F2,mp-1193084,5.0182,1.98144411,0.01540576791666659,"{56: 1, 39: 2, 14: 2, 8: 7, 9: 2}","[8, 9, 14, 39, 56]",8792142392561,Ba1Y2Si2O7F2
BaFe2P2O7F2,mp-561063,1.6729,1.72811303,0.0,"{56: 1, 26: 2, 15: 2, 8: 7, 9: 2}","[8, 9, 15, 26, 56]",8792152262561,Ba1Fe2P2O7F2
Ba3V2O7F5,mp-1215049,1.4075,3.00120979,0.2530715888480257,"{56: 3, 23: 2, 8: 7, 9: 5}","[8, 9, 23, 56]",8795232563,Ba3V2O7F5
Ba3Na(SiO4)2,mp-1182396,0.14549999999999996,1.71886592,0.06349819509258925,"{56: 3, 11: 1, 14: 2, 8: 8}","[8, 11, 14, 56]",88111142563,Ba3Na1Si2O8
BaNaY2(PO4)2,mp-1214445,0.0,5.54902858,0.5467199029440701,"{56: 1, 11: 1, 39: 2, 15: 2, 8: 8}","[8, 11, 15, 39, 56]",88111152392561,Ba1Na1Y2P2O8
Ba4NaAuO8,mp-560188,1.4165999999999999,2.56454123,0.1873914311086322,"{56: 4, 11: 1, 79: 1, 8: 8}","[8, 11, 56, 79]",88111564791,Ba4Na1Au1O8
BaNa2Mg(PO4)2,mp-861906,4.7985,2.0449373,0.0,"{56: 1, 11: 2, 12: 1, 15: 2, 8: 8}","[8, 11, 12, 15, 56]",88112121152561,Ba1Na2Mg1P2O8
BaNa2V2CuO8,mp-17711,0.0,1.7097463,0.021350799017860744,"{56: 1, 11: 2, 23: 2, 29: 1, 8: 8}","[8, 11, 23, 29, 56]",88112232291561,Ba1Na2V2Cu1O8
BaNa3(PO4)2,mp-1214424,0.0,0.82259988,0.03113149749999433,"{56: 1, 11: 3, 15: 2, 8: 8}","[8, 11, 15, 56]",88113152561,Ba1Na3P2O8
BaCa2Mg(SiO4)2,mp-1103554,4.9948,2.65069337,0.014987973392861065,"{56: 1, 20: 2, 12: 1, 14: 2, 8: 8}","[8, 12, 14, 20, 56]",88121142202561,Ba1Ca2Mg1Si2O8
Ba3Mg(SiO4)2,mp-556703,4.6934000000000005,2.40618931,0.018208491011891148,"{56: 3, 12: 1, 14: 2, 8: 8}","[8, 12, 14, 56]",88121142563,Ba3Mg1Si2O8
Ba2MgCu(PO4)2,mp-2228499,0.15470000000000006,3.03251285,0.31495055017858675,"{56: 2, 12: 1, 29: 1, 15: 2, 8: 8}","[8, 12, 15, 29, 56]",88121152291562,Ba2Mg1Cu1P2O8
BaMgMo(PO4)2,mp-2218590,0.0,5.0152249,0.25398624903844613,"{56: 1, 12: 1, 42: 1, 15: 2, 8: 8}","[8, 12, 15, 42, 56]",88121152421561,Ba1Mg1Mo1P2O8
Ba2Mg(PO4)2,mp-14558,4.6678,1.6080326,0.0,"{56: 2, 12: 1, 15: 2, 8: 8}","[8, 12, 15, 56]",88121152562,Ba2Mg1P2O8
BaMgTi4O8,mp-1046916,0.0,5.73559125,0.21810452064285357,"{56: 1, 12: 1, 22: 4, 8: 8}","[8, 12, 22, 56]",88121224561,Ba1Mg1Ti4O8
BaMgMnV2(AgO4)2,mp-2232129,0.9175,2.79388443,0.2912415505277881,"{56: 1, 12: 1, 25: 1, 23: 2, 47: 2, 8: 8}","[8, 12, 23, 25, 47, 56]",88121232251472561,Ba1Mg1Mn1V2Ag2O8
BaMgV2CuO8,mp-1228071,0.1293000000000002,2.37953521,0.034876744711547225,"{56: 1, 12: 1, 23: 2, 29: 1, 8: 8}","[8, 12, 23, 29, 56]",88121232291561,Ba1Mg1V2Cu1O8
BaMgV2ZnO8,mp-1227934,3.1750000000000003,1.02948023,0.0073197657211538925,"{56: 1, 12: 1, 23: 2, 30: 1, 8: 8}","[8, 12, 23, 30, 56]",88121232301561,Ba1Mg1V2Zn1O8
Ba3MgV2O8,mp-2227999,1.7867999999999995,2.59122385,0.14480777788689192,"{56: 3, 12: 1, 23: 2, 8: 8}","[8, 12, 23, 56]",88121232563,Ba3Mg1V2O8
BaMgV4O8,mp-1044203,0.9439000000000002,3.65271106,0.16805148030054617,"{56: 1, 12: 1, 23: 4, 8: 8}","[8, 12, 23, 56]",88121234561,Ba1Mg1V4O8
Ba3MgCr2O8,mp-2228457,1.5036,2.23700462,0.17161695885715655,"{56: 3, 12: 1, 24: 2, 8: 8}","[8, 12, 24, 56]",88121242563,Ba3Mg1Cr2O8
BaMgCr4O8,mp-1044283,0.0,3.61504214,0.43118748160714127,"{56: 1, 12: 1, 24: 4, 8: 8}","[8, 12, 24, 56]",88121244561,Ba1Mg1Cr4O8
Ba3MgMn2O8,mp-2228574,0.6212,2.5160956,0.23029464904761987,"{56: 3, 12: 1, 25: 2, 8: 8}","[8, 12, 25, 56]",88121252563,Ba3Mg1Mn2O8
Ba2YMgMn3O8,mp-2228188,0.0,3.94544289,0.17679860844166484,"{56: 2, 39: 1, 12: 1, 25: 3, 8: 8}","[8, 12, 25, 39, 56]",88121253391562,Ba2Y1Mg1Mn3O8
BaMgMn4O8,mp-2226546,0.7542999999999997,3.28749354,0.15469554488094772,"{56: 1, 12: 1, 25: 4, 8: 8}","[8, 12, 25, 56]",88121254561,Ba1Mg1Mn4O8
Ba2YMgFe3O8,mp-2232505,0.0,4.16690383,0.22263193309722062,"{56: 2, 39: 1, 12: 1, 26: 3, 8: 8}","[8, 12, 26, 39, 56]",88121263391562,Ba2Y1Mg1Fe3O8
BaMgZn(FeO2)4,mp-2233108,1.4748999999999999,2.58828263,0.31082123635714876,"{56: 1, 12: 1, 30: 1, 26: 4, 8: 8}","[8, 12, 26, 30, 56]",88121264301561,Ba1Mg1Zn1Fe4O8
BaMg(FeO2)4,mp-1044425,1.6564,2.11657782,0.10648126142854508,"{56: 1, 12: 1, 26: 4, 8: 8}","[8, 12, 26, 56]",88121264561,Ba1Mg1Fe4O8
Ba2Mg(FeO2)4,mp-2232179,0.0,3.13770936,0.29270866604761636,"{56: 2, 12: 1, 26: 4, 8: 8}","[8, 12, 26, 56]",88121264562,Ba2Mg1Fe4O8