formula,material_id,band_gap,efermi,energy_above_hull,comp_atoms,sorted_keys_comp_atoms,comp_number,new_formula
BaBiBS4,mp-861618,1.9310999999999998,2.67599636,0.005593375436506065,"{56: 1, 83: 1, 5: 1, 16: 4}","[5, 16, 56, 83]",51164561831,Ba1Bi1B1S4
BaSb2,mp-624668,0.0,4.97114818,0.0,"{56: 1, 51: 2}","[51, 56]",512561,Ba1Sb2
Ba(SbAu)2,mp-570298,0.0,5.55258331,0.009094939666663748,"{56: 1, 51: 2, 79: 2}","[51, 56, 79]",512561792,Ba1Sb2Au2
Ba3Sb2,mp-1013582,0.0,1.95513831,0.4163215811999996,"{56: 3, 51: 2}","[51, 56]",512563,Ba3Sb2
BaGe2B,mp-631556,0.0,4.18114695,1.1891622895312515,"{56: 1, 32: 2, 5: 1}","[5, 32, 56]",51322561,Ba1Ge2B1
BaSb3,mp-6950,0.0,5.02250958,0.0,"{56: 1, 51: 3}","[51, 56]",513561,Ba1Sb3
Ba2Sb3,mp-16922,0.2850999999999999,4.02486486,0.0,"{56: 2, 51: 3}","[51, 56]",513562,Ba2Sb3
Ba5Sb3,mp-9909,0.0,3.54303234,0.0,"{56: 5, 51: 3}","[51, 56]",513565,Ba5Sb3
Ba5Sb4,mp-10089,0.2648999999999999,3.37409542,0.0,"{56: 5, 51: 4}","[51, 56]",514565,Ba5Sb4
Ba4Pr7Si12BN27,mp-695596,0.0,4.73885567,0.008368574832513076,"{56: 4, 59: 7, 14: 12, 5: 1, 7: 27}","[5, 7, 14, 56, 59]",517271412564597,Ba4Pr7Si12B1N27
Ba4Nd7Si12BN27,mp-695553,0.0,4.70237529,0.007366281168287969,"{56: 4, 60: 7, 14: 12, 5: 1, 7: 27}","[5, 7, 14, 56, 60]",517271412564607,Ba4Nd7Si12B1N27
Ba4Sm7Si12BN27,mp-693655,0.0,4.67669912,0.00717167573427524,"{56: 4, 62: 7, 14: 12, 5: 1, 7: 27}","[5, 7, 14, 56, 62]",517271412564627,Ba4Sm7Si12B1N27
Ba3BN3,mp-1246468,0.19750000000000023,2.32505232,0.13859504166666703,"{56: 3, 5: 1, 7: 3}","[5, 7, 56]",5173563,Ba3B1N3
Ba3B(PO4)3,mp-6578,5.0114,1.20157953,0.002143312587722157,"{56: 3, 5: 1, 15: 3, 8: 12}","[5, 8, 15, 56]",51812153563,Ba3B1P3O12
BaBOF3,mp-13680,5.8892999999999995,0.352472,0.09583479538461415,"{56: 1, 5: 1, 8: 1, 9: 3}","[5, 8, 9, 56]",518193561,Ba1B1O1F3
Ba3BAsO3,mp-9793,1.5232999999999999,2.42047753,0.0,"{56: 3, 5: 1, 33: 1, 8: 3}","[5, 8, 33, 56]",5183331563,Ba3B1As1O3
Ba3B(BrO)3,mp-1200496,3.7561000000000004,4.3866251,0.0,"{56: 3, 5: 1, 35: 3, 8: 3}","[5, 8, 35, 56]",5183353563,Ba3B1Br3O3
BaCaBO3F,mp-694911,3.8701,1.34953921,0.006657377482994775,"{56: 1, 20: 1, 5: 1, 8: 3, 9: 1}","[5, 8, 9, 20, 56]",518391201561,Ba1Ca1B1O3F1
BaZnBO3F,mp-1077866,3.6218,0.91821733,0.02034385999999877,"{56: 1, 30: 1, 5: 1, 8: 3, 9: 1}","[5, 8, 9, 30, 56]",518391301561,Ba1Zn1B1O3F1
BaLaCuBO5,mp-14970,0.0,4.59233364,0.0018921994032918832,"{56: 1, 57: 1, 29: 1, 5: 1, 8: 5}","[5, 8, 29, 56, 57]",5185291561571,Ba1La1Cu1B1O5
BaSmCuBO5,mp-1214336,0.5394000000000001,3.51767748,0.0016954971666747198,"{56: 1, 62: 1, 29: 1, 5: 1, 8: 5}","[5, 8, 29, 56, 62]",5185291561621,Ba1Sm1Cu1B1O5
BaGdCuBO5,mp-1214529,0.0,3.56913362,0.01843382498148749,"{56: 1, 64: 1, 29: 1, 5: 1, 8: 5}","[5, 8, 29, 56, 64]",5185291561641,Ba1Gd1Cu1B1O5
BaTbCuBO5,mp-1214316,0.5544000000000002,3.68490909,0.01585487381941686,"{56: 1, 65: 1, 29: 1, 5: 1, 8: 5}","[5, 8, 29, 56, 65]",5185291561651,Ba1Tb1Cu1B1O5
BaBAsO5,mp-9784,3.5435999999999996,1.22873258,0.0,"{56: 1, 5: 1, 33: 1, 8: 5}","[5, 8, 33, 56]",5185331561,Ba1B1As1O5
Ba3BPO7,mp-554479,3.3373,1.80013244,0.018078683541666862,"{56: 3, 5: 1, 15: 1, 8: 7}","[5, 8, 15, 56]",5187151563,Ba3B1P1O7
BaTe,mp-1000,1.593,2.12107087,0.0,"{56: 1, 52: 1}","[52, 56]",521561,Ba1Te1
Ba3Te,mp-984765,0.0,3.94190173,0.35325158500000065,"{56: 3, 52: 1}","[52, 56]",521563,Ba3Te1
BaTe2,mp-2150,0.3512999999999993,4.22978991,0.0,"{56: 1, 52: 2}","[52, 56]",522561,Ba1Te2
BaTe3,mp-8234,0.8198000000000008,4.48828638,0.0,"{56: 1, 52: 3}","[52, 56]",523561,Ba1Te3
Ba3NaB24,mp-1228056,0.0,3.71896047,0.009454336852214418,"{56: 3, 11: 1, 5: 24}","[5, 11, 56]",524111563,Ba3Na1B24
Ba(SmTe2)2,mp-17786,0.7957000000000001,3.58761432,0.0,"{56: 1, 62: 2, 52: 4}","[52, 56, 62]",524561622,Ba1Sm2Te4
Ba(GdTe2)2,mp-1182773,0.7582000000000004,3.52965325,0.0,"{56: 1, 64: 2, 52: 4}","[52, 56, 64]",524561642,Ba1Gd2Te4
Ba(TbTe2)2,mp-17153,0.7858999999999998,3.79976513,0.0,"{56: 1, 65: 2, 52: 4}","[52, 56, 65]",524561652,Ba1Tb2Te4
Ba(DyTe2)2,mp-17927,0.7862,3.76792494,0.0,"{56: 1, 66: 2, 52: 4}","[52, 56, 66]",524561662,Ba1Dy2Te4
Ba(HoTe2)2,mp-17273,0.7850000000000001,3.75190239,0.0,"{56: 1, 67: 2, 52: 4}","[52, 56, 67]",524561672,Ba1Ho2Te4
Ba(ErTe2)2,mp-17928,0.7848999999999995,3.8424124,0.0,"{56: 1, 68: 2, 52: 4}","[52, 56, 68]",524561682,Ba1Er2Te4
Ba(TmTe2)2,mp-18196,0.7841,3.84954243,0.0,"{56: 1, 69: 2, 52: 4}","[52, 56, 69]",524561692,Ba1Tm2Te4
Ba(LuTe2)2,mp-1192634,0.7892999999999994,4.60975694,0.0,"{56: 1, 71: 2, 52: 4}","[52, 56, 71]",524561712,Ba1Lu2Te4
BaThTe4,mp-1095218,0.0,5.77421808,0.010858589166661936,"{56: 1, 90: 1, 52: 4}","[52, 56, 90]",524561901,Ba1Th1Te4
BaUTe4,mp-1095338,0.0,5.98405704,0.014781845000000793,"{56: 1, 92: 1, 52: 4}","[52, 56, 92]",524561921,Ba1U1Te4
BaU2Te5,mp-1105536,0.0,6.66024741,0.0,"{56: 1, 92: 2, 52: 5}","[52, 56, 92]",525561922,Ba1U2Te5
BaUTe6,mp-1194611,0.1816999999999993,5.5849036,0.0,"{56: 1, 92: 1, 52: 6}","[52, 56, 92]",526561921,Ba1U1Te6
Ba4B2N4O,mp-553990,2.8023999999999996,1.96674257,0.011112585000002007,"{56: 4, 5: 2, 7: 4, 8: 1}","[5, 7, 8, 56]",527481564,Ba4B2N4O1
Ba2Nd2MgCu2(BO5)2,mp-2231110,0.10350000000000037,5.14013834,0.3782731162631743,"{56: 2, 60: 2, 12: 1, 29: 2, 5: 2, 8: 10}","[5, 8, 12, 29, 56, 60]",52810121292562602,Ba2Nd2Mg1Cu2B2O10
Ba3Ti3(BO6)2,mp-11772,2.1313,2.35640327,0.026880787749993473,"{56: 3, 22: 3, 5: 2, 8: 12}","[5, 8, 22, 56]",52812223563,Ba3Ti3B2O12
Ba2MgFe2B2(P2O9)2,mp-1234736,3.5197,2.81118265,0.02491528275863608,"{56: 2, 12: 1, 26: 2, 5: 2, 15: 4, 8: 18}","[5, 8, 12, 15, 26, 56]",52818121154262562,Ba2Mg1Fe2B2P4O18
BaCuB2O5,mp-551135,0.5047000000000001,1.89780508,0.02775153777776751,"{56: 1, 29: 1, 5: 2, 8: 5}","[5, 8, 29, 56]",5285291561,Ba1Cu1B2O5
BaNaSc(BO3)2,mp-1182298,3.8127999999999997,1.75196207,0.0,"{56: 1, 11: 1, 21: 1, 5: 2, 8: 6}","[5, 8, 11, 21, 56]",5286111211561,Ba1Na1Sc1B2O6
BaNaY(BO3)2,mp-1182342,3.335,4.94936144,0.006637477121214097,"{56: 1, 11: 1, 39: 1, 5: 2, 8: 6}","[5, 8, 11, 39, 56]",5286111391561,Ba1Na1Y1B2O6
BaMgTi(BO3)2,mp-2217557,0.0,5.34604199,0.33323266106057314,"{56: 1, 12: 1, 22: 1, 5: 2, 8: 6}","[5, 8, 12, 22, 56]",5286121221561,Ba1Mg1Ti1B2O6
BaTi(BO3)2,mp-11659,2.3876999999999997,1.75916452,0.002753993562462753,"{56: 1, 22: 1, 5: 2, 8: 6}","[5, 8, 22, 56]",5286221561,Ba1Ti1B2O6
Ba2Cu(BO3)2,mp-559180,2.1332999999999998,2.33827004,0.004801486590890747,"{56: 2, 29: 1, 5: 2, 8: 6}","[5, 8, 29, 56]",5286291562,Ba2Cu1B2O6
Ba2Zn(BO3)2,mp-559138,3.3327999999999998,0.86298631,0.0,"{56: 2, 30: 1, 5: 2, 8: 6}","[5, 8, 30, 56]",5286301562,Ba2Zn1B2O6
BaZn2(BO3)2,mp-557974,3.2287,0.77520449,0.012499575681799158,"{56: 1, 30: 2, 5: 2, 8: 6}","[5, 8, 30, 56]",5286302561,Ba1Zn2B2O6
BaGa2B2O7,mp-560870,3.9841999999999995,0.80062278,0.0,"{56: 1, 31: 2, 5: 2, 8: 7}","[5, 8, 31, 56]",5287312561,Ba1Ga2B2O7
BaB2O9,mp-1196854,0.09729999999999994,-1.53205628,0.7817268191666713,"{56: 1, 5: 2, 8: 9}","[5, 8, 56]",5289561,Ba1B2O9
Ba13B30(PbO30)2,mp-1229148,4.0522,0.82371106,0.010210675619045873,"{56: 13, 5: 30, 82: 2, 8: 60}","[5, 8, 56, 82]",5308605613822,Ba13B30Pb2O60
Ba3(LaI6)2,mp-772916,2.1925,1.83430593,0.09404657985293863,"{56: 3, 57: 2, 53: 12}","[53, 56, 57]",5312563572,Ba3La2I12
Ba5La3I19,mp-772221,2.2099,1.08931105,0.08043842379629496,"{56: 5, 57: 3, 53: 19}","[53, 56, 57]",5319565573,Ba5La3I19
Ba6Pr3I19,mp-570423,0.7793999999999999,4.2773322,0.0,"{56: 6, 59: 3, 53: 19}","[53, 56, 59]",5319566593,Ba6Pr3I19
BaI2,mp-23260,3.4525000000000006,1.67744917,0.0,"{56: 1, 53: 2}","[53, 56]",532561,Ba1I2
Ba9La5I33,mp-851110,2.0466,2.81301383,0.03201539749999904,"{56: 9, 57: 5, 53: 33}","[53, 56, 57]",5333569575,Ba9La5I33
CsBaI3,mp-1096925,3.6259,3.84120435,0.0,"{55: 1, 56: 1, 53: 3}","[53, 55, 56]",533551561,Cs1Ba1I3
BaLaI4,mp-30111,0.0,5.74726749,0.0,"{56: 1, 57: 1, 53: 4}","[53, 56, 57]",534561571,Ba1La1I4
BaCeI4,mp-569380,0.0,5.68414218,0.0,"{56: 1, 58: 1, 53: 4}","[53, 56, 58]",534561581,Ba1Ce1I4
BaLaI5,mp-755350,2.2409,1.35544444,0.025962730357141695,"{56: 1, 57: 1, 53: 5}","[53, 56, 57]",535561571,Ba1La1I5
Ba5B3CNO9,mp-560326,3.3351,1.32570309,0.022954233355259923,"{56: 5, 5: 3, 6: 1, 7: 1, 8: 9}","[5, 6, 7, 8, 56]",53617189565,Ba5B3C1N1O9
BaUI6,mp-574430,0.23649999999999993,1.32246368,0.0,"{56: 1, 92: 1, 53: 6}","[53, 56, 92]",536561921,Ba1U1I6
Ba7SiB3NO13,mp-1256464,0.6212,2.78672547,0.12272391509999103,"{56: 7, 14: 1, 5: 3, 7: 1, 8: 13}","[5, 7, 8, 14, 56]",5371813141567,Ba7Si1B3N1O13
Ba3B3N5,mp-1246449,2.0126,2.70844954,0.11307895181818317,"{56: 3, 5: 3, 7: 5}","[5, 7, 56]",5375563,Ba3B3N5
Ba2LaI7,mp-772141,2.3695,2.31456611,0.02537523375000017,"{56: 2, 57: 1, 53: 7}","[53, 56, 57]",537562571,Ba2La1I7
Ba7GeB3ClO13,mp-1194658,3.5944000000000003,2.01334041,0.007895679866666505,"{56: 7, 32: 1, 5: 3, 17: 1, 8: 13}","[5, 8, 17, 32, 56]",53813171321567,Ba7Ge1B3Cl1O13
Ba7GeB3BrO13,mp-1194795,3.5639000000000003,1.74063617,0.002297154766665699,"{56: 7, 32: 1, 5: 3, 35: 1, 8: 13}","[5, 8, 32, 35, 56]",53813321351567,Ba7Ge1B3Br1O13
Ba4La4Cu4(BO6)3,mp-1228428,0.43820000000000014,4.8883497,0.07066171268939758,"{56: 4, 57: 4, 29: 4, 5: 3, 8: 18}","[5, 8, 29, 56, 57]",53818294564574,Ba4La4Cu4B3O18
Ba(LaI4)2,mp-754198,2.0311000000000003,3.30704302,0.0780602252272713,"{56: 1, 57: 2, 53: 8}","[53, 56, 57]",538561572,Ba1La2I8
CsBa(BO2)3,mp-556936,4.0415,0.40276056,0.0032533906060585593,"{55: 1, 56: 1, 5: 3, 8: 6}","[5, 8, 55, 56]",5386551561,Cs1Ba1B3O6
Ba3B3Pb2ClO9,mp-1195317,3.3651999999999997,2.23903423,0.0,"{56: 3, 5: 3, 82: 2, 17: 1, 8: 9}","[5, 8, 17, 56, 82]",5389171563822,Ba3B3Pb2Cl1O9
Ba5B3ClO9,mp-1201345,3.7516000000000003,1.33544356,0.0,"{56: 5, 5: 3, 17: 1, 8: 9}","[5, 8, 17, 56]",5389171565,Ba5B3Cl1O9
Ba3Sc(BO3)3,mp-14972,3.4741999999999997,2.17289252,0.0,"{56: 3, 21: 1, 5: 3, 8: 9}","[5, 8, 21, 56]",5389211563,Ba3Sc1B3O9
Ba3Y(BO3)3,mp-6310,3.8152999999999997,1.89148802,0.0,"{56: 3, 39: 1, 5: 3, 8: 9}","[5, 8, 39, 56]",5389391563,Ba3Y1B3O9
Ba3In(BO3)3,mp-866313,3.4936999999999996,2.05940277,0.0,"{56: 3, 49: 1, 5: 3, 8: 9}","[5, 8, 49, 56]",5389491563,Ba3In1B3O9
Ba3Ho(BO3)3,mp-14384,3.8238000000000003,1.96327694,0.0,"{56: 3, 67: 1, 5: 3, 8: 9}","[5, 8, 56, 67]",5389563671,Ba3Ho1B3O9
Ba3Er(BO3)3,mp-1214885,3.8598999999999997,2.06538599,0.0,"{56: 3, 68: 1, 5: 3, 8: 9}","[5, 8, 56, 68]",5389563681,Ba3Er1B3O9
Ba3Tm(BO3)3,mp-14385,3.8436000000000003,1.97555337,0.0,"{56: 3, 69: 1, 5: 3, 8: 9}","[5, 8, 56, 69]",5389563691,Ba3Tm1B3O9
Ba3Zn2B3O9F,mp-1195688,3.3810999999999996,4.44104757,0.018336587222231415,"{56: 3, 30: 2, 5: 3, 8: 9, 9: 1}","[5, 8, 9, 30, 56]",538991302563,Ba3Zn2B3O9F1
Ba3LaI9,mp-772034,2.8489999999999993,1.80095115,0.013544086346152007,"{56: 3, 57: 1, 53: 9}","[53, 56, 57]",539563571,Ba3La1I9
Ba2B4Se13,mp-30105,1.3329999999999997,2.21840448,0.0,"{56: 2, 5: 4, 34: 13}","[5, 34, 56]",543413562,Ba2B4Se13
BaBi2(B2O5)2,mp-560550,3.3497999999999997,3.21503849,0.0,"{56: 1, 83: 2, 5: 4, 8: 10}","[5, 8, 56, 83]",54810561832,Ba1Bi2B4O10
Ba5B4(O5F)2,mp-557176,4.5127,1.10610739,0.006210553095228555,"{56: 5, 5: 4, 8: 10, 9: 2}","[5, 8, 9, 56]",5481092565,Ba5B4O10F2
Ba2Sc2B4O11,mp-558688,3.3548,1.764001,0.008282484144716662,"{56: 2, 21: 2, 5: 4, 8: 11}","[5, 8, 21, 56]",54811212562,Ba2Sc2B4O11
Ba5B4O11,mp-3974,3.7916999999999996,1.70087068,0.0,"{56: 5, 5: 4, 8: 11}","[5, 8, 56]",54811565,Ba5B4O11
BaB4(SbO6)2,mp-1195214,3.3759000000000006,1.85586572,0.0,"{56: 1, 5: 4, 51: 2, 8: 12}","[5, 8, 51, 56]",54812512561,Ba1B4Sb2O12
Ba3La2(BO3)4,mp-6446,4.0127,2.66538398,0.014896854047620423,"{56: 3, 57: 2, 5: 4, 8: 12}","[5, 8, 56, 57]",54812563572,Ba3La2B4O12
Ba5Zn2B4(O6F)2,mp-1195124,3.6606000000000005,1.25616025,0.011029426999992431,"{56: 5, 30: 2, 5: 4, 8: 12, 9: 2}","[5, 8, 9, 30, 56]",5481292302565,Ba5Zn2B4O12F2
CsBa3,mp-1183954,0.0,1.41023818,0.15683680008620637,"{55: 1, 56: 3}","[55, 56]",551563,Cs1Ba3
Ba(BO2)5,mp-1204604,0.6024,-0.01213357,0.15644104814451332,"{56: 1, 5: 5, 8: 10}","[5, 8, 56]",55810561,Ba1B5O10
Ba2B5O11,mp-1198603,0.011900000000000022,0.58532723,0.10596473385416694,"{56: 2, 5: 5, 8: 11}","[5, 8, 56]",55811562,Ba2B5O11
Ba,mp-122,0.0,1.60282919,0.0,{56: 1},[56],561,Ba1
Ba11Bi10,mp-542293,0.0,3.27211802,0.0,"{56: 11, 83: 10}","[56, 83]",56118310,Ba11Bi10
BaLa3,mp-1183311,0.0,6.15683829,0.1652593537499989,"{56: 1, 57: 3}","[56, 57]",561573,Ba1La3
BaCe,mp-985290,0.0,4.12798325,0.42031207000000137,"{56: 1, 58: 1}","[56, 58]",561581,Ba1Ce1
BaCe3,mp-1183525,0.0,6.41500753,0.36761848125000274,"{56: 1, 58: 3}","[56, 58]",561583,Ba1Ce3
BaPr,mp-1183297,0.0,2.63861175,0.22119467416666705,"{56: 1, 59: 1}","[56, 59]",561591,Ba1Pr1
BaNd,mp-984827,0.0,2.70317418,0.2312907562500004,"{56: 1, 60: 1}","[56, 60]",561601,Ba1Nd1
BaPm,mp-1183293,0.0,2.54356254,0.2482590362499999,"{56: 1, 61: 1}","[56, 61]",561611,Ba1Pm1
BaPm3,mp-1183326,0.0,3.04159523,0.19113932187500016,"{56: 1, 61: 3}","[56, 61]",561613,Ba1Pm3
BaSm3,mp-1183309,0.0,2.93818967,0.20935866374999978,"{56: 1, 62: 3}","[56, 62]",561623,Ba1Sm3
BaEu3,mp-1183388,0.0,1.85092476,0.06133194124999619,"{56: 1, 63: 3}","[56, 63]",561633,Ba1Eu3
BaTb,mp-1183384,0.0,2.61157578,0.3031576366666675,"{56: 1, 65: 1}","[56, 65]",561651,Ba1Tb1
BaDy,mp-1183294,0.0,2.58022674,0.31930745416666895,"{56: 1, 66: 1}","[56, 66]",561661,Ba1Dy1
BaRe3,mp-1183358,0.0,6.00296701,1.4774513981249981,"{56: 1, 75: 3}","[56, 75]",561753,Ba1Re3
BaPt,mp-31498,0.0,3.57513151,0.0,"{56: 1, 78: 1}","[56, 78]",561781,Ba1Pt1
BaPt2,mp-747,0.0,5.55332515,0.0,"{56: 1, 78: 2}","[56, 78]",561782,Ba1Pt2
BaPt5,mp-811,0.0,5.42413649,0.0,"{56: 1, 78: 5}","[56, 78]",561785,Ba1Pt5
BaAu,mp-570775,0.0,3.15362144,0.0,"{56: 1, 79: 1}","[56, 79]",561791,Ba1Au1
BaTl3Au,mp-1227345,0.0,4.62892412,0.013759600333332234,"{56: 1, 81: 3, 79: 1}","[56, 79, 81]",561791813,Ba1Tl3Au1
BaBiAu,mp-31140,0.0,3.11806062,0.41085540648148555,"{56: 1, 83: 1, 79: 1}","[56, 79, 83]",561791831,Ba1Bi1Au1
BaAu2,mp-30363,0.0,3.23229708,0.0,"{56: 1, 79: 2}","[56, 79]",561792,Ba1Au2
BaAu5,mp-30364,0.0,4.10027301,0.0,"{56: 1, 79: 5}","[56, 79]",561795,Ba1Au5
BaHg,mp-2197,0.0,2.47520679,0.0,"{56: 1, 80: 1}","[56, 80]",561801,Ba1Hg1
BaHg11,mp-1600,0.0,2.13024314,0.023561886180550773,"{56: 1, 80: 11}","[56, 80]",5618011,Ba1Hg11
BaHgPb,mp-1228081,0.0,3.9090316,0.0,"{56: 1, 80: 1, 82: 1}","[56, 80, 82]",561801821,Ba1Hg1Pb1
BaHg2,mp-11267,0.0,2.50781087,0.0,"{56: 1, 80: 2}","[56, 80]",561802,Ba1Hg2
BaTlHg2,mp-865984,0.0,3.30781824,0.0,"{56: 1, 81: 1, 80: 2}","[56, 80, 81]",561802811,Ba1Tl1Hg2
Ba(TlHg)2,mp-3392,0.0,3.87204784,0.003966715833332524,"{56: 1, 81: 2, 80: 2}","[56, 80, 81]",561802812,Ba1Tl2Hg2
BaHg2Pb,mp-864618,0.0,3.57356786,0.0,"{56: 1, 80: 2, 82: 1}","[56, 80, 82]",561802821,Ba1Hg2Pb1
BaHg2Bi,mp-1183299,0.0,3.24742008,0.0021709874999986667,"{56: 1, 80: 2, 83: 1}","[56, 80, 83]",561802831,Ba1Hg2Bi1
BaHg3,mp-867770,0.0,2.4147795,0.0,"{56: 1, 80: 3}","[56, 80]",561803,Ba1Hg3
BaHg6,mp-1193593,0.0,2.38671192,0.0,"{56: 1, 80: 6}","[56, 80]",561806,Ba1Hg6
BaTl2,mp-30434,0.0,4.4802478,0.0,"{56: 1, 81: 2}","[56, 81]",561812,Ba1Tl2
BaTl2Pb,mp-1097529,0.07430000000000003,-2.43742248,1.4819048331250009,"{56: 1, 81: 2, 82: 1}","[56, 81, 82]",561812821,Ba1Tl2Pb1
BaTl3,mp-984725,0.0,4.71754372,0.0025864675000057957,"{56: 1, 81: 3}","[56, 81]",561813,Ba1Tl3
BaTl4,mp-1091391,0.0,5.03911732,0.0,"{56: 1, 81: 4}","[56, 81]",561814,Ba1Tl4
BaPb,mp-20136,0.0,3.79950371,0.0,"{56: 1, 82: 1}","[56, 82]",561821,Ba1Pb1
BaPb3,mp-21446,0.0,5.49160199,0.0,"{56: 1, 82: 3}","[56, 82]",561823,Ba1Pb3
BaBi3,mp-23201,0.0,5.26641733,0.0,"{56: 1, 83: 3}","[56, 83]",561833,Ba1Bi3
BaBi5,mp-1228008,0.0,5.11653189,0.07281481499999964,"{56: 1, 83: 5}","[56, 83]",561835,Ba1Bi5
BaAc3,mp-1183364,0.0,4.82541018,0.104439201875,"{56: 1, 89: 3}","[56, 89]",561893,Ba1Ac3
BaTh,mp-1183396,0.0,4.6662772,0.4438223050000021,"{56: 1, 90: 1}","[56, 90]",561901,Ba1Th1
BaTh3,mp-984796,0.0,6.24442994,0.37367080250000306,"{56: 1, 90: 3}","[56, 90]",561903,Ba1Th3
BaPa3,mp-1183378,0.0,10.00851481,0.7123521025000006,"{56: 1, 91: 3}","[56, 91]",561913,Ba1Pa3
Ba20Hg103,mp-1201907,0.1802999999999999,2.49777022,0.0019667218292676036,"{56: 20, 80: 103}","[56, 80]",562080103,Ba20Hg103
Ba2PtAu,mp-675690,0.0,3.31796754,0.002917088750000296,"{56: 2, 78: 1, 79: 1}","[56, 78, 79]",562781791,Ba2Pt1Au1
Ba2HgAu,mp-1095904,0.2661,-1.98001894,1.3322180337499991,"{56: 2, 80: 1, 79: 1}","[56, 79, 80]",562791801,Ba2Hg1Au1
Ba2TlAu,mp-1096031,0.01870000000000016,-1.70636519,1.3565202716666722,"{56: 2, 81: 1, 79: 1}","[56, 79, 81]",562791811,Ba2Tl1Au1
Ba2Tl7Au,mp-31071,0.0,5.07025422,0.0031806469166655305,"{56: 2, 81: 7, 79: 1}","[56, 79, 81]",562791817,Ba2Tl7Au1
Ba2BiAu,mp-862947,0.4227999999999996,3.16433616,0.0,"{56: 2, 83: 1, 79: 1}","[56, 79, 83]",562791831,Ba2Bi1Au1
Ba2Hg,mp-8094,0.0,1.98079477,0.0,"{56: 2, 80: 1}","[56, 80]",562801,Ba2Hg1
Ba2TlHg,mp-1183313,0.0,3.28391986,0.0,"{56: 2, 81: 1, 80: 1}","[56, 80, 81]",562801811,Ba2Tl1Hg1
Ba2HgPb,mp-866106,0.0,3.13179777,0.0,"{56: 2, 80: 1, 82: 1}","[56, 80, 82]",562801821,Ba2Hg1Pb1
Ba2TlPb,mp-1096475,0.0,-2.00553158,1.552867828125001,"{56: 2, 81: 1, 82: 1}","[56, 81, 82]",562811821,Ba2Tl1Pb1
Ba2Pb,mp-21246,0.028799999999999937,3.04627676,0.0,"{56: 2, 82: 1}","[56, 82]",562821,Ba2Pb1
Ba2Bi,mp-567872,0.0,3.15764114,0.023592227777780028,"{56: 2, 83: 1}","[56, 83]",562831,Ba2Bi1
Ba2Bi3,mp-569529,0.0,4.07220782,0.0,"{56: 2, 83: 3}","[56, 83]",562833,Ba2Bi3
Ba3La,mp-1183334,0.0,2.69648588,0.1723992037499995,"{56: 3, 57: 1}","[56, 57]",563571,Ba3La1
Ba3Ce,mp-1183438,0.0,2.64690788,0.30147507750000146,"{56: 3, 58: 1}","[56, 58]",563581,Ba3Ce1
Ba3Pr,mp-1183368,0.0,2.10418949,0.17477673833333318,"{56: 3, 59: 1}","[56, 59]",563591,Ba3Pr1
Ba3Nd,mp-1183351,0.0,2.06206029,0.18107107062500027,"{56: 3, 60: 1}","[56, 60]",563601,Ba3Nd1
Ba3Pm,mp-1183371,0.0,2.03844533,0.19079931687499974,"{56: 3, 61: 1}","[56, 61]",563611,Ba3Pm1
Ba3Sm,mp-1183357,0.0,2.06760358,0.19724092874999988,"{56: 3, 62: 1}","[56, 62]",563621,Ba3Sm1
Ba3Eu,mp-1183350,0.0,1.791406,0.03467387124999988,"{56: 3, 63: 1}","[56, 63]",563631,Ba3Eu1
Ba3Tb,mp-978919,0.0,2.154611,0.22250809833333385,"{56: 3, 65: 1}","[56, 65]",563651,Ba3Tb1
Ba3Dy,mp-1183385,0.0,2.09144517,0.2289390945833345,"{56: 3, 66: 1}","[56, 66]",563661,Ba3Dy1
Ba3Ho,mp-1183340,0.0,2.03177959,0.2502371137500017,"{56: 3, 67: 1}","[56, 67]",563671,Ba3Ho1
Ba3Er,mp-1183359,0.0,2.04413708,0.23378061250000082,"{56: 3, 68: 1}","[56, 68]",563681,Ba3Er1
Ba3Tm,mp-1183349,0.0,2.09154258,0.2378669949999983,"{56: 3, 69: 1}","[56, 69]",563691,Ba3Tm1
Ba3Au2,mp-1104164,0.0,2.81177459,0.0,"{56: 3, 79: 2}","[56, 79]",563792,Ba3Au2
Ba3Pb5,mp-630923,0.0,4.60637497,0.0,"{56: 3, 82: 5}","[56, 82]",563825,Ba3Pb5
Ba3Bi,mp-1183362,0.0,3.56136239,0.1494665458333313,"{56: 3, 83: 1}","[56, 83]",563831,Ba3Bi1
Ba3Bi2,mp-1013736,0.0,1.80851552,0.3856861690000004,"{56: 3, 83: 2}","[56, 83]",563832,Ba3Bi2
Ba3Ac,mp-1183376,0.0,2.63557881,0.10679882937499974,"{56: 3, 89: 1}","[56, 89]",563891,Ba3Ac1
Ba3Th,mp-1183363,0.0,2.8724986,0.4223983437500012,"{56: 3, 90: 1}","[56, 90]",563901,Ba3Th1
Ba3Pa,mp-1183382,0.0,3.40557804,0.7545531025000001,"{56: 3, 91: 1}","[56, 91]",563911,Ba3Pa1
Ba3Np,mp-1076925,0.0,2.71469414,0.6798335528124997,"{56: 3, 93: 1}","[56, 93]",563931,Ba3Np1
Ba4Pt,mp-1214403,0.0,1.35195303,0.1115535620000001,"{56: 4, 78: 1}","[56, 78]",564781,Ba4Pt1
Ba4Tl13Hg3,mp-1228188,0.0,4.58084219,0.0,"{56: 4, 81: 13, 80: 3}","[56, 80, 81]",5648038113,Ba4Tl13Hg3
Ba4Bi3,mp-30892,0.0,2.48099527,0.0,"{56: 4, 83: 3}","[56, 83]",564833,Ba4Bi3
Ba5Pb3,mp-622106,0.0,3.07140844,0.015117826874995188,"{56: 5, 82: 3}","[56, 82]",565823,Ba5Pb3
Ba5Bi3,mp-29621,0.0,3.13017881,0.0,"{56: 5, 83: 3}","[56, 83]",565833,Ba5Bi3
Ba7Hg31,mp-1228441,0.016999999999999904,2.41806823,0.015648851973691036,"{56: 7, 80: 31}","[56, 80]",5678031,Ba7Hg31
Ba2Mg(BO2)6,mp-1019528,4.9106000000000005,1.03838435,0.00621195461310009,"{56: 2, 12: 1, 5: 6, 8: 12}","[5, 8, 12, 56]",56812121562,Ba2Mg1B6O12
KBaY(BO2)6,mp-1223465,5.3259,5.41263777,0.015872166230163742,"{19: 1, 56: 1, 39: 1, 5: 6, 8: 12}","[5, 8, 19, 39, 56]",56812191391561,K1Ba1Y1B6O12