formula,material_id,band_gap,efermi,energy_above_hull,comp_atoms,sorted_keys_comp_atoms,comp_number,new_formula
BaSn2S5,mp-1202711,1.5453000000000001,3.28018328,0.0029324694791661443,"{56: 1, 50: 2, 16: 5}","[16, 50, 56]",165502561,Ba1Sn2S5
BaTh2S5,mp-1195483,1.7359999999999998,6.2487522,0.0,"{56: 1, 90: 2, 16: 5}","[16, 56, 90]",165561902,Ba1Th2S5
BaU2S5,mp-1199878,0.0,7.06645075,0.0,"{56: 1, 92: 2, 16: 5}","[16, 56, 92]",165561922,Ba1U2S5
Ba2HgS5,mp-1194545,1.6693000000000002,3.71397281,0.0,"{56: 2, 80: 1, 16: 5}","[16, 56, 80]",165562801,Ba2Hg1S5
Ba2H6Os,mp-697044,1.9655,1.41689855,0.0,"{56: 2, 1: 6, 76: 1}","[1, 56, 76]",16562761,Ba2H6Os1
Ba2H6Pt,mp-643253,1.7589000000000001,1.23788038,0.0,"{56: 2, 1: 6, 78: 1}","[1, 56, 78]",16562781,Ba2H6Pt1
BaSc3AgS6,mp-554796,1.4793999999999996,3.30959572,0.0,"{56: 1, 21: 3, 47: 1, 16: 6}","[16, 21, 47, 56]",166213471561,Ba1Sc3Ag1S6
Ba2TiVS6,mp-1228354,0.0,4.23756293,0.02834037399999545,"{56: 2, 22: 1, 23: 1, 16: 6}","[16, 22, 23, 56]",166221231562,Ba2Ti1V1S6
Ba2V(CuS2)3,mp-560493,0.4395000000000002,3.839348,0.03851797458333284,"{56: 2, 23: 1, 29: 3, 16: 6}","[16, 23, 29, 56]",166231293562,Ba2V1Cu3S6
Ba3(CrS3)2,mp-30904,0.0,4.22117778,0.025975898545453013,"{56: 3, 24: 2, 16: 6}","[16, 24, 56]",166242563,Ba3Cr2S6
Ba3UMnS6,mp-1190597,0.0,5.03475901,0.0,"{56: 3, 92: 1, 25: 1, 16: 6}","[16, 25, 56, 92]",166251563921,Ba3U1Mn1S6
Ba3UFeS6,mp-1190569,0.0,4.94339472,0.04121638704545383,"{56: 3, 92: 1, 26: 1, 16: 6}","[16, 26, 56, 92]",166261563921,Ba3U1Fe1S6
BaH6C2SNO5,mp-1202239,3.5841000000000003,-0.83325451,0.08745259835937258,"{56: 1, 1: 6, 6: 2, 16: 1, 7: 1, 8: 5}","[1, 6, 7, 8, 16, 56]",16627185161561,Ba1H6C2S1N1O5
BaH6C2S2N2O3,mp-707729,4.1044,-0.74466277,0.112301486059045,"{56: 1, 1: 6, 6: 2, 16: 2, 7: 2, 8: 3}","[1, 6, 7, 8, 16, 56]",16627283162561,Ba1H6C2S2N2O3
BaH6C2N4O5,mp-1214846,4.3081,3.25914029,0.10760047749997614,"{56: 1, 1: 6, 6: 2, 7: 4, 8: 5}","[1, 6, 7, 8, 56]",16627485561,Ba1H6C2N4O5
BaGa2GeS6,mp-1227983,2.7662999999999998,2.28882112,0.0,"{56: 1, 31: 2, 32: 1, 16: 6}","[16, 31, 32, 56]",166312321561,Ba1Ga2Ge1S6
Ba3(GaS3)2,mp-29302,2.6781999999999995,1.94124601,0.0,"{56: 3, 31: 2, 16: 6}","[16, 31, 56]",166312563,Ba3Ga2S6
BaGe4(RhS3)2,mp-1194551,1.4674000000000005,4.39370972,0.019900212019223318,"{56: 1, 32: 4, 45: 2, 16: 6}","[16, 32, 45, 56]",166324452561,Ba1Ge4Rh2S6
Ba2YAg5S6,mp-1104423,1.3657999999999997,4.2642698,0.0,"{56: 2, 39: 1, 47: 5, 16: 6}","[16, 39, 47, 56]",166391475562,Ba2Y1Ag5S6
Ba4InAgS6,mp-1195568,1.6864,2.82942686,0.0,"{56: 4, 49: 1, 47: 1, 16: 6}","[16, 47, 49, 56]",166471491564,Ba4In1Ag1S6
Ba3UAgS6,mp-1190457,0.6431,3.70971314,0.0,"{56: 3, 92: 1, 47: 1, 16: 6}","[16, 47, 56, 92]",166471563921,Ba3U1Ag1S6
Ba2LaAg5S6,mp-553874,1.4647000000000006,3.26453311,0.0,"{56: 2, 57: 1, 47: 5, 16: 6}","[16, 47, 56, 57]",166475562571,Ba2La1Ag5S6
BaH6(C2O5)2,mp-1202302,3.1456,-0.57179402,0.06948257190475537,"{56: 1, 1: 6, 6: 4, 8: 10}","[1, 6, 8, 56]",1664810561,Ba1H6C4O10
BaH6C4O7,mp-723120,2.6483,0.60642875,0.15704709187500576,"{56: 1, 1: 6, 6: 4, 8: 7}","[1, 6, 8, 56]",166487561,Ba1H6C4O7
Ba3SmInS6,mp-1191360,2.027,2.76530986,0.0,"{56: 3, 62: 1, 49: 1, 16: 6}","[16, 49, 56, 62]",166491563621,Ba3Sm1In1S6
Ba3GdInS6,mp-1190744,1.9502000000000002,2.749357,0.01183320062500215,"{56: 3, 64: 1, 49: 1, 16: 6}","[16, 49, 56, 64]",166491563641,Ba3Gd1In1S6
BaCe(SnS3)2,mp-1196315,0.0,5.77581242,0.0068769466805544965,"{56: 1, 58: 1, 50: 2, 16: 6}","[16, 50, 56, 58]",166502561581,Ba1Ce1Sn2S6
BaPr(SnS3)2,mp-1194578,0.37290000000000045,4.68399861,0.0,"{56: 1, 59: 1, 50: 2, 16: 6}","[16, 50, 56, 59]",166502561591,Ba1Pr1Sn2S6
BaNd(SnS3)2,mp-1195589,0.3689,4.70250353,0.0,"{56: 1, 60: 1, 50: 2, 16: 6}","[16, 50, 56, 60]",166502561601,Ba1Nd1Sn2S6
BaLa(BiS3)2,mp-555699,0.6691000000000003,5.02093314,0.0,"{56: 1, 57: 1, 83: 2, 16: 6}","[16, 56, 57, 83]",166561571832,Ba1La1Bi2S6
Ba2ThS6,mp-1189897,1.3091000000000004,3.34037603,0.0,"{56: 2, 90: 1, 16: 6}","[16, 56, 90]",166562901,Ba2Th1S6
Ba2US6,mp-1190025,0.0,4.96853193,0.0,"{56: 2, 92: 1, 16: 6}","[16, 56, 92]",166562921,Ba2U1S6
BaCr4S7,mp-557882,0.030300000000000438,4.73920453,0.02341345774999848,"{56: 1, 24: 4, 16: 7}","[16, 24, 56]",167244561,Ba1Cr4S7
Cs2BaH6(NO6)2,mp-1202175,0.7271,0.46427322,0.8386851229865444,"{55: 2, 56: 1, 1: 6, 7: 2, 8: 12}","[1, 7, 8, 55, 56]",1672812552561,Cs2Ba1H6N2O12
Ba2YCu3S7,mp-1096848,0.0,3.6910322,0.12299460012820074,"{56: 2, 39: 1, 29: 3, 16: 7}","[16, 29, 39, 56]",167293391562,Ba2Y1Cu3S7
Ba4Ga2S7,mp-29301,2.6355000000000004,1.96006345,0.003458971538459643,"{56: 4, 31: 2, 16: 7}","[16, 31, 56]",167312564,Ba4Ga2S7
BaGa4S7,mp-4309,2.5800000000000005,2.06512571,0.0,"{56: 1, 31: 4, 16: 7}","[16, 31, 56]",167314561,Ba1Ga4S7
Ba3Zr2S7,mp-8570,0.8273999999999999,2.51562082,0.0,"{56: 3, 40: 2, 16: 7}","[16, 40, 56]",167402563,Ba3Zr2S7
Ba2Ag8S7,mp-1228614,0.9648999999999996,3.77395811,0.006784527058823819,"{56: 2, 47: 8, 16: 7}","[16, 47, 56]",167478562,Ba2Ag8S7
Ba5In4Te4S7,mp-1105201,1.1328999999999998,3.27994843,0.0025533372187505066,"{56: 5, 49: 4, 52: 4, 16: 7}","[16, 49, 52, 56]",167494524565,Ba5In4Te4S7
Ba3Sn2S7,mp-556291,2.1916999999999995,2.26253136,0.0,"{56: 3, 50: 2, 16: 7}","[16, 50, 56]",167502563,Ba3Sn2S7
Ba3Sb2S7,mp-1195624,1.9021999999999997,4.20080223,0.0,"{56: 3, 51: 2, 16: 7}","[16, 51, 56]",167512563,Ba3Sb2S7
BaH6Cl2O11,mp-23944,5.297000000000001,-0.71158746,0.01362864187500179,"{56: 1, 1: 6, 17: 2, 8: 11}","[1, 8, 17, 56]",16811172561,Ba1H6Cl2O11
BaNaP3(HO2)6,mp-695982,5.144299999999999,-0.62353189,0.039096871467394934,"{56: 1, 11: 1, 15: 3, 1: 6, 8: 12}","[1, 8, 11, 15, 56]",16812111153561,Ba1Na1P3H6O12
Ba2P4H6O13,mp-1196723,0.20309999999999995,-0.62005271,0.42278667439463824,"{56: 2, 15: 4, 1: 6, 8: 13}","[1, 8, 15, 56]",16813154562,Ba2P4H6O13
Ba2CaP4(H3O8)2,mp-758007,5.4657,0.65971602,0.0,"{56: 2, 20: 1, 15: 4, 1: 6, 8: 16}","[1, 8, 15, 20, 56]",16816154201562,Ba2Ca1P4H6O16
Ba2MnP4(H3O8)2,mp-1201808,4.523899999999999,1.3839642,0.0016992985344810307,"{56: 2, 25: 1, 15: 4, 1: 6, 8: 16}","[1, 8, 15, 25, 56]",16816154251562,Ba2Mn1P4H6O16
Ba2CdP4(H3O8)2,mp-1199629,4.4355,0.62770441,0.0,"{56: 2, 48: 1, 15: 4, 1: 6, 8: 16}","[1, 8, 15, 48, 56]",16816154481562,Ba2Cd1P4H6O16
Ba3In2P6(HO3)6,mp-1195167,4.755000000000001,0.74036152,0.0,"{56: 3, 49: 2, 15: 6, 1: 6, 8: 18}","[1, 8, 15, 49, 56]",16818156492563,Ba3In2P6H6O18
K4Ba(VS4)2,mp-558121,1.5514000000000001,0.950118,0.0,"{19: 4, 56: 1, 23: 2, 16: 8}","[16, 19, 23, 56]",168194232561,K4Ba1V2S8
Ba3V2P6(HO4)6,mp-758920,1.8232999999999997,2.33426122,0.022930250121946827,"{56: 3, 23: 2, 15: 6, 1: 6, 8: 24}","[1, 8, 15, 23, 56]",16824156232563,Ba3V2P6H6O24
Ba2CuAg3(SnS4)2,mp-1228525,0.8773999999999997,3.5015223,0.00940137135416741,"{56: 2, 29: 1, 47: 3, 50: 2, 16: 8}","[16, 29, 47, 50, 56]",168291473502562,Ba2Cu1Ag3Sn2S8
BaCu6(GeS4)2,mp-556714,1.0465999999999998,5.2698007,0.010002475281857492,"{56: 1, 29: 6, 32: 2, 16: 8}","[16, 29, 32, 56]",168296322561,Ba1Cu6Ge2S8
Ba5(GaS4)2,mp-28252,2.5327,2.18680968,0.0038241108333343377,"{56: 5, 31: 2, 16: 8}","[16, 31, 56]",168312565,Ba5Ga2S8
Ba4SnGe2(S4Br)2,mp-1228355,1.9955,1.89136332,0.00254035566175137,"{56: 4, 50: 1, 32: 2, 16: 8, 35: 2}","[16, 32, 35, 50, 56]",168322352501564,Ba4Sn1Ge2S8Br2
Ba4Ge2Pb(S4Br)2,mp-1228968,2.0766999999999998,3.73475126,0.0021268305147064126,"{56: 4, 32: 2, 82: 1, 16: 8, 35: 2}","[16, 32, 35, 56, 82]",168322352564821,Ba4Ge2Pb1S8Br2
Ba(Mo3S4)2,mp-5716,0.0,5.24265489,0.00046367158330706815,"{56: 1, 42: 6, 16: 8}","[16, 42, 56]",168426561,Ba1Mo6S8
Ba3Cd(SnS4)2,mp-1228659,2.0791000000000004,2.02952796,0.004462501964277443,"{56: 3, 48: 1, 50: 2, 16: 8}","[16, 48, 50, 56]",168481502563,Ba3Cd1Sn2S8
Ba5(SnS4)2,mp-1096883,0.8726000000000003,3.99953399,0.06497258599999878,"{56: 5, 50: 2, 16: 8}","[16, 50, 56]",168502565,Ba5Sn2S8
Ba3(TaS4)2,mp-29354,0.7451999999999996,3.16099158,0.0,"{56: 3, 73: 2, 16: 8}","[16, 56, 73]",168563732,Ba3Ta2S8
Ba2Zn(HO)6,mp-1182663,1.569,1.49352901,0.663519114499997,"{56: 2, 30: 1, 1: 6, 8: 6}","[1, 8, 30, 56]",1686301562,Ba2Zn1H6O6
BaSn(HO)6,mp-1195130,3.6559999999999997,3.98389995,0.0,"{56: 1, 50: 1, 1: 6, 8: 6}","[1, 8, 50, 56]",1686501561,Ba1Sn1H6O6
BaSi2(H3O4)2,mp-721586,5.0579,0.15292779,0.015077537647049333,"{56: 1, 14: 2, 1: 6, 8: 8}","[1, 8, 14, 56]",1688142561,Ba1Si2H6O8
Ba4UCr2S9,mp-21686,0.0,4.52355547,0.0,"{56: 4, 92: 1, 24: 2, 16: 9}","[16, 24, 56, 92]",169242564921,Ba4U1Cr2S9
Ba2(Mo2S3)3,mp-532273,0.0,5.22439181,0.0,"{56: 2, 42: 6, 16: 9}","[16, 42, 56]",169426562,Ba2Mo6S9
BaH6F8,mp-557810,7.5667,-3.9710524,0.0,"{56: 1, 1: 6, 9: 8}","[1, 9, 56]",1698561,Ba1H6F8
BaY3Cl11,mp-769003,3.4227999999999996,-1.37509581,0.07200984399999744,"{56: 1, 39: 3, 17: 11}","[17, 39, 56]",1711393561,Ba1Y3Cl11
Ba3Y2Cl12,mp-768979,4.1287,0.06075023,0.05750308088235023,"{56: 3, 39: 2, 17: 12}","[17, 39, 56]",1712392563,Ba3Y2Cl12
Ba3La2Cl12,mp-771914,3.7680000000000002,1.19298604,0.04136504676470576,"{56: 3, 57: 2, 17: 12}","[17, 56, 57]",1712563572,Ba3La2Cl12
Ba3GaSe4Cl,mp-1205081,2.6100000000000003,4.19221611,0.009616145277775878,"{56: 3, 31: 1, 34: 4, 17: 1}","[17, 31, 34, 56]",171311344563,Ba3Ga1Se4Cl1
Ba2AlH7,mp-698114,2.96,0.48761948,0.0,"{56: 2, 13: 1, 1: 7}","[1, 13, 56]",17131562,Ba2Al1H7
Ba3InSe4Cl,mp-1105941,2.4336,4.40609969,0.03472167874999865,"{56: 3, 49: 1, 34: 4, 17: 1}","[17, 34, 49, 56]",171344491563,Ba3In1Se4Cl1
BaBrCl,mp-1012551,4.4843,0.2659842,0.0,"{56: 1, 35: 1, 17: 1}","[17, 35, 56]",171351561,Ba1Br1Cl1
BaY4Cl14,mp-769070,4.0974,1.73470146,0.0902487638157865,"{56: 1, 39: 4, 17: 14}","[17, 39, 56]",1714394561,Ba1Y4Cl14
Ba6YCl15,mp-777883,4.6917,-1.75779099,0.09475998454545564,"{56: 6, 39: 1, 17: 15}","[17, 39, 56]",1715391566,Ba6Y1Cl15
BaAuCl,mp-1100397,1.9625999999999997,1.53674133,0.4263591916666658,"{56: 1, 79: 1, 17: 1}","[17, 56, 79]",171561791,Ba1Au1Cl1
Ba4Sm3Cl16,mp-1196927,0.0,4.79805304,0.0,"{56: 4, 62: 3, 17: 16}","[17, 56, 62]",1716564623,Ba4Sm3Cl16
Ba5La2Cl16,mp-772019,4.0033,-0.43058493,0.07190812217391418,"{56: 5, 57: 2, 17: 16}","[17, 56, 57]",1716565572,Ba5La2Cl16
Ba2Y5Cl19,mp-768958,4.2890999999999995,-1.96800243,0.08272338903845888,"{56: 2, 39: 5, 17: 19}","[17, 39, 56]",1719395562,Ba2Y5Cl19
Ba6Zn(InCl10)2,mp-569635,3.5151,0.21279155,0.0,"{56: 6, 30: 1, 49: 2, 17: 20}","[17, 30, 49, 56]",1720301492566,Ba6Zn1In2Cl20
KBa3Ga5(Se5Cl)2,mp-1223536,2.2138999999999998,1.29699154,0.017589029999998118,"{19: 1, 56: 3, 31: 5, 34: 10, 17: 2}","[17, 19, 31, 34, 56]",1721913153410563,K1Ba3Ga5Se10Cl2
RbBa3Ga5(Se5Cl)2,mp-1219635,2.2266,1.25505071,0.013665745714289912,"{37: 1, 56: 3, 31: 5, 34: 10, 17: 2}","[17, 31, 34, 37, 56]",1723153410371563,Rb1Ba3Ga5Se10Cl2
CsBa3Ga5(Se5Cl)2,mp-1225999,2.2057,1.29259554,0.014094311428570983,"{55: 1, 56: 3, 31: 5, 34: 10, 17: 2}","[17, 31, 34, 55, 56]",1723153410551563,Cs1Ba3Ga5Se10Cl2
Ba3(Br2Cl)2,mp-1228327,4.379700000000001,4.57819669,0.0035024266666665582,"{56: 3, 35: 4, 17: 2}","[17, 35, 56]",172354563,Ba3Br4Cl2
Ba2Y7Cl25,mp-769023,4.1376,-2.30875497,0.09227461279411564,"{56: 2, 39: 7, 17: 25}","[17, 39, 56]",1725397562,Ba2Y7Cl25
BaCl2,mp-568662,5.4291,-0.48196815,0.0,"{56: 1, 17: 2}","[17, 56]",172561,Ba1Cl2
Ba9La5Cl33,mp-781880,3.4450000000000003,1.2258073,0.01004505563829916,"{56: 9, 57: 5, 17: 33}","[17, 56, 57]",1733569575,Ba9La5Cl33
Ba8Eu7Cl34,mp-1198571,0.0,0.70546049,0.0,"{56: 8, 63: 7, 17: 34}","[17, 56, 63]",1734568637,Ba8Eu7Cl34
Ba9Sm6Cl34,mp-567646,0.0,4.94768926,0.0,"{56: 9, 62: 6, 17: 34}","[17, 56, 62]",1734569626,Ba9Sm6Cl34
BaZnCl4,mp-23373,4.6302,-0.90192689,0.0,"{56: 1, 30: 1, 17: 4}","[17, 30, 56]",174301561,Ba1Zn1Cl4
Rb2BaCl4,mp-1219789,5.0665000000000004,4.23122954,0.02557406071428492,"{37: 2, 56: 1, 17: 4}","[17, 37, 56]",174372561,Rb2Ba1Cl4
BaPdCl4,mp-30102,1.2233999999999998,0.88777066,0.019150790833331044,"{56: 1, 46: 1, 17: 4}","[17, 46, 56]",174461561,Ba1Pd1Cl4
Cs2BaCl4,mp-1229192,4.9334,-0.54374228,0.04436443928571432,"{55: 2, 56: 1, 17: 4}","[17, 55, 56]",174552561,Cs2Ba1Cl4
Ba4GaB10H7O24,mp-1195660,4.3361,1.12160736,0.0018229750543463652,"{56: 4, 31: 1, 5: 10, 1: 7, 8: 24}","[1, 5, 8, 31, 56]",17510824311564,Ba4Ga1B10H7O24
BaYCl5,mp-756564,3.8316999999999997,1.13744078,0.036428607142855896,"{56: 1, 39: 1, 17: 5}","[17, 39, 56]",175391561,Ba1Y1Cl5
BaLaCl5,mp-772035,3.2095,1.55315067,0.062151944107142754,"{56: 1, 57: 1, 17: 5}","[17, 56, 57]",175561571,Ba1La1Cl5
BaGdCl5,mp-29538,1.9979,1.06058477,0.009632759642847155,"{56: 1, 64: 1, 17: 5}","[17, 56, 64]",175561641,Ba1Gd1Cl5
BaReH7,mp-1188671,0.022400000000000198,2.44257759,0.1624946881745961,"{56: 1, 75: 1, 1: 7}","[1, 56, 75]",17561751,Ba1Re1H7
Ba2CoCl6,mp-29812,0.24599999999999977,1.82368322,0.03681088111111119,"{56: 2, 27: 1, 17: 6}","[17, 27, 56]",176271562,Ba2Co1Cl6
Ba2ScCl7,mp-573888,3.6349,0.14897038,0.025768803250000083,"{56: 2, 21: 1, 17: 7}","[17, 21, 56]",177211562,Ba2Sc1Cl7
Ba2YCl7,mp-768954,4.7082999999999995,0.27899576,0.009557260749999408,"{56: 2, 39: 1, 17: 7}","[17, 39, 56]",177391562,Ba2Y1Cl7
Ba2LaCl7,mp-772955,4.1371,0.51985533,0.01174533150000201,"{56: 2, 57: 1, 17: 7}","[17, 56, 57]",177562571,Ba2La1Cl7
Ba2EuCl7,mp-29550,0.0,0.06842481,0.007200404392856186,"{56: 2, 63: 1, 17: 7}","[17, 56, 63]",177562631,Ba2Eu1Cl7
Ba2GdCl7,mp-29084,1.5614999999999997,3.61327059,0.0,"{56: 2, 64: 1, 17: 7}","[17, 56, 64]",177562641,Ba2Gd1Cl7
Ba2TbCl7,mp-1214626,4.8529,0.2385203,0.002982307000002571,"{56: 2, 65: 1, 17: 7}","[17, 56, 65]",177562651,Ba2Tb1Cl7
Ba2DyCl7,mp-1214746,4.8933,0.21534596,0.0,"{56: 2, 66: 1, 17: 7}","[17, 56, 66]",177562661,Ba2Dy1Cl7
Ba2HoCl7,mp-1214684,4.9186,0.21271622,0.0,"{56: 2, 67: 1, 17: 7}","[17, 56, 67]",177562671,Ba2Ho1Cl7
Ba2ErCl7,mp-651358,4.9184,0.20917908,0.0,"{56: 2, 68: 1, 17: 7}","[17, 56, 68]",177562681,Ba2Er1Cl7
Ba2TmCl7,mp-1214625,4.9744,0.14780022,0.0010764545000023773,"{56: 2, 69: 1, 17: 7}","[17, 56, 69]",177562691,Ba2Tm1Cl7
BaY2Cl8,mp-769044,4.8824000000000005,-1.97796493,0.09576061636363598,"{56: 1, 39: 2, 17: 8}","[17, 39, 56]",178392561,Ba1Y2Cl8
BaLa2Cl8,mp-771973,3.4599,1.8081051,0.03602033272727212,"{56: 1, 57: 2, 17: 8}","[17, 56, 57]",178561572,Ba1La2Cl8
Ba2Tl(HO)7,mp-757586,2.4953000000000003,0.22102508,0.0,"{56: 2, 81: 1, 1: 7, 8: 7}","[1, 8, 56, 81]",1787562811,Ba2Tl1H7O7
Ba3LaCl9,mp-771948,3.6816,0.21218196,0.018787880384617317,"{56: 3, 57: 1, 17: 9}","[17, 56, 57]",179563571,Ba3La1Cl9
BaMg2FeH8,mp-643264,1.4470999999999998,1.85383462,0.0,"{56: 1, 12: 2, 26: 1, 1: 8}","[1, 12, 26, 56]",18122261561,Ba1Mg2Fe1H8
BaMg2H8Ru,mp-643451,1.9106999999999998,1.38522096,0.0,"{56: 1, 12: 2, 1: 8, 44: 1}","[1, 12, 44, 56]",18122441561,Ba1Mg2H8Ru1
BaMg2H8Os,mp-643439,2.1357,1.37161115,0.0,"{56: 1, 12: 2, 1: 8, 76: 1}","[1, 12, 56, 76]",18122561761,Ba1Mg2H8Os1
BaH8PtC4(NO)4,mp-720842,1.835,0.249814,0.14917934062501104,"{56: 1, 1: 8, 78: 1, 6: 4, 7: 4, 8: 4}","[1, 6, 7, 8, 56, 78]",18647484561781,Ba1H8Pt1C4N4O4
BaH8C6(N3O4)2,mp-695996,4.5878,-0.42463129,0.013284448333341636,"{56: 1, 1: 8, 6: 6, 7: 6, 8: 8}","[1, 6, 7, 8, 56]",18667688561,Ba1H8C6N6O8
BaH8(IO6)2,mp-1204016,1.9917999999999998,2.70530583,0.022619341956517047,"{56: 1, 1: 8, 53: 2, 8: 12}","[1, 8, 53, 56]",18812532561,Ba1H8I2O12
BaRe2(H2O3)4,mp-740752,3.9972000000000003,-1.84944768,0.011698152608704326,"{56: 1, 75: 2, 1: 8, 8: 12}","[1, 8, 56, 75]",18812561752,Ba1Re2H8O12
BaV2P2(H4O7)2,mp-1182388,2.4038,2.62266923,0.14419147013889422,"{56: 1, 23: 2, 15: 2, 1: 8, 8: 14}","[1, 8, 15, 23, 56]",18814152232561,Ba1V2P2H8O14
BaH8O5,mp-28587,4.8099,-1.0227239,0.0,"{56: 1, 1: 8, 8: 5}","[1, 8, 56]",1885561,Ba1H8O5
Ba2H8PtO8,mp-1200998,2.4355,1.09770555,0.0,"{56: 2, 1: 8, 78: 1, 8: 8}","[1, 8, 56, 78]",1888562781,Ba2H8Pt1O8
KBa4(FeAs)10,mp-1223626,0.0,4.54964983,0.02144701480000144,"{19: 1, 56: 4, 26: 10, 33: 10}","[19, 26, 33, 56]",19126103310564,K1Ba4Fe10As10
KBa(FeAs)4,mp-1223517,0.0,4.21185628,0.013251364499999418,"{19: 1, 56: 1, 26: 4, 33: 4}","[19, 26, 33, 56]",191264334561,K1Ba1Fe4As4
KBa(Fe2Se3)2,mp-1223659,0.0,2.57091816,0.047918872361111475,"{19: 1, 56: 1, 26: 4, 34: 6}","[19, 26, 34, 56]",191264346561,K1Ba1Fe4Se6
KBa2(FeAs)6,mp-1223567,0.0,4.41151294,0.009021209999998447,"{19: 1, 56: 2, 26: 6, 33: 6}","[19, 26, 33, 56]",191266336562,K1Ba2Fe6As6
KBa3(FeAs)8,mp-1223625,0.0,4.41979588,0.007515535249999594,"{19: 1, 56: 3, 26: 8, 33: 8}","[19, 26, 33, 56]",191268338563,K1Ba3Fe8As8
KBaAsSe3,mp-1191826,1.6299,1.46559478,0.0,"{19: 1, 56: 1, 33: 1, 34: 3}","[19, 33, 34, 56]",191331343561,K1Ba1As1Se3
KBa2As5,mp-675063,0.25829999999999975,3.12436799,0.00236794125000106,"{19: 1, 56: 2, 33: 5}","[19, 33, 56]",191335562,K1Ba2As5
KBaSbSe3,mp-1190698,1.7736,1.91526022,0.006908921249998201,"{19: 1, 56: 1, 51: 1, 34: 3}","[19, 34, 51, 56]",191343511561,K1Ba1Sb1Se3
KBa(AgTe2)2,mp-1223499,0.0,3.5561678,0.0,"{19: 1, 56: 1, 47: 2, 52: 4}","[19, 47, 52, 56]",191472524561,K1Ba1Ag2Te4
KBa2Cd2Sb3,mp-1205075,0.2084999999999999,3.02950481,0.0,"{19: 1, 56: 2, 48: 2, 51: 3}","[19, 48, 51, 56]",191482513562,K1Ba2Cd2Sb3
KBaSn,mp-962073,0.0,2.32431647,0.5042401059166668,"{19: 1, 56: 1, 50: 1}","[19, 50, 56]",191501561,K1Ba1Sn1
KBaSb,mp-1100403,0.9849999999999999,3.10923496,0.30541850677777527,"{19: 1, 56: 1, 51: 1}","[19, 51, 56]",191511561,K1Ba1Sb1
KBa2I5,mp-1211784,3.7157999999999998,0.82265454,0.0,"{19: 1, 56: 2, 53: 5}","[19, 53, 56]",191535562,K1Ba2I5
KBaAu2,mp-1096579,0.16469999999999985,-1.89088455,0.9408831056874991,"{19: 1, 56: 1, 79: 2}","[19, 56, 79]",191561792,K1Ba1Au2
KBaHg2,mp-1097243,0.16070000000000007,-1.86422896,0.9547695293749996,"{19: 1, 56: 1, 80: 2}","[19, 56, 80]",191561802,K1Ba1Hg2
KBa2Re,mp-631513,0.0,2.6636758,1.2769295550625,"{19: 1, 56: 2, 75: 1}","[19, 56, 75]",191562751,K1Ba2Re1
KBa3,mp-1185155,0.0,1.1181318,0.0967992269375002,"{19: 1, 56: 3}","[19, 56]",191563,K1Ba3
K2Ba(FeAs)6,mp-1223766,0.0,4.03611901,0.007789859666668342,"{19: 2, 56: 1, 26: 6, 33: 6}","[19, 26, 33, 56]",192266336561,K2Ba1Fe6As6
K2BaAs5,mp-1211972,0.0,2.3483075,0.017018158287760432,"{19: 2, 56: 1, 33: 5}","[19, 33, 56]",192335561,K2Ba1As5
K2BaCdSb2,mp-863761,0.15000000000000036,2.50513889,0.0,"{19: 2, 56: 1, 48: 1, 51: 2}","[19, 48, 51, 56]",192481512561,K2Ba1Cd1Sb2
K2BaSnTe4,mp-1223667,0.8921000000000001,2.69432539,0.008639865624999743,"{19: 2, 56: 1, 50: 1, 52: 4}","[19, 50, 52, 56]",192501524561,K2Ba1Sn1Te4
K2Ba3Sb4,mp-531968,0.34240000000000004,2.58548632,0.11597435783333321,"{19: 2, 56: 3, 51: 4}","[19, 51, 56]",192514563,K2Ba3Sb4
K3Ba,mp-1184864,0.0,0.23091413,0.13066643706250036,"{19: 3, 56: 1}","[19, 56]",193561,K3Ba1
K4Ba2SnAs4,mp-1224063,0.49859999999999993,2.11530942,0.0,"{19: 4, 56: 2, 50: 1, 33: 4}","[19, 33, 50, 56]",194334501562,K4Ba2Sn1As4
K4Ba2SnSb4,mp-1224100,0.3921999999999999,2.65334797,0.0,"{19: 4, 56: 2, 50: 1, 51: 4}","[19, 50, 51, 56]",194501514562,K4Ba2Sn1Sb4
K4Ba2SnBi4,mp-1224198,0.09889999999999999,2.08916796,0.0,"{19: 4, 56: 2, 50: 1, 83: 4}","[19, 50, 56, 83]",194501562834,K4Ba2Sn1Bi4
K5BaNbAs4,mp-1223953,1.1094,1.07413352,0.0,"{19: 5, 56: 1, 41: 1, 33: 4}","[19, 33, 41, 56]",195334411561,K5Ba1Nb1As4
BaReH9,mp-28911,3.8349,-1.49672966,0.0,"{56: 1, 75: 1, 1: 9}","[1, 56, 75]",19561751,Ba1Re1H9
BaH9IO5,mp-766855,3.5202,-0.17182184,0.00951170390624867,"{56: 1, 1: 9, 53: 1, 8: 5}","[1, 8, 53, 56]",1985531561,Ba1H9I1O5
Ba6Ca11I34,mp-766336,3.4093,1.23348221,0.09437782029411812,"{56: 6, 20: 11, 53: 34}","[20, 53, 56]",20115334566,Ba6Ca11I34
BaCaGe,mp-16252,0.1812999999999998,2.93059898,0.0,"{56: 1, 20: 1, 32: 1}","[20, 32, 56]",201321561,Ba1Ca1Ge1
BaCaRu2,mp-631512,0.0,4.71593943,0.8395265075000005,"{56: 1, 20: 1, 44: 2}","[20, 44, 56]",201442561,Ba1Ca1Ru2
BaCaCd2,mp-1093940,0.0,-1.87230105,1.4126051000000004,"{56: 1, 20: 1, 48: 2}","[20, 48, 56]",201482561,Ba1Ca1Cd2
BaCaIn2,mp-1096623,0.0,-2.15306539,1.6734343231249997,"{56: 1, 20: 1, 49: 2}","[20, 49, 56]",201492561,Ba1Ca1In2
BaCaSn,mp-11265,0.24370000000000003,3.29969359,0.0,"{56: 1, 20: 1, 50: 1}","[20, 50, 56]",201501561,Ba1Ca1Sn1
BaCaSn3,mp-583645,0.0,5.02772254,0.001525398249998755,"{56: 1, 20: 1, 50: 3}","[20, 50, 56]",201503561,Ba1Ca1Sn3