formula,material_id,band_gap,efermi,energy_above_hull,comp_atoms,sorted_keys_comp_atoms,comp_number,new_formula
Ba4Zr(RuO4)3,mp-6716,0.0,3.91244893,0.0,"{56: 4, 40: 1, 44: 3, 8: 12}","[8, 40, 44, 56]",812401443564,Ba4Zr1Ru3O12
BaZr4SnO12,mp-1521719,0.0,1.07227482,0.2587043094444521,"{56: 1, 40: 4, 50: 1, 8: 12}","[8, 40, 50, 56]",812404501561,Ba1Zr4Sn1O12
BaNdZr4O12,mp-1521367,0.0,0.42150699,0.19961935868055747,"{56: 1, 60: 1, 40: 4, 8: 12}","[8, 40, 56, 60]",812404561601,Ba1Nd1Zr4O12
BaEuZr4O12,mp-1520926,0.0,0.37655382,0.26747495243054686,"{56: 1, 63: 1, 40: 4, 8: 12}","[8, 40, 56, 63]",812404561631,Ba1Eu1Zr4O12
Ba4Nb2WO12,mp-1228131,2.7361000000000004,1.90596596,0.0,"{56: 4, 41: 2, 74: 1, 8: 12}","[8, 41, 56, 74]",812412564741,Ba4Nb2W1O12
Ba3LaNb3O12,mp-1228150,2.6586,2.72505285,0.06101193134212224,"{56: 3, 57: 1, 41: 3, 8: 12}","[8, 41, 56, 57]",812413563571,Ba3La1Nb3O12
Ba4Nb3O12,mp-774719,0.0,1.47070846,0.053084863009868144,"{56: 4, 41: 3, 8: 12}","[8, 41, 56]",812413564,Ba4Nb3O12
BaNdNb4O12,mp-1518054,0.0,3.51829066,0.08593365941807285,"{56: 1, 60: 1, 41: 4, 8: 12}","[8, 41, 56, 60]",812414561601,Ba1Nd1Nb4O12
Ba4La2SbRuO12,mp-1228220,0.7580999999999998,4.83709875,0.0005916509999996933,"{56: 4, 57: 2, 51: 1, 44: 1, 8: 12}","[8, 44, 51, 56, 57]",812441511564572,Ba4La2Sb1Ru1O12
Ba4La(RuO4)3,mp-1215053,0.0,4.05822427,0.00404547495833274,"{56: 4, 57: 1, 44: 3, 8: 12}","[8, 44, 56, 57]",812443564571,Ba4La1Ru3O12
Ba4Ce(RuO4)3,mp-1214942,0.0,4.11763665,0.0,"{56: 4, 58: 1, 44: 3, 8: 12}","[8, 44, 56, 58]",812443564581,Ba4Ce1Ru3O12
Ba4Pr(RuO4)3,mp-915377,0.0,3.66125154,0.0009007604583342044,"{56: 4, 59: 1, 44: 3, 8: 12}","[8, 44, 56, 59]",812443564591,Ba4Pr1Ru3O12
Ba4Nd(RuO4)3,mp-1214781,0.0,3.62183916,0.00400836462498777,"{56: 4, 60: 1, 44: 3, 8: 12}","[8, 44, 56, 60]",812443564601,Ba4Nd1Ru3O12
Ba4Sm(RuO4)3,mp-1196247,0.0,3.64249101,0.003356837458320605,"{56: 4, 62: 1, 44: 3, 8: 12}","[8, 44, 56, 62]",812443564621,Ba4Sm1Ru3O12
Ba4Tb(RuO4)3,mp-6049,0.0,3.62935765,0.0029061193750017367,"{56: 4, 65: 1, 44: 3, 8: 12}","[8, 44, 56, 65]",812443564651,Ba4Tb1Ru3O12
Ba4Ho(RuO4)3,mp-560380,0.0,3.62724068,0.0001587211249987064,"{56: 4, 67: 1, 44: 3, 8: 12}","[8, 44, 56, 67]",812443564671,Ba4Ho1Ru3O12
Ba4Er(RuO4)3,mp-984788,0.0,3.63155559,0.0003025506249993981,"{56: 4, 68: 1, 44: 3, 8: 12}","[8, 44, 56, 68]",812443564681,Ba4Er1Ru3O12
Ba(RuO2)6,mp-561944,0.0,4.41755171,0.018272039473677282,"{56: 1, 44: 6, 8: 12}","[8, 44, 56]",812446561,Ba1Ru6O12
BaPd(IO3)4,mp-1106270,1.9057999999999997,2.36540115,0.0,"{56: 1, 46: 1, 53: 4, 8: 12}","[8, 46, 53, 56]",812461534561,Ba1Pd1I4O12
Ba3LaIn(WO6)2,mp-684983,3.0435,3.55333238,0.06643964743421016,"{56: 3, 57: 1, 49: 1, 74: 2, 8: 12}","[8, 49, 56, 57, 74]",812491563571742,Ba3La1In1W2O12
Ba5In5O12,mp-753422,0.0,4.83676348,0.06784140065656441,"{56: 5, 49: 5, 8: 12}","[8, 49, 56]",812495565,Ba5In5O12
BaHf4SnO12,mp-1518088,0.0,1.34311716,0.25172071388888817,"{56: 1, 72: 4, 50: 1, 8: 12}","[8, 50, 56, 72]",812501561724,Ba1Hf4Sn1O12
BaEu(SnO3)4,mp-1518427,0.0,1.44941444,0.3989348699305548,"{56: 1, 63: 1, 50: 4, 8: 12}","[8, 50, 56, 63]",812504561631,Ba1Eu1Sn4O12
Ba2Mn2As2O,mp-550454,0.0,3.3590073,0.013755305714284738,"{56: 2, 25: 2, 33: 2, 8: 1}","[8, 25, 33, 56]",81252332562,Ba2Mn2As2O1
Ba2Mn2Sb2O,mp-19213,0.0,3.67453974,0.0,"{56: 2, 25: 2, 51: 2, 8: 1}","[8, 25, 51, 56]",81252512562,Ba2Mn2Sb2O1
Ba2Mn2Bi2O,mp-556391,0.0,3.25185997,0.04717709418309113,"{56: 2, 25: 2, 83: 2, 8: 1}","[8, 25, 56, 83]",81252562832,Ba2Mn2Bi2O1
Ba5(IO6)2,mp-1194622,2.4411,2.36691638,0.0,"{56: 5, 53: 2, 8: 12}","[8, 53, 56]",812532565,Ba5I2O12
BaCe4EuO12,mp-1521988,0.0,1.30733772,0.34223248690971886,"{56: 1, 58: 4, 63: 1, 8: 12}","[8, 56, 58, 63]",812561584631,Ba1Ce4Eu1O12
BaNdHf4O12,mp-1520155,0.0,0.68420347,0.18476439423610636,"{56: 1, 60: 1, 72: 4, 8: 12}","[8, 56, 60, 72]",812561601724,Ba1Nd1Hf4O12
BaTb4SmO12,mp-1518589,0.0,-0.48473669,0.36014169694444487,"{56: 1, 65: 4, 62: 1, 8: 12}","[8, 56, 62, 65]",812561621654,Ba1Tb4Sm1O12
BaSmHf4O12,mp-1519335,0.0,0.67564651,0.19056390506944787,"{56: 1, 62: 1, 72: 4, 8: 12}","[8, 56, 62, 72]",812561621724,Ba1Sm1Hf4O12
BaEu(WO3)4,mp-1516333,0.0,3.11245317,0.42780869906250096,"{56: 1, 63: 1, 74: 4, 8: 12}","[8, 56, 63, 74]",812561631744,Ba1Eu1W4O12
BaTb4DyO12,mp-1520558,0.0,-0.43243912,0.36075602218750014,"{56: 1, 65: 4, 66: 1, 8: 12}","[8, 56, 65, 66]",812561654661,Ba1Tb4Dy1O12
Ba(ReO6)2,mp-1196150,0.5435999999999999,-1.52479652,0.29925354116665925,"{56: 1, 75: 2, 8: 12}","[8, 56, 75]",812561752,Ba1Re2O12
Ba3LaTa3O12,mp-1228180,3.181,6.0528474,0.05241202199999506,"{56: 3, 57: 1, 73: 3, 8: 12}","[8, 56, 57, 73]",812563571733,Ba3La1Ta3O12
Ba4Ce2BiO12,mp-1228252,0.0,1.57473561,0.13003124438597702,"{56: 4, 58: 2, 83: 1, 8: 12}","[8, 56, 58, 83]",812564582831,Ba4Ce2Bi1O12
Ba4Pr3BiO12,mp-1228380,0.0,1.41306999,0.06216238799999996,"{56: 4, 59: 3, 83: 1, 8: 12}","[8, 56, 59, 83]",812564593831,Ba4Pr3Bi1O12
Ba4Nd(IrO4)3,mp-1214660,0.0,3.69929671,0.0,"{56: 4, 60: 1, 77: 3, 8: 12}","[8, 56, 60, 77]",812564601773,Ba4Nd1Ir3O12
Ba4Bi(IrO4)3,mp-1199190,0.0,4.06290662,0.0,"{56: 4, 83: 1, 77: 3, 8: 12}","[8, 56, 77, 83]",812564773831,Ba4Bi1Ir3O12
Ba4Bi3PbO12,mp-1228338,0.0,4.03271837,0.003386451000022106,"{56: 4, 83: 3, 82: 1, 8: 12}","[8, 56, 82, 83]",812564821833,Ba4Bi3Pb1O12
Ba4Bi(PbO4)3,mp-1228450,0.0,3.86684145,0.0,"{56: 4, 83: 1, 82: 3, 8: 12}","[8, 56, 82, 83]",812564823831,Ba4Bi1Pb3O12
Ba9(AuO6)2,mp-28788,1.8826999999999998,3.8018374,0.0,"{56: 9, 79: 2, 8: 12}","[8, 56, 79]",812569792,Ba9Au2O12
Ba3Fe2P4(O6F5)2,mp-1198352,0.7347,0.87027925,0.17407797120071322,"{56: 3, 26: 2, 15: 4, 8: 12, 9: 10}","[8, 9, 15, 26, 56]",812910154262563,Ba3Fe2P4O12F10
Ba2La3Si3O12F,mp-686674,4.109400000000001,3.23047672,0.0,"{56: 2, 57: 3, 14: 3, 8: 12, 9: 1}","[8, 9, 14, 56, 57]",81291143562573,Ba2La3Si3O12F1
Ba2Ce3Si3O12F,mp-42307,0.2032000000000007,6.35224284,0.0,"{56: 2, 58: 3, 14: 3, 8: 12, 9: 1}","[8, 9, 14, 56, 58]",81291143562583,Ba2Ce3Si3O12F1
Ba5P3O12F,mp-1228113,5.064,5.94100074,0.0,"{56: 5, 15: 3, 8: 12, 9: 1}","[8, 9, 15, 56]",81291153565,Ba5P3O12F1
Ba5Cr3O12F,mp-1214531,1.0051,1.53781331,0.0,"{56: 5, 24: 3, 8: 12, 9: 1}","[8, 9, 24, 56]",81291243565,Ba5Cr3O12F1
Ba5Mn3O12F,mp-1214575,1.8397000000000001,0.71307486,0.0,"{56: 5, 25: 3, 8: 12, 9: 1}","[8, 9, 25, 56]",81291253565,Ba5Mn3O12F1
BaCuSeO,mp-1096855,0.0,1.83098473,0.21414375749999426,"{56: 1, 29: 1, 34: 1, 8: 1}","[8, 29, 34, 56]",81291341561,Ba1Cu1Se1O1
Ba5Al2In2IrClO13,mp-559534,0.0,3.47542046,0.0,"{56: 5, 13: 2, 49: 2, 77: 1, 17: 1, 8: 13}","[8, 13, 17, 49, 56, 77]",813132171492565771,Ba5Al2In2Ir1Cl1O13
Ba5Y2ZrAl2O13,mp-1214494,2.6225000000000005,4.43886538,0.008526926277181879,"{56: 5, 39: 2, 40: 1, 13: 2, 8: 13}","[8, 13, 39, 40, 56]",813132392401565,Ba5Y2Zr1Al2O13
Ba5Gd2ZrAl2O13,mp-1214525,2.4626,4.33605929,0.017714718586967493,"{56: 5, 64: 2, 40: 1, 13: 2, 8: 13}","[8, 13, 40, 56, 64]",813132401565642,Ba5Gd2Zr1Al2O13
Ba5Ho2ZrAl2O13,mp-1214508,2.5553,1.83177971,0.0,"{56: 5, 67: 2, 40: 1, 13: 2, 8: 13}","[8, 13, 40, 56, 67]",813132401565672,Ba5Ho2Zr1Al2O13
Ba5Er2ZrAl2O13,mp-558566,2.5861,1.97100894,0.0,"{56: 5, 68: 2, 40: 1, 13: 2, 8: 13}","[8, 13, 40, 56, 68]",813132401565682,Ba5Er2Zr1Al2O13
Ba5Tm2ZrAl2O13,mp-1214492,2.4930999999999996,1.85359975,0.0,"{56: 5, 69: 2, 40: 1, 13: 2, 8: 13}","[8, 13, 40, 56, 69]",813132401565692,Ba5Tm2Zr1Al2O13
Ba5Lu2ZrAl2O13,mp-1214534,2.5528999999999997,1.99959947,0.0,"{56: 5, 71: 2, 40: 1, 13: 2, 8: 13}","[8, 13, 40, 56, 71]",813132401565712,Ba5Lu2Zr1Al2O13
Ba2TiMn2Si2PO13,mp-1214713,0.0,2.58599349,0.023586818443577684,"{56: 2, 22: 1, 25: 2, 14: 2, 15: 1, 8: 13}","[8, 14, 15, 22, 25, 56]",813142151221252562,Ba2Ti1Mn2Si2P1O13
Ba2Nd2Si4O13,mp-561462,5.046200000000001,2.28117273,0.0,"{56: 2, 60: 2, 14: 4, 8: 13}","[8, 14, 56, 60]",813144562602,Ba2Nd2Si4O13
Ba2Gd2Si4O13,mp-1202971,0.12249999999999961,3.00207531,0.0,"{56: 2, 64: 2, 14: 4, 8: 13}","[8, 14, 56, 64]",813144562642,Ba2Gd2Si4O13
Ba3Si5O13,mp-29223,4.514799999999999,1.19139424,0.0026437655952129546,"{56: 3, 14: 5, 8: 13}","[8, 14, 56]",813145563,Ba3Si5O13
BaCr2PO13,mp-1182527,0.3964000000000001,-1.4585956,0.5070259143198541,"{56: 1, 24: 2, 15: 1, 8: 13}","[8, 15, 24, 56]",813151242561,Ba1Cr2P1O13
Ba2Cu2Te2P2O13,mp-1194948,0.0,3.76899732,0.017869941904760545,"{56: 2, 29: 2, 52: 2, 15: 2, 8: 13}","[8, 15, 29, 52, 56]",813152292522562,Ba2Cu2Te2P2O13
Ba5P3O13,mp-1204451,0.20909999999999984,1.21002416,0.020075142619043973,"{56: 5, 15: 3, 8: 13}","[8, 15, 56]",813153565,Ba5P3O13
Ba3P4O13,mp-30088,5.1231,0.88769049,0.00036206612499789514,"{56: 3, 15: 4, 8: 13}","[8, 15, 56]",813154563,Ba3P4O13
BaS4O13,mp-1019557,4.6756,-0.4501127,0.0,"{56: 1, 16: 4, 8: 13}","[8, 16, 56]",813164561,Ba1S4O13
Ba5Co4PtClO13,mp-1228254,0.0,2.6374089,0.033420443906250874,"{56: 5, 27: 4, 78: 1, 17: 1, 8: 13}","[8, 17, 27, 56, 78]",813171274565781,Ba5Co4Pt1Cl1O13
Ba5Co5ClO13,mp-23580,0.0,2.62734977,0.04299409581595892,"{56: 5, 27: 5, 17: 1, 8: 13}","[8, 17, 27, 56]",813171275565,Ba5Co5Cl1O13
Ba3CaLa2Cu6O13,mp-1228590,0.0,4.19374999,0.02878520630000203,"{56: 3, 20: 1, 57: 2, 29: 6, 8: 13}","[8, 20, 29, 56, 57]",813201296563572,Ba3Ca1La2Cu6O13
Ba2Ca4TlCu5O13,mp-1229126,0.0,3.47805977,0.024994398833323217,"{56: 2, 20: 4, 81: 1, 29: 5, 8: 13}","[8, 20, 29, 56, 81]",813204295562811,Ba2Ca4Tl1Cu5O13
Ba3GeO,mp-17833,0.3565999999999998,3.11752753,0.0,"{56: 3, 32: 1, 8: 1}","[8, 32, 56]",81321563,Ba3Ge1O1
Ba2Ti4Cr2O13,mp-1228511,1.8433000000000002,2.74599708,0.0072595116666587245,"{56: 2, 22: 4, 24: 2, 8: 13}","[8, 22, 24, 56]",813224242562,Ba2Ti4Cr2O13
Ba2Ti4Fe2O13,mp-1214656,1.0861999999999998,2.16647272,0.1999648814285795,"{56: 2, 22: 4, 26: 2, 8: 13}","[8, 22, 26, 56]",813224262562,Ba2Ti4Fe2O13
Ba2Ti4O13,mp-1228517,0.0,0.53058484,0.2921669056579388,"{56: 2, 22: 4, 8: 13}","[8, 22, 56]",813224562,Ba2Ti4O13
BaTi6O13,mp-504457,2.6401000000000003,2.49199669,0.013269258593750166,"{56: 1, 22: 6, 8: 13}","[8, 22, 56]",813226561,Ba1Ti6O13
Ba2Ti6O13,mp-7733,0.0,5.04404939,0.0,"{56: 2, 22: 6, 8: 13}","[8, 22, 56]",813226562,Ba2Ti6O13
Ba3V4O13,mp-505392,2.8034,-0.30941429,0.0,"{56: 3, 23: 4, 8: 13}","[8, 23, 56]",813234563,Ba3V4O13
Ba5Cr3O13,mp-1200170,0.6992999999999998,2.23270667,0.0,"{56: 5, 24: 3, 8: 13}","[8, 24, 56]",813243565,Ba5Cr3O13
Ba2Fe5BiPb2O13,mp-1228606,1.4128000000000007,5.6956939,0.06478991495925523,"{56: 2, 26: 5, 83: 1, 82: 2, 8: 13}","[8, 26, 56, 82, 83]",813265562822831,Ba2Fe5Bi1Pb2O13
Ba6Cu3Hg3O13,mp-1228333,0.0,1.6419143,0.06960634285000111,"{56: 6, 29: 3, 80: 3, 8: 13}","[8, 29, 56, 80]",813293566803,Ba6Cu3Hg3O13
Ba4Y2Cu6O13,mp-20897,0.0,3.22327665,0.022374550370000357,"{56: 4, 39: 2, 29: 6, 8: 13}","[8, 29, 39, 56]",813296392564,Ba4Y2Cu6O13
Ba4La2Cu6O13,mp-1228239,0.0,3.97572776,0.007884074033323252,"{56: 4, 57: 2, 29: 6, 8: 13}","[8, 29, 56, 57]",813296564572,Ba4La2Cu6O13
Ba4Pr2Cu6O13,mp-1228176,0.0,3.26941724,0.015430269049993228,"{56: 4, 59: 2, 29: 6, 8: 13}","[8, 29, 56, 59]",813296564592,Ba4Pr2Cu6O13
Ba4Nd2Cu6O13,mp-1228184,0.0,3.21612831,0.009856494766673052,"{56: 4, 60: 2, 29: 6, 8: 13}","[8, 29, 56, 60]",813296564602,Ba4Nd2Cu6O13
Ba4Eu2Cu6O13,mp-1228334,0.0,3.03618385,0.05640384639999674,"{56: 4, 63: 2, 29: 6, 8: 13}","[8, 29, 56, 63]",813296564632,Ba4Eu2Cu6O13
Ba4Tm2Cu6O13,mp-1228146,0.0,3.28730086,0.028615414779991966,"{56: 4, 69: 2, 29: 6, 8: 13}","[8, 29, 56, 69]",813296564692,Ba4Tm2Cu6O13
Ba2Y2Zn8O13,mp-1228317,1.6886,1.10884974,0.039284176083331346,"{56: 2, 39: 2, 30: 8, 8: 13}","[8, 30, 39, 56]",813308392562,Ba2Y2Zn8O13
Ba2Er2Zn8O13,mp-1228586,1.392,2.48260932,0.05298268333333134,"{56: 2, 68: 2, 30: 8, 8: 13}","[8, 30, 56, 68]",813308562682,Ba2Er2Zn8O13
Ba2Tm2Zn8O13,mp-1228595,1.6683,1.08294944,0.03971910583333127,"{56: 2, 69: 2, 30: 8, 8: 13}","[8, 30, 56, 69]",813308562692,Ba2Tm2Zn8O13
Ba4As2O,mp-8300,0.6692999999999998,2.3332773,0.0,"{56: 4, 33: 2, 8: 1}","[8, 33, 56]",81332564,Ba4As2O1
Ba3NbAs3O,mp-18177,1.0685,1.90420406,0.0,"{56: 3, 41: 1, 33: 3, 8: 1}","[8, 33, 41, 56]",81333411563,Ba3Nb1As3O1
Ba3TaAs3O,mp-18090,1.0819,2.03901313,0.0,"{56: 3, 73: 1, 33: 3, 8: 1}","[8, 33, 56, 73]",81333563731,Ba3Ta1As3O1
Ba4In6O13,mp-622930,0.4417,4.03625538,0.024142629565217177,"{56: 4, 49: 6, 8: 13}","[8, 49, 56]",813496564,Ba4In6O13
BaBr2O,mp-1188828,2.0687,0.66117877,0.34566480145833633,"{56: 1, 35: 2, 8: 1}","[8, 35, 56]",81352561,Ba1Br2O1
Ba2Br2O,mp-1079891,3.2683,0.44473221,0.0,"{56: 2, 35: 2, 8: 1}","[8, 35, 56]",81352562,Ba2Br2O1
BaU2I2O13,mp-1197781,0.5110000000000001,2.54674344,0.1317780483333335,"{56: 1, 92: 2, 53: 2, 8: 13}","[8, 53, 56, 92]",813532561922,Ba1U2I2O13
Ba4Tm6O13,mp-772408,2.529,1.90395312,0.0494928433695625,"{56: 4, 69: 6, 8: 13}","[8, 56, 69]",813564696,Ba4Tm6O13
Ba4Lu6O13,mp-772740,2.5346,1.95400438,0.04928580451087328,"{56: 4, 71: 6, 8: 13}","[8, 56, 71]",813564716,Ba4Lu6O13
Ba4Br6O,mp-555218,4.1652,0.1346185,0.0,"{56: 4, 35: 6, 8: 1}","[8, 35, 56]",81356564,Ba4Br6O1
Ba5Bi5O13,mp-674987,0.0,3.9726945,0.056469852173914425,"{56: 5, 83: 5, 8: 13}","[8, 56, 83]",813565835,Ba5Bi5O13
RbBa4Sb3O,mp-559270,0.9417,2.87693709,0.0,"{37: 1, 56: 4, 51: 3, 8: 1}","[8, 37, 51, 56]",81371513564,Rb1Ba4Sb3O1
Ba5Co5O13F,mp-1228627,0.14949999999999997,2.09302307,0.047100721197910644,"{56: 5, 27: 5, 8: 13, 9: 1}","[8, 9, 27, 56]",81391275565,Ba5Co5O13F1
BaNa2Ti2(Si2O7)2,mp-561352,3.1601999999999997,1.80878341,0.013890308478247348,"{56: 1, 11: 2, 22: 2, 14: 4, 8: 14}","[8, 11, 14, 22, 56]",814112144222561,Ba1Na2Ti2Si4O14
Ba5Na2Ru3O14,mp-1229142,0.14360000000000017,3.00755337,0.0,"{56: 5, 11: 2, 44: 3, 8: 14}","[8, 11, 44, 56]",814112443565,Ba5Na2Ru3O14
Ba2NbO,mp-34023,0.0,2.53383831,1.7248407399999994,"{56: 2, 41: 1, 8: 1}","[8, 41, 56]",81411562,Ba2Nb1O1
Ba2MgAl2(Fe4O7)2,mp-1234545,1.5540000000000003,2.96732756,0.22023771899470646,"{56: 2, 12: 1, 13: 2, 26: 8, 8: 14}","[8, 12, 13, 26, 56]",814121132268562,Ba2Mg1Al2Fe8O14
Ba2MgV2(Si2O7)2,mp-1234882,1.5277000000000003,3.75857013,0.1006640552717677,"{56: 2, 12: 1, 23: 2, 14: 4, 8: 14}","[8, 12, 14, 23, 56]",814121144232562,Ba2Mg1V2Si4O14
Ba2MgMn2(P2O7)2,mp-1233482,1.9981,2.67088149,0.19918166704967355,"{56: 2, 12: 1, 25: 2, 15: 4, 8: 14}","[8, 12, 15, 25, 56]",814121154252562,Ba2Mg1Mn2P4O14
Ba5MgMnV4(Cl3O7)2,mp-1214612,2.6163,1.44013345,0.007018527419363707,"{56: 5, 12: 1, 25: 1, 23: 4, 17: 6, 8: 14}","[8, 12, 17, 23, 25, 56]",814121176234251565,Ba5Mg1Mn1V4Cl6O14
Ba3MgV4O14,mp-1195880,3.1827,0.26214002,0.006991752897770098,"{56: 3, 12: 1, 23: 4, 8: 14}","[8, 12, 23, 56]",814121234563,Ba3Mg1V4O14
BaAl2Si3O14,mp-1228625,0.538,0.97753817,0.32465150258333164,"{56: 1, 13: 2, 14: 3, 8: 14}","[8, 13, 14, 56]",814132143561,Ba1Al2Si3O14
Ba2CaAl2(Fe4O7)2,mp-1234250,1.2034000000000002,3.5241374,0.251130980476189,"{56: 2, 20: 1, 13: 2, 26: 8, 8: 14}","[8, 13, 20, 26, 56]",814132201268562,Ba2Ca1Al2Fe8O14
BaAl3(PO7)2,mp-1214480,0.02429999999999999,0.62941135,0.3339907183996278,"{56: 1, 13: 3, 15: 2, 8: 14}","[8, 13, 15, 56]",814133152561,Ba1Al3P2O14
Ba3NbFe3(SiO7)2,mp-31758,2.3971,1.40072899,0.005041704365972066,"{56: 3, 41: 1, 26: 3, 14: 2, 8: 14}","[8, 14, 26, 41, 56]",814142263411563,Ba3Nb1Fe3Si2O14
Ba3TaFe3(SiO7)2,mp-1190340,2.5099,1.51993514,0.0,"{56: 3, 73: 1, 26: 3, 14: 2, 8: 14}","[8, 14, 26, 56, 73]",814142263563731,Ba3Ta1Fe3Si2O14
Ba3NbGa3(SiO7)2,mp-12881,3.2958,1.17457427,0.0,"{56: 3, 41: 1, 31: 3, 14: 2, 8: 14}","[8, 14, 31, 41, 56]",814142313411563,Ba3Nb1Ga3Si2O14
Ba2CaV2(Si2O7)2,mp-1233385,2.0222,3.3037187,0.10016001677536757,"{56: 2, 20: 1, 23: 2, 14: 4, 8: 14}","[8, 14, 20, 23, 56]",814144201232562,Ba2Ca1V2Si4O14
Ba5(Si2O7)2,mp-1199927,0.30800000000000005,1.9648885,0.11788321818840508,"{56: 5, 14: 4, 8: 14}","[8, 14, 56]",814144565,Ba5Si4O14
BaV2(PO7)2,mp-1182505,0.0,1.88795031,0.3802351082894795,"{56: 1, 23: 2, 15: 2, 8: 14}","[8, 15, 23, 56]",814152232561,Ba1V2P2O14
Ba3Co3Te(PO7)2,mp-1228226,2.5517000000000003,2.48825044,0.0,"{56: 3, 27: 3, 52: 1, 15: 2, 8: 14}","[8, 15, 27, 52, 56]",814152273521563,Ba3Co3Te1P2O14
Ba3Zn3Te(PO7)2,mp-1190416,2.8907000000000003,1.74491931,0.0,"{56: 3, 30: 3, 52: 1, 15: 2, 8: 14}","[8, 15, 30, 52, 56]",814152303521563,Ba3Zn3Te1P2O14
BaMo2P3O14,mp-555195,1.5323000000000002,1.43307822,0.0,"{56: 1, 42: 2, 15: 3, 8: 14}","[8, 15, 42, 56]",814153422561,Ba1Mo2P3O14
Ba2CaMn2(P2O7)2,mp-1233081,0.0,3.99316216,0.23009462957384308,"{56: 2, 20: 1, 25: 2, 15: 4, 8: 14}","[8, 15, 20, 25, 56]",814154201252562,Ba2Ca1Mn2P4O14
BaTi2(P2O7)2,mp-17997,0.0,4.83202228,0.06341661870521698,"{56: 1, 22: 2, 15: 4, 8: 14}","[8, 15, 22, 56]",814154222561,Ba1Ti2P4O14
BaV2(P2O7)2,mp-557348,2.0462,1.78973247,0.0,"{56: 1, 23: 2, 15: 4, 8: 14}","[8, 15, 23, 56]",814154232561,Ba1V2P4O14
BaCr2(P2O7)2,mp-1192170,3.1307,4.18356274,0.0,"{56: 1, 24: 2, 15: 4, 8: 14}","[8, 15, 24, 56]",814154242561,Ba1Cr2P4O14
Ba2MnCu(P2O7)2,mp-1228743,0.0,2.61891024,0.006690850454559971,"{56: 2, 25: 1, 29: 1, 15: 4, 8: 14}","[8, 15, 25, 29, 56]",814154251291562,Ba2Mn1Cu1P4O14
BaFe2(P2O7)2,mp-1190858,1.7887,0.72112023,0.0,"{56: 1, 26: 2, 15: 4, 8: 14}","[8, 15, 26, 56]",814154262561,Ba1Fe2P4O14
BaMo2(P2O7)2,mp-16802,1.0800999999999998,4.11918396,0.0,"{56: 1, 42: 2, 15: 4, 8: 14}","[8, 15, 42, 56]",814154422561,Ba1Mo2P4O14
BaIn2(P2O7)2,mp-1205018,4.0047999999999995,5.66008925,0.0,"{56: 1, 49: 2, 15: 4, 8: 14}","[8, 15, 49, 56]",814154492561,Ba1In2P4O14
Cs2Ba3(P2O7)2,mp-1019605,4.7249,5.33947646,0.004245906195659899,"{55: 2, 56: 3, 15: 4, 8: 14}","[8, 15, 55, 56]",814154552563,Cs2Ba3P4O14
BaP4PtO14,mp-727990,0.8839,-1.33180067,0.8773423177499877,"{56: 1, 15: 4, 78: 1, 8: 14}","[8, 15, 56, 78]",814154561781,Ba1P4Pt1O14
Ba5V4(ClO7)2,mp-1198636,3.2262,0.26906067,0.005586627700078672,"{56: 5, 23: 4, 17: 2, 8: 14}","[8, 17, 23, 56]",814172234565,Ba5V4Cl2O14
Ba2CaCeGd2Ti2(CuO7)2,mp-1229095,0.0,4.07641446,0.03653990579860178,"{56: 2, 20: 1, 58: 1, 64: 2, 22: 2, 29: 2, 8: 14}","[8, 20, 22, 29, 56, 58, 64]",814201222292562581642,Ba2Ca1Ce1Gd2Ti2Cu2O14
Ba2CaSm2Ti3(CuO7)2,mp-1214757,0.0,4.51150788,0.06635557986110907,"{56: 2, 20: 1, 62: 2, 22: 3, 29: 2, 8: 14}","[8, 20, 22, 29, 56, 62]",814201223292562622,Ba2Ca1Sm2Ti3Cu2O14
Ba2CaEu2Ti3(CuO7)2,mp-1228757,0.0,3.31180227,0.08229269572915676,"{56: 2, 20: 1, 63: 2, 22: 3, 29: 2, 8: 14}","[8, 20, 22, 29, 56, 63]",814201223292562632,Ba2Ca1Eu2Ti3Cu2O14
Ba2CaTb2Ti3(CuO7)2,mp-1228548,0.4236000000000004,4.10667921,0.05972718855901249,"{56: 2, 20: 1, 65: 2, 22: 3, 29: 2, 8: 14}","[8, 20, 22, 29, 56, 65]",814201223292562652,Ba2Ca1Tb2Ti3Cu2O14
Ba2CaY(Co4O7)2,mp-1228573,0.54,2.33745983,0.028907650967549436,"{56: 2, 20: 1, 39: 1, 27: 8, 8: 14}","[8, 20, 27, 39, 56]",814201278391562,Ba2Ca1Y1Co8O14
Ba3CaLa2(Cu3O7)2,mp-1228470,0.0,4.31243284,0.03686814714743658,"{56: 3, 20: 1, 57: 2, 29: 6, 8: 14}","[8, 20, 29, 56, 57]",814201296563572,Ba3Ca1La2Cu6O14
Ba2Ca2EuTi3(CuO7)2,mp-1214800,0.0,3.24072955,0.08610894782986023,"{56: 2, 20: 2, 63: 1, 22: 3, 29: 2, 8: 14}","[8, 20, 22, 29, 56, 63]",814202223292562631,Ba2Ca2Eu1Ti3Cu2O14
Ba2Ca2TbTi3(CuO7)2,mp-1214744,0.0,3.30207324,0.060751512387160034,"{56: 2, 20: 2, 65: 1, 22: 3, 29: 2, 8: 14}","[8, 20, 22, 29, 56, 65]",814202223292562651,Ba2Ca2Tb1Ti3Cu2O14
Ba2Ca2Zn5Fe3O14,mp-694875,0.0,0.93752971,0.18406684182693311,"{56: 2, 20: 2, 30: 5, 26: 3, 8: 14}","[8, 20, 26, 30, 56]",814202263305562,Ba2Ca2Zn5Fe3O14
Ba5Sc6O14,mp-770836,3.6435000000000004,0.56362572,0.060377616866661654,"{56: 5, 21: 6, 8: 14}","[8, 21, 56]",814216565,Ba5Sc6O14
BaTi7O14,mp-757266,0.0,4.86818711,0.0011319361363533176,"{56: 1, 22: 7, 8: 14}","[8, 22, 56]",814227561,Ba1Ti7O14
Ba3MnV4O14,mp-1195890,2.0969,1.38919858,0.12813676471591862,"{56: 3, 25: 1, 23: 4, 8: 14}","[8, 23, 25, 56]",814234251563,Ba3Mn1V4O14
Ba3V4CoO14,mp-1194945,0.0,1.8185761,0.09559781962123637,"{56: 3, 23: 4, 27: 1, 8: 14}","[8, 23, 27, 56]",814234271563,Ba3V4Co1O14
Ba3V4ZnO14,mp-1195152,3.0524999999999998,0.29778792,0.012404569829553402,"{56: 3, 23: 4, 30: 1, 8: 14}","[8, 23, 30, 56]",814234301563,Ba3V4Zn1O14
Ba3V4PbO14,mp-561403,3.1539,0.43788629,0.0,"{56: 3, 23: 4, 82: 1, 8: 14}","[8, 23, 56, 82]",814234563821,Ba3V4Pb1O14