formula,material_id,band_gap,efermi,energy_above_hull,comp_atoms,sorted_keys_comp_atoms,comp_number,new_formula
Ba5V5O14,mp-1183410,1.3248999999999995,4.58784981,0.0,"{56: 5, 23: 5, 8: 14}","[8, 23, 56]",814235565,Ba5V5O14
Ba5Cr5O14,mp-1190531,0.6715999999999998,3.31274466,0.024076562864578044,"{56: 5, 24: 5, 8: 14}","[8, 24, 56]",814245565,Ba5Cr5O14
Ba2Cr7O14,mp-27188,0.0026000000000001577,3.32697907,0.04526351032609455,"{56: 2, 24: 7, 8: 14}","[8, 24, 56]",814247562,Ba2Cr7O14
Ba5Mn(Co2O7)2,mp-1228475,0.5192999999999999,2.79869324,0.022560275451398937,"{56: 5, 25: 1, 27: 4, 8: 14}","[8, 25, 27, 56]",814251274565,Ba5Mn1Co4O14
Ba5Mn5O14,mp-759718,0.7272999999999996,3.48883112,0.0,"{56: 5, 25: 5, 8: 14}","[8, 25, 56]",814255565,Ba5Mn5O14
Ba4Y2FeCu5O14,mp-1228213,0.0,3.42765324,0.05055654013702071,"{56: 4, 39: 2, 26: 1, 29: 5, 8: 14}","[8, 26, 29, 39, 56]",814261295392564,Ba4Y2Fe1Cu5O14
Ba3FeGe5O14,mp-1214741,1.597,2.32929302,0.011690638973430367,"{56: 3, 26: 1, 32: 5, 8: 14}","[8, 26, 32, 56]",814261325563,Ba3Fe1Ge5O14
Ba3Fe2(Ge2O7)2,mp-1228826,0.3967999999999998,2.11409241,0.006079688888894097,"{56: 3, 26: 2, 32: 4, 8: 14}","[8, 26, 32, 56]",814262324563,Ba3Fe2Ge4O14
BaNb4(FeO7)2,mp-1096881,2.3473,-0.92102359,0.08652460107143156,"{56: 1, 41: 4, 26: 2, 8: 14}","[8, 26, 41, 56]",814262414561,Ba1Nb4Fe2O14
Ba5Fe5O14,mp-542530,0.0,1.92356196,0.0292478492360857,"{56: 5, 26: 5, 8: 14}","[8, 26, 56]",814265565,Ba5Fe5O14
Ba5Co5O14,mp-22557,0.0,3.01573701,0.011866453854175951,"{56: 5, 27: 5, 8: 14}","[8, 27, 56]",814275565,Ba5Co5O14
Ba2Co9O14,mp-510717,0.0,4.02192418,0.0907152548000072,"{56: 2, 27: 9, 8: 14}","[8, 27, 56]",814279562,Ba2Co9O14
Ba4Y2Cu5PdO14,mp-1228291,0.0,3.25217811,0.031638534855780165,"{56: 4, 39: 2, 29: 5, 46: 1, 8: 14}","[8, 29, 39, 46, 56]",814295392461564,Ba4Y2Cu5Pd1O14
Ba4Y2Cu5O14,mp-772817,0.0,2.4263417,0.06901961124998301,"{56: 4, 39: 2, 29: 5, 8: 14}","[8, 29, 39, 56]",814295392564,Ba4Y2Cu5O14
Ba4PrY(Cu3O7)2,mp-1228182,0.0,3.26863064,0.023748068381452825,"{56: 4, 59: 1, 39: 1, 29: 6, 8: 14}","[8, 29, 39, 56, 59]",814296391564591,Ba4Pr1Y1Cu6O14
Ba4GdY(Cu3O7)2,mp-1228341,0.0,3.23713191,0.03107767987979404,"{56: 4, 64: 1, 39: 1, 29: 6, 8: 14}","[8, 29, 39, 56, 64]",814296391564641,Ba4Gd1Y1Cu6O14
Ba3LaY2(Cu3O7)2,mp-1228381,0.0,4.29271746,0.04379493905448495,"{56: 3, 57: 1, 39: 2, 29: 6, 8: 14}","[8, 29, 39, 56, 57]",814296392563571,Ba3La1Y2Cu6O14
Ba3La3(Cu3O7)2,mp-1228365,0.0,4.89242935,0.02769639371795929,"{56: 3, 57: 3, 29: 6, 8: 14}","[8, 29, 56, 57]",814296563573,Ba3La3Cu6O14
Ba3Nd3(Cu3O7)2,mp-1228353,0.0,3.72063303,0.03716121613782786,"{56: 3, 60: 3, 29: 6, 8: 14}","[8, 29, 56, 60]",814296563603,Ba3Nd3Cu6O14
Ba4LaPr(Cu3O7)2,mp-1228253,0.0,3.53296398,0.028219441634608877,"{56: 4, 57: 1, 59: 1, 29: 6, 8: 14}","[8, 29, 56, 57, 59]",814296564571591,Ba4La1Pr1Cu6O14
Ba4PrNd(Cu3O7)2,mp-1228202,0.0,3.21862641,0.025549060520820177,"{56: 4, 59: 1, 60: 1, 29: 6, 8: 14}","[8, 29, 56, 59, 60]",814296564591601,Ba4Pr1Nd1Cu6O14
Ba4PrSm(Cu3O7)2,mp-1228206,0.0,3.15752175,0.026174437708324838,"{56: 4, 59: 1, 62: 1, 29: 6, 8: 14}","[8, 29, 56, 59, 62]",814296564591621,Ba4Pr1Sm1Cu6O14
Ba4PrEu(Cu3O7)2,mp-1228601,0.0,3.16956422,0.0396096890304376,"{56: 4, 59: 1, 63: 1, 29: 6, 8: 14}","[8, 29, 56, 59, 63]",814296564591631,Ba4Pr1Eu1Cu6O14
Ba4PrGd(Cu3O7)2,mp-1228407,0.0,3.26935489,0.03351178833336643,"{56: 4, 59: 1, 64: 1, 29: 6, 8: 14}","[8, 29, 56, 59, 64]",814296564591641,Ba4Pr1Gd1Cu6O14
Ba4PrDy(Cu3O7)2,mp-1228179,0.0,3.25165841,0.03311310788461519,"{56: 4, 59: 1, 66: 1, 29: 6, 8: 14}","[8, 29, 56, 59, 66]",814296564591661,Ba4Pr1Dy1Cu6O14
Ba4PrHo(Cu3O7)2,mp-1228221,0.0,3.18581237,0.034782662484007965,"{56: 4, 59: 1, 67: 1, 29: 6, 8: 14}","[8, 29, 56, 59, 67]",814296564591671,Ba4Pr1Ho1Cu6O14
Ba4PrEr(Cu3O7)2,mp-1228227,0.0,3.12836665,0.034992464991979055,"{56: 4, 59: 1, 68: 1, 29: 6, 8: 14}","[8, 29, 56, 59, 68]",814296564591681,Ba4Pr1Er1Cu6O14
Ba4PrTm(Cu3O7)2,mp-1228261,0.0,3.22966383,0.03620512754005567,"{56: 4, 59: 1, 69: 1, 29: 6, 8: 14}","[8, 29, 56, 59, 69]",814296564591691,Ba4Pr1Tm1Cu6O14
Ba4PrLu(Cu3O7)2,mp-1228451,0.0,3.22683471,0.04335115991985816,"{56: 4, 59: 1, 71: 1, 29: 6, 8: 14}","[8, 29, 56, 59, 71]",814296564591711,Ba4Pr1Lu1Cu6O14
Ba3Ga2(Ge2O7)2,mp-554139,2.2589999999999995,2.16457465,0.032315734673902696,"{56: 3, 31: 2, 32: 4, 8: 14}","[8, 31, 32, 56]",814312324563,Ba3Ga2Ge4O14
Ba5(Ga3O7)2,mp-771208,2.7217000000000002,0.97128164,0.04505959866665599,"{56: 5, 31: 6, 8: 14}","[8, 31, 56]",814316565,Ba5Ga6O14
Ba(As2O7)2,mp-1196154,0.0,-0.53664778,0.30735989750000137,"{56: 1, 33: 4, 8: 14}","[8, 33, 56]",814334561,Ba1As4O14
BaU3W3(SeO7)2,mp-1214976,0.0,3.51527932,0.9869472282608633,"{56: 1, 92: 3, 74: 3, 34: 2, 8: 14}","[8, 34, 56, 74, 92]",814342561743923,Ba1U3W3Se2O14
BaNb4O14,mp-1227948,0.0,-0.75303057,0.3247627093609111,"{56: 1, 41: 4, 8: 14}","[8, 41, 56]",814414561,Ba1Nb4O14
Ba5Nb5O14,mp-766302,0.0,5.20963656,0.06525082173615893,"{56: 5, 41: 5, 8: 14}","[8, 41, 56]",814415565,Ba5Nb5O14
BaNb8O14,mp-757688,0.33809999999999985,4.1697593,0.0,"{56: 1, 41: 8, 8: 14}","[8, 41, 56]",814418561,Ba1Nb8O14
Ba2Hg3(PdO2)7,mp-557269,0.0,2.67822412,0.0,"{56: 2, 80: 3, 46: 7, 8: 14}","[8, 46, 56, 80]",814467562803,Ba2Hg3Pd7O14
BaLa2Te5O14,mp-559703,3.2283,3.90791176,0.0,"{56: 1, 57: 2, 52: 5, 8: 14}","[8, 52, 56, 57]",814525561572,Ba1La2Te5O14
BaTa4O14,mp-1189316,0.0,-0.77980265,0.2932737444956057,"{56: 1, 73: 4, 8: 14}","[8, 56, 73]",814561734,Ba1Ta4O14
BaU3O14,mp-1203939,0.0,1.16085214,0.5569049218055628,"{56: 1, 92: 3, 8: 14}","[8, 56, 92]",814561923,Ba1U3O14
KBa4Ti5O14F,mp-40677,1.1399,4.23778279,0.04310755490000595,"{19: 1, 56: 4, 22: 5, 8: 14, 9: 1}","[8, 9, 19, 22, 56]",81491191225564,K1Ba4Ti5O14F1
Ba3SnO,mp-29243,0.0,3.6674149,0.0,"{56: 3, 50: 1, 8: 1}","[8, 50, 56]",81501563,Ba3Sn1O1
Ba2NaNb5O15,mp-1199624,2.4877000000000002,1.58553277,0.00469653103260903,"{56: 2, 11: 1, 41: 5, 8: 15}","[8, 11, 41, 56]",815111415562,Ba2Na1Nb5O15
Ba6Na2Si4O15,mp-560889,4.1718,1.97133574,0.0,"{56: 6, 11: 2, 14: 4, 8: 15}","[8, 11, 14, 56]",815112144566,Ba6Na2Si4O15
Ba3Na2Ti3Nb2O15,mp-40873,1.5631,2.50309049,0.035724125200001566,"{56: 3, 11: 2, 22: 3, 41: 2, 8: 15}","[8, 11, 22, 41, 56]",815112223412563,Ba3Na2Ti3Nb2O15
Ba3Sb2O,mp-29911,0.33279999999999976,3.4687415,0.0,"{56: 3, 51: 2, 8: 1}","[8, 51, 56]",81512563,Ba3Sb2O1
Ba4Sb2O,mp-9774,0.6382000000000003,2.94197207,0.0,"{56: 4, 51: 2, 8: 1}","[8, 51, 56]",81512564,Ba4Sb2O1
Ba6Ho2Al2Rh2O15,mp-1228344,0.0,3.25377378,0.03167126150617161,"{56: 6, 67: 2, 13: 2, 45: 2, 8: 15}","[8, 13, 45, 56, 67]",815132452566672,Ba6Ho2Al2Rh2O15
Ba6Al2Rh4O15,mp-1228417,0.0,3.48282434,0.11336680588580084,"{56: 6, 13: 2, 45: 4, 8: 15}","[8, 13, 45, 56]",815132454566,Ba6Al2Rh4O15
Ba6Y2Al4O15,mp-1214519,3.9211,5.85777856,0.0,"{56: 6, 39: 2, 13: 4, 8: 15}","[8, 13, 39, 56]",815134392566,Ba6Y2Al4O15
Ba6Nd2Al4O15,mp-1214526,3.9421,5.78010854,0.0,"{56: 6, 60: 2, 13: 4, 8: 15}","[8, 13, 56, 60]",815134566602,Ba6Nd2Al4O15
Ba6Sm2Al4O15,mp-1214532,3.9418999999999995,5.78589065,0.0,"{56: 6, 62: 2, 13: 4, 8: 15}","[8, 13, 56, 62]",815134566622,Ba6Sm2Al4O15
Ba6Gd2Al4O15,mp-1214682,3.4318999999999997,5.30471928,0.0,"{56: 6, 64: 2, 13: 4, 8: 15}","[8, 13, 56, 64]",815134566642,Ba6Gd2Al4O15
Ba6Tb2Al4O15,mp-1214513,3.9253,5.84997399,0.0,"{56: 6, 65: 2, 13: 4, 8: 15}","[8, 13, 56, 65]",815134566652,Ba6Tb2Al4O15
Ba6Dy2Al4O15,mp-1214541,3.928,5.86022651,0.0,"{56: 6, 66: 2, 13: 4, 8: 15}","[8, 13, 56, 66]",815134566662,Ba6Dy2Al4O15
Ba6Tm2Al4O15,mp-1214515,3.8884999999999996,5.82049706,0.0,"{56: 6, 69: 2, 13: 4, 8: 15}","[8, 13, 56, 69]",815134566692,Ba6Tm2Al4O15
Ba6Lu2Al4O15,mp-1214530,3.8537999999999997,2.00197324,0.0,"{56: 6, 71: 2, 13: 4, 8: 15}","[8, 13, 56, 71]",815134566712,Ba6Lu2Al4O15
Ba3Sb4O,mp-555414,0.12069999999999981,3.79861164,0.0,"{56: 3, 51: 4, 8: 1}","[8, 51, 56]",81514563,Ba3Sb4O1
Ba3V2(PO5)3,mp-558477,1.5997,1.70700524,0.00425173402179535,"{56: 3, 23: 2, 15: 3, 8: 15}","[8, 15, 23, 56]",815153232563,Ba3V2P3O15
KBa2(PO3)5,mp-560320,5.4035,0.47938562,0.0,"{19: 1, 56: 2, 15: 5, 8: 15}","[8, 15, 19, 56]",815155191562,K1Ba2P5O15
Ba5Re3ClO15,mp-556647,2.5307,0.92297064,0.0,"{56: 5, 75: 3, 17: 1, 8: 15}","[8, 17, 56, 75]",815171565753,Ba5Re3Cl1O15
Ba5Os3ClO15,mp-554501,0.6081000000000003,2.42439871,0.0,"{56: 5, 76: 3, 17: 1, 8: 15}","[8, 17, 56, 76]",815171565763,Ba5Os3Cl1O15
Ba9Cu7Cl2O15,mp-559813,0.0,2.86162076,0.219994747575746,"{56: 9, 29: 7, 17: 2, 8: 15}","[8, 17, 29, 56]",815172297569,Ba9Cu7Cl2O15
Ba7Ru4Cl2O15,mp-554143,0.0,2.93629979,0.05681666383929507,"{56: 7, 44: 4, 17: 2, 8: 15}","[8, 17, 44, 56]",815172444567,Ba7Ru4Cl2O15
K3Ba2Pr2(BiO5)3,mp-686204,0.0,1.35562805,0.06772558752500135,"{19: 3, 56: 2, 59: 2, 83: 3, 8: 15}","[8, 19, 56, 59, 83]",815193562592833,K3Ba2Pr2Bi3O15
K4BaNb5O15,mp-1224039,0.0,3.48927366,0.0,"{19: 4, 56: 1, 41: 5, 8: 15}","[8, 19, 41, 56]",815194415561,K4Ba1Nb5O15
Ba4CaTi5O15,mp-1228091,1.7146999999999997,4.76865298,0.02805534989999181,"{56: 4, 20: 1, 22: 5, 8: 15}","[8, 20, 22, 56]",815201225564,Ba4Ca1Ti5O15
Ba4CaZr5O15,mp-1228424,3.1377,2.06909391,0.02779554949999863,"{56: 4, 20: 1, 40: 5, 8: 15}","[8, 20, 40, 56]",815201405564,Ba4Ca1Zr5O15
Ba5Ca2Nb3O15,mp-1228343,0.0,1.76606988,0.022026898199989375,"{56: 5, 20: 2, 41: 3, 8: 15}","[8, 20, 41, 56]",815202413565,Ba5Ca2Nb3O15
Ba5Ca2Ta3O15,mp-1228312,0.0,1.90051412,0.020462164400003147,"{56: 5, 20: 2, 73: 3, 8: 15}","[8, 20, 56, 73]",815202565733,Ba5Ca2Ta3O15
Ba4ScTi4BiO15,mp-1228157,1.8951000000000002,5.21786472,0.06415547237498842,"{56: 4, 21: 1, 22: 4, 83: 1, 8: 15}","[8, 21, 22, 56, 83]",815211224564831,Ba4Sc1Ti4Bi1O15
Ba2TeO,mp-1078191,1.783,2.00055659,0.0,"{56: 2, 52: 1, 8: 1}","[8, 52, 56]",81521562,Ba2Te1O1
BaLa4TiCr4O15,mp-694938,1.8815999999999997,6.04443003,0.028308269399991204,"{56: 1, 57: 4, 22: 1, 24: 4, 8: 15}","[8, 22, 24, 56, 57]",815221244561574,Ba1La4Ti1Cr4O15
Ba4LaTiNb3O15,mp-1228208,2.4743000000000004,5.1844092,0.027475628715274425,"{56: 4, 57: 1, 22: 1, 41: 3, 8: 15}","[8, 22, 41, 56, 57]",815221413564571,Ba4La1Ti1Nb3O15
Ba3TiNb4O15,mp-557072,2.4151,1.74690628,0.008577029420283822,"{56: 3, 22: 1, 41: 4, 8: 15}","[8, 22, 41, 56]",815221414563,Ba3Ti1Nb4O15
Ba3Ta4TiO15,mp-1228225,2.3532,2.06907378,0.0,"{56: 3, 73: 4, 22: 1, 8: 15}","[8, 22, 56, 73]",815221563734,Ba3Ta4Ti1O15
Ba2La3Ti2Cr3O15,mp-684872,1.4871999999999996,5.74863521,0.0408035500999997,"{56: 2, 57: 3, 22: 2, 24: 3, 8: 15}","[8, 22, 24, 56, 57]",815222243562573,Ba2La3Ti2Cr3O15
Ba2La3Ti2Nb2O15,mp-1214803,0.0,6.94405455,0.03864271010417397,"{56: 2, 57: 3, 22: 2, 41: 2, 8: 15}","[8, 22, 41, 56, 57]",815222412562573,Ba2La3Ti2Nb2O15
Ba3La2Ti2Nb2O15,mp-1228337,2.3876,5.9809964,0.049812327013889046,"{56: 3, 57: 2, 22: 2, 41: 2, 8: 15}","[8, 22, 41, 56, 57]",815222412563572,Ba3La2Ti2Nb2O15
Ba2EuTa3Ti2O15,mp-1228610,0.0,2.78927816,0.04207156012693325,"{56: 2, 63: 1, 73: 3, 22: 2, 8: 15}","[8, 22, 56, 63, 73]",815222562631733,Ba2Eu1Ta3Ti2O15
Ba3La2Ti3Cr2O15,mp-684820,1.5316,4.86665032,0.0278400550000093,"{56: 3, 57: 2, 22: 3, 24: 2, 8: 15}","[8, 22, 24, 56, 57]",815223242563572,Ba3La2Ti3Cr2O15
BaZr2Ti3Pb4O15,mp-1227980,2.2403999999999997,6.03492602,0.026547122087496433,"{56: 1, 40: 2, 22: 3, 82: 4, 8: 15}","[8, 22, 40, 56, 82]",815223402561824,Ba1Zr2Ti3Pb4O15
Ba2La3Ti3NbO15,mp-1228754,2.7971000000000004,4.07834514,0.024212798854160056,"{56: 2, 57: 3, 22: 3, 41: 1, 8: 15}","[8, 22, 41, 56, 57]",815223411562573,Ba2La3Ti3Nb1O15
Ba4LaTi4CrO15,mp-1228142,1.3340000000000005,4.09751103,0.01914978140000656,"{56: 4, 57: 1, 22: 4, 24: 1, 8: 15}","[8, 22, 24, 56, 57]",815224241564571,Ba4La1Ti4Cr1O15
Ba5Ti4MoO15,mp-1228035,0.45779999999999976,4.25000781,0.014769008333336942,"{56: 5, 22: 4, 42: 1, 8: 15}","[8, 22, 42, 56]",815224421565,Ba5Ti4Mo1O15
BaLa4Ti4O15,mp-1228245,2.8881000000000006,4.91021607,0.0304989722916833,"{56: 1, 57: 4, 22: 4, 8: 15}","[8, 22, 56, 57]",815224561574,Ba1La4Ti4O15
BaTi4Bi4O15,mp-1227554,1.6025,6.45397799,0.07320908895833433,"{56: 1, 22: 4, 83: 4, 8: 15}","[8, 22, 56, 83]",815224561834,Ba1Ti4Bi4O15
Ba4Ti5PbO15,mp-1228218,1.7552000000000003,5.12442965,0.024343227362500386,"{56: 4, 22: 5, 82: 1, 8: 15}","[8, 22, 56, 82]",815225564821,Ba4Ti5Pb1O15
BaV10O15,mp-19458,0.6186999999999996,4.96619505,0.0,"{56: 1, 23: 10, 8: 15}","[8, 23, 56]",8152310561,Ba1V10O15
Ba2V4Cd3O15,mp-558221,2.7739,0.21400901,0.0,"{56: 2, 23: 4, 48: 3, 8: 15}","[8, 23, 48, 56]",815234483562,Ba2V4Cd3O15
BaCr10O15,mp-19500,0.0,5.41854303,0.04332946977564589,"{56: 1, 24: 10, 8: 15}","[8, 24, 56]",8152410561,Ba1Cr10O15
BaLa4Mn5O15,mp-1228080,0.0,6.71728745,0.17198343291266127,"{56: 1, 57: 4, 25: 5, 8: 15}","[8, 25, 56, 57]",815255561574,Ba1La4Mn5O15
Ba2SmNb4FeO15,mp-1228654,0.0,2.37709477,0.05031894838768558,"{56: 2, 62: 1, 41: 4, 26: 1, 8: 15}","[8, 26, 41, 56, 62]",815261414562621,Ba2Sm1Nb4Fe1O15
Ba5Fe3W2O15,mp-1228597,0.18079999999999963,3.65958538,0.016550270199999773,"{56: 5, 26: 3, 74: 2, 8: 15}","[8, 26, 56, 74]",815263565742,Ba5Fe3W2O15
Ba6Y2Fe4O15,mp-1198058,2.4647000000000006,4.30504702,0.0,"{56: 6, 39: 2, 26: 4, 8: 15}","[8, 26, 39, 56]",815264392566,Ba6Y2Fe4O15
Ba6La2Fe4O15,mp-1228690,2.3961999999999994,5.24334403,0.0,"{56: 6, 57: 2, 26: 4, 8: 15}","[8, 26, 56, 57]",815264566572,Ba6La2Fe4O15
Ba6Pr2Fe4O15,mp-1228608,2.369,2.27298184,0.0,"{56: 6, 59: 2, 26: 4, 8: 15}","[8, 26, 56, 59]",815264566592,Ba6Pr2Fe4O15
Ba6Nd2Fe4O15,mp-1228695,2.3557,2.26127363,0.0,"{56: 6, 60: 2, 26: 4, 8: 15}","[8, 26, 56, 60]",815264566602,Ba6Nd2Fe4O15
Ba6Gd2Fe4O15,mp-1215063,2.1756,4.21515723,0.0,"{56: 6, 64: 2, 26: 4, 8: 15}","[8, 26, 56, 64]",815264566642,Ba6Gd2Fe4O15
BaFe5Bi4O15,mp-1228771,0.0,4.28726242,0.06241563019999674,"{56: 1, 26: 5, 83: 4, 8: 15}","[8, 26, 56, 83]",815265561834,Ba1Fe5Bi4O15
Ba3Y4(CoO5)3,mp-1366002,0.0,1.82600024,0.22922085980000428,"{56: 3, 39: 4, 27: 3, 8: 15}","[8, 27, 39, 56]",815273394563,Ba3Y4Co3O15
Ba3Y5(CoO5)3,mp-1334271,1.1946999999999997,2.47521014,0.14560283525841733,"{56: 3, 39: 5, 27: 3, 8: 15}","[8, 27, 39, 56]",815273395563,Ba3Y5Co3O15
Ba6Y2Co4O15,mp-1196872,1.2092999999999998,3.29832255,0.0,"{56: 6, 39: 2, 27: 4, 8: 15}","[8, 27, 39, 56]",815274392566,Ba6Y2Co4O15
Ba6La2Co4O15,mp-1228747,1.4781999999999997,2.91130724,0.0033442181172889107,"{56: 6, 57: 2, 27: 4, 8: 15}","[8, 27, 56, 57]",815274566572,Ba6La2Co4O15
Ba6Pr2Co4O15,mp-1228751,1.4233000000000002,3.65093908,0.0019014660031109187,"{56: 6, 59: 2, 27: 4, 8: 15}","[8, 27, 56, 59]",815274566592,Ba6Pr2Co4O15
BaLa4(CoO3)5,mp-1228419,0.2804000000000002,5.66048801,0.05946904940000142,"{56: 1, 57: 4, 27: 5, 8: 15}","[8, 27, 56, 57]",815275561574,Ba1La4Co5O15
BaNd4(CoO3)5,mp-1228268,0.009600000000000275,3.26488081,0.08841518580000152,"{56: 1, 60: 4, 27: 5, 8: 15}","[8, 27, 56, 60]",815275561604,Ba1Nd4Co5O15
Ba2Pr3(CoO3)5,mp-1229013,0.0,3.59579219,0.07696716640000201,"{56: 2, 59: 3, 27: 5, 8: 15}","[8, 27, 56, 59]",815275562593,Ba2Pr3Co5O15
Ba3Y5(CuO5)3,mp-1337388,0.13640000000000008,2.62145237,0.11160753137018364,"{56: 3, 39: 5, 29: 3, 8: 15}","[8, 29, 39, 56]",815293395563,Ba3Y5Cu3O15
Ba4Pr2(Cu2O5)3,mp-1228247,0.0,3.1494778,0.06673096402775958,"{56: 4, 59: 2, 29: 6, 8: 15}","[8, 29, 56, 59]",815296564592,Ba4Pr2Cu6O15
Ba4Y2Cu7O15,mp-1228264,0.3136000000000001,3.23655036,0.010490880163680494,"{56: 4, 39: 2, 29: 7, 8: 15}","[8, 29, 39, 56]",815297392564,Ba4Y2Cu7O15
Ba4Nd4Zn3PtO15,mp-9837,2.4838,2.64102268,0.0,"{56: 4, 60: 4, 30: 3, 78: 1, 8: 15}","[8, 30, 56, 60, 78]",815303564604781,Ba4Nd4Zn3Pt1O15
Ba4Sm4Zn3PtO15,mp-9737,2.4891000000000005,2.51118541,0.008123256327194461,"{56: 4, 62: 4, 30: 3, 78: 1, 8: 15}","[8, 30, 56, 62, 78]",815303564624781,Ba4Sm4Zn3Pt1O15
Ba4Eu4Zn3PtO15,mp-560660,0.06119999999999992,3.19524635,0.11965885641978602,"{56: 4, 63: 4, 30: 3, 78: 1, 8: 15}","[8, 30, 56, 63, 78]",815303564634781,Ba4Eu4Zn3Pt1O15
Ba6Y2Ga4O15,mp-1214542,3.6041,4.85885935,0.0,"{56: 6, 39: 2, 31: 4, 8: 15}","[8, 31, 39, 56]",815314392566,Ba6Y2Ga4O15
Ba6La2Ga4O15,mp-1228569,3.4213999999999998,5.87833085,0.013269756913578235,"{56: 6, 57: 2, 31: 4, 8: 15}","[8, 31, 56, 57]",815314566572,Ba6La2Ga4O15
Ba6Pr2Ga4O15,mp-1214591,3.6579999999999995,4.8274309,0.0,"{56: 6, 59: 2, 31: 4, 8: 15}","[8, 31, 56, 59]",815314566592,Ba6Pr2Ga4O15
Ba6Nd2Ga4O15,mp-1214555,3.6494999999999997,4.82746369,0.0,"{56: 6, 60: 2, 31: 4, 8: 15}","[8, 31, 56, 60]",815314566602,Ba6Nd2Ga4O15
Ba6Sm2Ga4O15,mp-1214554,3.6226000000000003,4.80220023,0.0,"{56: 6, 62: 2, 31: 4, 8: 15}","[8, 31, 56, 62]",815314566622,Ba6Sm2Ga4O15
Ba6Gd2Ga4O15,mp-1214608,3.3985999999999996,4.68907642,0.0,"{56: 6, 64: 2, 31: 4, 8: 15}","[8, 31, 56, 64]",815314566642,Ba6Gd2Ga4O15
Ba6Tb2Ga4O15,mp-1214551,3.5957000000000003,4.82842539,0.0,"{56: 6, 65: 2, 31: 4, 8: 15}","[8, 31, 56, 65]",815314566652,Ba6Tb2Ga4O15
Ba6Dy2Ga4O15,mp-1214605,3.5896000000000003,4.82985929,0.0,"{56: 6, 66: 2, 31: 4, 8: 15}","[8, 31, 56, 66]",815314566662,Ba6Dy2Ga4O15
Ba6Ho2Ga4O15,mp-1214596,3.5530999999999997,4.77601659,0.0,"{56: 6, 67: 2, 31: 4, 8: 15}","[8, 31, 56, 67]",815314566672,Ba6Ho2Ga4O15
Ba6Er2Ga4O15,mp-555481,3.5263,1.32730418,0.0,"{56: 6, 68: 2, 31: 4, 8: 15}","[8, 31, 56, 68]",815314566682,Ba6Er2Ga4O15
Ba6Tm2Ga4O15,mp-1214558,3.5153,4.75914763,0.0,"{56: 6, 69: 2, 31: 4, 8: 15}","[8, 31, 56, 69]",815314566692,Ba6Tm2Ga4O15
Ba6Lu2Ga4O15,mp-1214574,3.4879,4.78373829,0.0,"{56: 6, 71: 2, 31: 4, 8: 15}","[8, 31, 56, 71]",815314566712,Ba6Lu2Ga4O15
BaI2O,mp-725677,1.7326,1.98330279,0.28478557718749986,"{56: 1, 53: 2, 8: 1}","[8, 53, 56]",81532561,Ba1I2O1
Ba2I2O,mp-551835,3.0440999999999994,1.34960055,0.0,"{56: 2, 53: 2, 8: 1}","[8, 53, 56]",81532562,Ba2I2O1
Ba5Re3BrO15,mp-556721,2.54,0.92453556,0.0,"{56: 5, 75: 3, 35: 1, 8: 15}","[8, 35, 56, 75]",815351565753,Ba5Re3Br1O15
Ba7Ru4Br2O15,mp-556877,0.0,2.90025236,0.006167137500001196,"{56: 7, 44: 4, 35: 2, 8: 15}","[8, 35, 44, 56]",815352444567,Ba7Ru4Br2O15
Ba4I6O,mp-29909,3.9787000000000003,1.39128257,0.0,"{56: 4, 53: 6, 8: 1}","[8, 53, 56]",81536564,Ba4I6O1
Ba5Ce4YO15,mp-1228532,0.0,2.37214939,0.017723814900001855,"{56: 5, 58: 4, 39: 1, 8: 15}","[8, 39, 56, 58]",815391565584,Ba5Ce4Y1O15
Ba3ZrNb4O15,mp-1228352,2.2437000000000005,3.89963513,0.020653607536225138,"{56: 3, 40: 1, 41: 4, 8: 15}","[8, 40, 41, 56]",815401414563,Ba3Zr1Nb4O15
Ba3ZrTa4O15,mp-1228281,2.4404,2.04406381,0.006431047210151419,"{56: 3, 40: 1, 73: 4, 8: 15}","[8, 40, 56, 73]",815401563734,Ba3Zr1Ta4O15
Ba5Ce4ZrO15,mp-1228442,2.2572000000000005,4.79901305,0.008507065000008751,"{56: 5, 58: 4, 40: 1, 8: 15}","[8, 40, 56, 58]",815401565584,Ba5Ce4Zr1O15
BaZr5Pb4O15,mp-1227880,2.9226000000000005,6.21397951,0.025763037850003556,"{56: 1, 40: 5, 82: 4, 8: 15}","[8, 40, 56, 82]",815405561824,Ba1Zr5Pb4O15
Ba3Ta4NbO15,mp-1096815,0.0,4.71886186,0.0007037867934762687,"{56: 3, 73: 4, 41: 1, 8: 15}","[8, 41, 56, 73]",815411563734,Ba3Ta4Nb1O15
Ba5NbIr4O15,mp-1228736,0.0,4.58118366,0.0050897785624988146,"{56: 5, 41: 1, 77: 4, 8: 15}","[8, 41, 56, 77]",815411565774,Ba5Nb1Ir4O15
Ba3HfNb4O15,mp-1228349,2.2464,3.98233034,0.014259555253618217,"{56: 3, 72: 1, 41: 4, 8: 15}","[8, 41, 56, 72]",815414563721,Ba3Hf1Nb4O15
Ba3TaNb4O15,mp-1096858,0.0,4.10942235,0.0,"{56: 3, 73: 1, 41: 4, 8: 15}","[8, 41, 56, 73]",815414563731,Ba3Ta1Nb4O15
Ba5Nb4O15,mp-3563,2.5999,1.9354784,0.0,"{56: 5, 41: 4, 8: 15}","[8, 41, 56]",815414565,Ba5Nb4O15
Ba2LaNb5O15,mp-1228649,0.0,5.0641292,0.00964700061955881,"{56: 2, 57: 1, 41: 5, 8: 15}","[8, 41, 56, 57]",815415562571,Ba2La1Nb5O15
Ba3Nb5O15,mp-8846,0.0,3.73942041,0.0,"{56: 3, 41: 5, 8: 15}","[8, 41, 56]",815415563,Ba3Nb5O15
BaMoI4O15,mp-1203873,0.9874000000000003,1.35602079,0.11120379363095179,"{56: 1, 42: 1, 53: 4, 8: 15}","[8, 42, 53, 56]",815421534561,Ba1Mo1I4O15
BaMo4O15,mp-729474,1.2307000000000001,0.40655432,0.3759976589374956,"{56: 1, 42: 4, 8: 15}","[8, 42, 56]",815424561,Ba1Mo4O15
Ba5Re3IO15,mp-1214601,1.9989,3.64088463,0.0,"{56: 5, 75: 3, 53: 1, 8: 15}","[8, 53, 56, 75]",815531565753,Ba5Re3I1O15
Ba3HfTa4O15,mp-1228378,2.4646999999999997,4.44763899,0.0,"{56: 3, 72: 1, 73: 4, 8: 15}","[8, 56, 72, 73]",815563721734,Ba3Hf1Ta4O15