formula,material_id,band_gap,efermi,energy_above_hull,comp_atoms,sorted_keys_comp_atoms,comp_number,new_formula
Ba2Y2CuPtO8,mp-504966,0.21160000000000023,3.49169293,0.017631235803571954,"{56: 2, 39: 2, 29: 1, 78: 1, 8: 8}","[8, 29, 39, 56, 78]",88291392562781,Ba2Y2Cu1Pt1O8
Ba2Ho2CuPtO8,mp-1214783,0.2622,3.52855889,0.013554089553572624,"{56: 2, 67: 2, 29: 1, 78: 1, 8: 8}","[8, 29, 56, 67, 78]",88291562672781,Ba2Ho2Cu1Pt1O8
Ba2Er2CuPtO8,mp-1214824,0.2711000000000001,3.57934488,0.015187927321429484,"{56: 2, 68: 2, 29: 1, 78: 1, 8: 8}","[8, 29, 56, 68, 78]",88291562682781,Ba2Er2Cu1Pt1O8
Ba2Tm2CuPtO8,mp-1214674,0.2841,3.57670627,0.017293019642858454,"{56: 2, 69: 2, 29: 1, 78: 1, 8: 8}","[8, 29, 56, 69, 78]",88291562692781,Ba2Tm2Cu1Pt1O8
Ba2Lu2CuPtO8,mp-1214855,0.2822999999999998,3.55354101,0.023255640089288043,"{56: 2, 71: 2, 29: 1, 78: 1, 8: 8}","[8, 29, 56, 71, 78]",88291562712781,Ba2Lu2Cu1Pt1O8
BaCu2(AsO4)2,mp-17262,0.0,2.3661925,0.021797649230775207,"{56: 1, 29: 2, 33: 2, 8: 8}","[8, 29, 33, 56]",88292332561,Ba1Cu2As2O8
Ba2LaNb(CuO4)2,mp-1214654,0.23639999999999972,4.17004082,0.0013631988392859284,"{56: 2, 57: 1, 41: 1, 29: 2, 8: 8}","[8, 29, 41, 56, 57]",88292411562571,Ba2La1Nb1Cu2O8
Ba2PrNb(CuO4)2,mp-1228503,0.0,3.15488536,0.0,"{56: 2, 59: 1, 41: 1, 29: 2, 8: 8}","[8, 29, 41, 56, 59]",88292411562591,Ba2Pr1Nb1Cu2O8
Ba2NdNb(CuO4)2,mp-10062,0.0,3.4304772,0.004804307678575981,"{56: 2, 60: 1, 41: 1, 29: 2, 8: 8}","[8, 29, 41, 56, 60]",88292411562601,Ba2Nd1Nb1Cu2O8
Ba2LaTa(CuO4)2,mp-615682,0.0,4.20426651,0.0,"{56: 2, 57: 1, 73: 1, 29: 2, 8: 8}","[8, 29, 56, 57, 73]",88292562571731,Ba2La1Ta1Cu2O8
Ba2GdCu2(HgO4)2,mp-1214767,0.0,2.45947,0.09701264533333465,"{56: 2, 64: 1, 29: 2, 80: 2, 8: 8}","[8, 29, 56, 64, 80]",88292562641802,Ba2Gd1Cu2Hg2O8
Ba2Tl2Cu2HgO8,mp-1228366,0.0,3.63075795,0.060657717444446924,"{56: 2, 81: 2, 29: 2, 80: 1, 8: 8}","[8, 29, 56, 80, 81]",88292562801812,Ba2Tl2Cu2Hg1O8
Ba2YCu3O8,mp-1214613,0.0,3.15422196,0.06484532727042058,"{56: 2, 39: 1, 29: 3, 8: 8}","[8, 29, 39, 56]",88293391562,Ba2Y1Cu3O8
Ba2YCu3(PbO4)2,mp-1200772,0.0,4.22811007,0.00986191712891138,"{56: 2, 39: 1, 29: 3, 82: 2, 8: 8}","[8, 29, 39, 56, 82]",88293391562822,Ba2Y1Cu3Pb2O8
Ba2LaCu3O8,mp-505315,0.0,3.77186996,0.06208251217858152,"{56: 2, 57: 1, 29: 3, 8: 8}","[8, 29, 56, 57]",88293562571,Ba2La1Cu3O8
Ba2PrCu3O8,mp-614964,0.0,2.97842599,0.05929179971940002,"{56: 2, 59: 1, 29: 3, 8: 8}","[8, 29, 56, 59]",88293562591,Ba2Pr1Cu3O8
BaZn(CuO2)4,mp-1046963,0.0,2.38844506,0.1762112928348225,"{56: 1, 30: 1, 29: 4, 8: 8}","[8, 29, 30, 56]",88294301561,Ba1Zn1Cu4O8
Ba2Y(CuO2)4,mp-6790,0.0,2.89409326,0.0,"{56: 2, 39: 1, 29: 4, 8: 8}","[8, 29, 39, 56]",88294391562,Ba2Y1Cu4O8
Ba2Pr(CuO2)4,mp-6779,0.0,2.80833768,0.0,"{56: 2, 59: 1, 29: 4, 8: 8}","[8, 29, 56, 59]",88294562591,Ba2Pr1Cu4O8
Ba2Sm(CuO2)4,mp-1214577,0.0,3.15239895,0.0,"{56: 2, 62: 1, 29: 4, 8: 8}","[8, 29, 56, 62]",88294562621,Ba2Sm1Cu4O8
Ba2Eu(CuO2)4,mp-1214709,0.0,3.04640135,0.013924250500001456,"{56: 2, 63: 1, 29: 4, 8: 8}","[8, 29, 56, 63]",88294562631,Ba2Eu1Cu4O8
Ba2Gd(CuO2)4,mp-1214720,0.0,3.23160584,0.0,"{56: 2, 64: 1, 29: 4, 8: 8}","[8, 29, 56, 64]",88294562641,Ba2Gd1Cu4O8
Ba2Dy(CuO2)4,mp-6691,0.0,2.87374143,0.0,"{56: 2, 66: 1, 29: 4, 8: 8}","[8, 29, 56, 66]",88294562661,Ba2Dy1Cu4O8
Ba2Ho(CuO2)4,mp-6205,0.0,2.86890514,0.0,"{56: 2, 67: 1, 29: 4, 8: 8}","[8, 29, 56, 67]",88294562671,Ba2Ho1Cu4O8
Ba2Er(CuO2)4,mp-6583,0.0,2.88130358,0.0,"{56: 2, 68: 1, 29: 4, 8: 8}","[8, 29, 56, 68]",88294562681,Ba2Er1Cu4O8
Ba2Tm(CuO2)4,mp-6710,0.0,2.88169265,0.0,"{56: 2, 69: 1, 29: 4, 8: 8}","[8, 29, 56, 69]",88294562691,Ba2Tm1Cu4O8
BaIn(Cu3O4)2,mp-1147688,0.0,5.0895157,0.19631329703124845,"{56: 1, 49: 1, 29: 6, 8: 8}","[8, 29, 49, 56]",88296491561,Ba1In1Cu6O8
BaZn(MoO2)4,mp-1044491,0.0,4.61354077,0.5200902283928492,"{56: 1, 30: 1, 42: 4, 8: 8}","[8, 30, 42, 56]",88301424561,Ba1Zn1Mo4O8
BaZn(AgO2)4,mp-1046965,0.0,0.85851008,0.28617239785714066,"{56: 1, 30: 1, 47: 4, 8: 8}","[8, 30, 47, 56]",88301474561,Ba1Zn1Ag4O8
BaZn(SnO2)4,mp-1046984,0.0,5.36822521,0.22845882732142542,"{56: 1, 30: 1, 50: 4, 8: 8}","[8, 30, 50, 56]",88301504561,Ba1Zn1Sn4O8
BaZn(SbO2)4,mp-1046970,0.0,5.83992001,0.3011786481250027,"{56: 1, 30: 1, 51: 4, 8: 8}","[8, 30, 51, 56]",88301514561,Ba1Zn1Sb4O8
BaZn(WO2)4,mp-1044892,0.0,4.34711494,0.7646289423214228,"{56: 1, 30: 1, 74: 4, 8: 8}","[8, 30, 56, 74]",88301561744,Ba1Zn1W4O8
BaZn(BiO2)4,mp-1046956,0.5423,4.28012909,0.22575445125000382,"{56: 1, 30: 1, 83: 4, 8: 8}","[8, 30, 56, 83]",88301561834,Ba1Zn1Bi4O8
Ba2Eu2ZnPtO8,mp-566287,0.0,2.77259256,0.0964689765118818,"{56: 2, 63: 2, 30: 1, 78: 1, 8: 8}","[8, 30, 56, 63, 78]",88301562632781,Ba2Eu2Zn1Pt1O8
BaZn2(AsO4)2,mp-15739,2.9793,-0.32608824,0.0,"{56: 1, 30: 2, 33: 2, 8: 8}","[8, 30, 33, 56]",88302332561,Ba1Zn2As2O8
BaGa2(GeO4)2,mp-540585,3.2464999999999997,-0.48710265,0.0,"{56: 1, 31: 2, 32: 2, 8: 8}","[8, 31, 32, 56]",88312322561,Ba1Ga2Ge2O8
BaGe(AsO4)2,mp-1214433,2.7087,0.77312402,0.02739013374999999,"{56: 1, 32: 1, 33: 2, 8: 8}","[8, 32, 33, 56]",88321332561,Ba1Ge1As2O8
Ba3Cd(GeO4)2,mp-1214603,2.8589,3.88464443,0.03273300976189919,"{56: 3, 48: 1, 32: 2, 8: 8}","[8, 32, 48, 56]",88322481563,Ba3Cd1Ge2O8
BaGe3O8,mp-1182246,0.0,2.30623872,0.1812266428240763,"{56: 1, 32: 3, 8: 8}","[8, 32, 56]",88323561,Ba1Ge3O8
BaZr(AsO4)2,mp-1214231,3.5173,0.03598177,0.0,"{56: 1, 40: 1, 33: 2, 8: 8}","[8, 33, 40, 56]",88332401561,Ba1Zr1As2O8
Ba3(AsO4)2,mp-9783,3.9060000000000006,1.2147142,0.0,"{56: 3, 33: 2, 8: 8}","[8, 33, 56]",88332563,Ba3As2O8
BaU(SeO4)2,mp-1198641,0.10389999999999988,1.69832123,0.6169265835416642,"{56: 1, 92: 1, 34: 2, 8: 8}","[8, 34, 56, 92]",88342561921,Ba1U1Se2O8
Ba3Te3(BrO4)2,mp-1198919,3.2962,1.41429512,0.0,"{56: 3, 52: 3, 35: 2, 8: 8}","[8, 35, 52, 56]",88352523563,Ba3Te3Br2O8
Ba2YMo3O8,mp-1048190,0.0,5.02887888,0.19278852660713852,"{56: 2, 39: 1, 42: 3, 8: 8}","[8, 39, 42, 56]",88391423562,Ba2Y1Mo3O8
Ba2YAg3O8,mp-1041560,0.0,1.88629296,0.05704803620535692,"{56: 2, 39: 1, 47: 3, 8: 8}","[8, 39, 47, 56]",88391473562,Ba2Y1Ag3O8
Ba2YSn3O8,mp-1047749,0.0,6.63820875,0.1926182825111491,"{56: 2, 39: 1, 50: 3, 8: 8}","[8, 39, 50, 56]",88391503562,Ba2Y1Sn3O8
Ba2YSb3O8,mp-1395169,0.0,6.573271,0.3034757028174564,"{56: 2, 39: 1, 51: 3, 8: 8}","[8, 39, 51, 56]",88391513562,Ba2Y1Sb3O8
Ba2YW3O8,mp-1048138,0.0,5.42911504,0.4135648998809369,"{56: 2, 39: 1, 74: 3, 8: 8}","[8, 39, 56, 74]",88391562743,Ba2Y1W3O8
Ba2YBi3O8,mp-1443145,0.08800000000000008,5.7409725,0.20804659674107384,"{56: 2, 39: 1, 83: 3, 8: 8}","[8, 39, 56, 83]",88391562833,Ba2Y1Bi3O8
Ba6ZrO8,mp-755556,2.6917999999999997,1.37811955,0.04802963466666821,"{56: 6, 40: 1, 8: 8}","[8, 40, 56]",88401566,Ba6Zr1O8
Ba3Nb2O8,mp-542201,4.499700000000001,0.34407546,0.0,"{56: 3, 41: 2, 8: 8}","[8, 41, 56]",88412563,Ba3Nb2O8
BaNb5O8,mp-761128,0.0,4.99359115,0.0,"{56: 1, 41: 5, 8: 8}","[8, 41, 56]",88415561,Ba1Nb5O8
Ba(MoO2)4,mp-1047842,0.0,3.09256953,0.5760918365384633,"{56: 1, 42: 4, 8: 8}","[8, 42, 56]",88424561,Ba1Mo4O8
Ba4InSbO8,mp-1228129,2.4138,2.84622777,0.0,"{56: 4, 49: 1, 51: 1, 8: 8}","[8, 49, 51, 56]",88491511564,Ba4In1Sb1O8
Ba(SnO2)4,mp-1047280,0.0,4.05778104,0.33961620817308,"{56: 1, 50: 4, 8: 8}","[8, 50, 56]",88504561,Ba1Sn4O8
Ba2Sb3O8,mp-1042189,0.0,4.96720165,0.14598269084134685,"{56: 2, 51: 3, 8: 8}","[8, 51, 56]",88513562,Ba2Sb3O8
Ba(SbO2)4,mp-1047430,0.0,4.08780181,0.28802616572115625,"{56: 1, 51: 4, 8: 8}","[8, 51, 56]",88514561,Ba1Sb4O8
Ba(WO2)4,mp-1041454,0.0,3.15006038,0.7446431457692331,"{56: 1, 74: 4, 8: 8}","[8, 56, 74]",88561744,Ba1W4O8
Ba(BiO2)4,mp-1047467,0.0,1.76884688,0.2903858886538311,"{56: 1, 83: 4, 8: 8}","[8, 56, 83]",88561834,Ba1Bi4O8
Ba2W3O8,mp-1048194,0.0,4.13631125,0.26910556230768634,"{56: 2, 74: 3, 8: 8}","[8, 56, 74]",88562743,Ba2W3O8
Ba6HfO8,mp-755610,2.4348,1.41741704,0.0637422306666684,"{56: 6, 72: 1, 8: 8}","[8, 56, 72]",88566721,Ba6Hf1O8
Ba2Y3Si2O8F5,mp-1196983,4.8235,1.35532367,0.013951492444453706,"{56: 2, 39: 3, 14: 2, 8: 8, 9: 5}","[8, 9, 14, 39, 56]",8895142393562,Ba2Y3Si2O8F5
BaNaNd(SiO3)3,mp-13791,4.7404,1.54085129,0.0030122432592563086,"{56: 1, 11: 1, 60: 1, 14: 3, 8: 9}","[8, 11, 14, 56, 60]",89111143561601,Ba1Na1Nd1Si3O9
BaNaEu(SiO3)3,mp-1019735,0.0024999999999999467,1.84116025,0.024416350083333427,"{56: 1, 11: 1, 63: 1, 14: 3, 8: 9}","[8, 11, 14, 56, 63]",89111143561631,Ba1Na1Eu1Si3O9
BaNa(PO3)3,mp-13755,5.3055,0.34171245,0.0,"{56: 1, 11: 1, 15: 3, 8: 9}","[8, 11, 15, 56]",89111153561,Ba1Na1P3O9
Ba4NaMn2O9,mp-554477,0.0,1.70714215,0.0,"{56: 4, 11: 1, 25: 2, 8: 9}","[8, 11, 25, 56]",89111252564,Ba4Na1Mn2O9
BaNaNd(GeO3)3,mp-14353,3.4575,0.46769912,0.0,"{56: 1, 11: 1, 60: 1, 32: 3, 8: 9}","[8, 11, 32, 56, 60]",89111323561601,Ba1Na1Nd1Ge3O9
Ba3NaIrRuO9,mp-1228273,0.0,3.06666747,0.0,"{56: 3, 11: 1, 77: 1, 44: 1, 8: 9}","[8, 11, 44, 56, 77]",89111441563771,Ba3Na1Ir1Ru1O9
Ba3NaRu2O9,mp-542123,0.0,3.11406987,0.0,"{56: 3, 11: 1, 44: 2, 8: 9}","[8, 11, 44, 56]",89111442563,Ba3Na1Ru2O9
Ba3NaOs2O9,mp-542208,0.0,3.43909093,0.0,"{56: 3, 11: 1, 76: 2, 8: 9}","[8, 11, 56, 76]",89111563762,Ba3Na1Os2O9
Ba3NaIr2O9,mp-21876,0.0,3.14722166,0.0,"{56: 3, 11: 1, 77: 2, 8: 9}","[8, 11, 56, 77]",89111563772,Ba3Na1Ir2O9
Ba3MgTiWO9,mp-1228118,3.0826000000000002,5.50820251,0.006125285999993402,"{56: 3, 12: 1, 22: 1, 74: 1, 8: 9}","[8, 12, 22, 56, 74]",89121221563741,Ba3Mg1Ti1W1O9
Ba3MgMnNb2O9,mp-2233226,0.0,5.35153843,0.3044991932543084,"{56: 3, 12: 1, 25: 1, 41: 2, 8: 9}","[8, 12, 25, 41, 56]",89121251412563,Ba3Mg1Mn1Nb2O9
Ba3MgMn3O9,mp-2224748,1.0764999999999998,2.97552387,0.10903171669648337,"{56: 3, 12: 1, 25: 3, 8: 9}","[8, 12, 25, 56]",89121253563,Ba3Mg1Mn3O9
Ba3MgNb2CoO9,mp-2232718,0.0,5.18206852,0.28211475875000236,"{56: 3, 12: 1, 41: 2, 27: 1, 8: 9}","[8, 12, 27, 41, 56]",89121271412563,Ba3Mg1Nb2Co1O9
Ba3MgNb2ZnO9,mp-2232814,1.5280999999999998,2.74974771,0.1668630575000014,"{56: 3, 12: 1, 41: 2, 30: 1, 8: 9}","[8, 12, 30, 41, 56]",89121301412563,Ba3Mg1Nb2Zn1O9
Ba3MgTaNbO9,mp-1228058,2.8443,5.21274223,0.0,"{56: 3, 12: 1, 73: 1, 41: 1, 8: 9}","[8, 12, 41, 56, 73]",89121411563731,Ba3Mg1Ta1Nb1O9
Ba3MgNb2O9,mp-6474,2.6479999999999997,2.43097144,0.0,"{56: 3, 12: 1, 41: 2, 8: 9}","[8, 12, 41, 56]",89121412563,Ba3Mg1Nb2O9
Ba3MgIrRuO9,mp-1228263,0.0,3.76417042,0.0005252339999994859,"{56: 3, 12: 1, 77: 1, 44: 1, 8: 9}","[8, 12, 44, 56, 77]",89121441563771,Ba3Mg1Ir1Ru1O9
Ba3MgRu2O9,mp-6520,0.0,3.59536303,0.0,"{56: 3, 12: 1, 44: 2, 8: 9}","[8, 12, 44, 56]",89121442563,Ba3Mg1Ru2O9
Ba3MgSb2O9,mp-16978,2.6494,3.34611634,0.0,"{56: 3, 12: 1, 51: 2, 8: 9}","[8, 12, 51, 56]",89121512563,Ba3Mg1Sb2O9
Ba3MgTa2O9,mp-6325,3.2733,2.51416926,0.0,"{56: 3, 12: 1, 73: 2, 8: 9}","[8, 12, 56, 73]",89121563732,Ba3Mg1Ta2O9
Ba3MgIr2O9,mp-554909,0.0,3.92016978,0.0,"{56: 3, 12: 1, 77: 2, 8: 9}","[8, 12, 56, 77]",89121563772,Ba3Mg1Ir2O9
BaAl5O9,mp-1193237,0.0,2.4335671,0.09309166346428732,"{56: 1, 13: 5, 8: 9}","[8, 13, 56]",89135561,Ba1Al5O9
BaMn2FeSi2O9,mp-1193263,0.023299999999999876,4.21396277,0.02641812675002697,"{56: 1, 25: 2, 26: 1, 14: 2, 8: 9}","[8, 14, 25, 26, 56]",89142252261561,Ba1Mn2Fe1Si2O9
Ba2Mn2Si2O9,mp-558695,1.9934,1.92539766,0.0,"{56: 2, 25: 2, 14: 2, 8: 9}","[8, 14, 25, 56]",89142252562,Ba2Mn2Si2O9
BaSi2O9,mp-1182475,0.055400000000000005,0.92193895,0.43864983187500783,"{56: 1, 14: 2, 8: 9}","[8, 14, 56]",89142561,Ba1Si2O9
K4Ba(SiO3)3,mp-558347,4.2288,0.73926285,0.0020140820588245845,"{19: 4, 56: 1, 14: 3, 8: 9}","[8, 14, 19, 56]",89143194561,K4Ba1Si3O9
BaCa2(SiO3)3,mp-18216,4.5847,2.2434016,0.0055512375555446525,"{56: 1, 20: 2, 14: 3, 8: 9}","[8, 14, 20, 56]",89143202561,Ba1Ca2Si3O9
RbBaSc(SiO3)3,mp-1197457,4.9748,6.44475026,0.0,"{37: 1, 56: 1, 21: 1, 14: 3, 8: 9}","[8, 14, 21, 37, 56]",89143211371561,Rb1Ba1Sc1Si3O9
BaTi(SiO3)3,mp-6661,3.0661000000000005,1.81895278,0.0,"{56: 1, 22: 1, 14: 3, 8: 9}","[8, 14, 22, 56]",89143221561,Ba1Ti1Si3O9
BaZr(SiO3)3,mp-1214228,4.6556,5.84915459,0.0,"{56: 1, 40: 1, 14: 3, 8: 9}","[8, 14, 40, 56]",89143401561,Ba1Zr1Si3O9
BaSi3SnO9,mp-18502,3.7306000000000004,2.11450466,0.0,"{56: 1, 14: 3, 50: 1, 8: 9}","[8, 14, 50, 56]",89143501561,Ba1Si3Sn1O9
BaHf(SiO3)3,mp-1194160,4.6887,1.47367833,0.0,"{56: 1, 72: 1, 14: 3, 8: 9}","[8, 14, 56, 72]",89143561721,Ba1Hf1Si3O9
BaSi4O9,mp-9478,4.3452,2.88327289,0.03444318077381503,"{56: 1, 14: 4, 8: 9}","[8, 14, 56]",89144561,Ba1Si4O9
BaP2S2O9,mp-1182371,0.0,1.01377032,1.0904425642410702,"{56: 1, 15: 2, 16: 2, 8: 9}","[8, 15, 16, 56]",89152162561,Ba1P2S2O9
BaCaVP2O9,mp-558004,2.3219000000000003,2.08088916,0.007138180982170894,"{56: 1, 20: 1, 23: 1, 15: 2, 8: 9}","[8, 15, 20, 23, 56]",89152201231561,Ba1Ca1V1P2O9
BaVZnP2O9,mp-15531,2.3917,1.89887055,0.012603547964290307,"{56: 1, 23: 1, 30: 1, 15: 2, 8: 9}","[8, 15, 23, 30, 56]",89152231301561,Ba1V1Zn1P2O9
BaVCdP2O9,mp-699566,2.4525,1.66091312,0.013631266964285516,"{56: 1, 23: 1, 48: 1, 15: 2, 8: 9}","[8, 15, 23, 48, 56]",89152231481561,Ba1V1Cd1P2O9
Ba2VP2O9,mp-554810,2.5501,1.46240747,0.0,"{56: 2, 23: 1, 15: 2, 8: 9}","[8, 15, 23, 56]",89152231562,Ba2V1P2O9
BaMn2P2O9,mp-726803,1.1844000000000001,1.8457299,0.027240136150792793,"{56: 1, 25: 2, 15: 2, 8: 9}","[8, 15, 25, 56]",89152252561,Ba1Mn2P2O9
Ba2CuP2O9,mp-1192522,0.0,1.30794224,0.04802044388393423,"{56: 2, 29: 1, 15: 2, 8: 9}","[8, 15, 29, 56]",89152291562,Ba2Cu1P2O9
Ba2TeP2O9,mp-560742,3.4372,1.86184276,0.0,"{56: 2, 52: 1, 15: 2, 8: 9}","[8, 15, 52, 56]",89152521562,Ba2Te1P2O9
BaAg(PO3)3,mp-10070,3.1971,1.4091374,0.0,"{56: 1, 47: 1, 15: 3, 8: 9}","[8, 15, 47, 56]",89153471561,Ba1Ag1P3O9
BaTl(PO3)3,mp-1214441,4.8597,1.01931486,0.002345265178570699,"{56: 1, 81: 1, 15: 3, 8: 9}","[8, 15, 56, 81]",89153561811,Ba1Tl1P3O9
BaTeS4O9,mp-1182586,0.5570000000000002,0.68008708,0.7325291542916643,"{56: 1, 52: 1, 16: 4, 8: 9}","[8, 16, 52, 56]",89164521561,Ba1Te1S4O9
Ba5Ru2ClO9,mp-561481,0.0,3.52916025,0.0685175001470606,"{56: 5, 44: 2, 17: 1, 8: 9}","[8, 17, 44, 56]",89171442565,Ba5Ru2Cl1O9
Ba5Ru2Cl2O9,mp-556443,0.0,2.33159763,0.013072286388889687,"{56: 5, 44: 2, 17: 2, 8: 9}","[8, 17, 44, 56]",89172442565,Ba5Ru2Cl2O9
Ba5Ta2Cl2O9,mp-559378,3.5216000000000003,0.93929065,0.0,"{56: 5, 73: 2, 17: 2, 8: 9}","[8, 17, 56, 73]",89172565732,Ba5Ta2Cl2O9
KBa2Nb3O9,mp-1223493,0.0,4.70625364,0.0,"{19: 1, 56: 2, 41: 3, 8: 9}","[8, 19, 41, 56]",89191413562,K1Ba2Nb3O9
KBa2SmBi2O9,mp-1223600,0.0,2.32004422,0.7453917419999971,"{19: 1, 56: 2, 62: 1, 83: 2, 8: 9}","[8, 19, 56, 62, 83]",89191562621832,K1Ba2Sm1Bi2O9
KBa2DyBi2O9,mp-676664,0.0,1.85105435,0.8300762581666667,"{19: 1, 56: 2, 66: 1, 83: 2, 8: 9}","[8, 19, 56, 66, 83]",89191562661832,K1Ba2Dy1Bi2O9
KBa2Bi2O9,mp-1223544,0.0,1.21773539,0.20347243241071755,"{19: 1, 56: 2, 83: 2, 8: 9}","[8, 19, 56, 83]",89191562832,K1Ba2Bi2O9
KBa2(BiO3)3,mp-1223518,0.0,3.46143017,0.001551682833333956,"{19: 1, 56: 2, 83: 3, 8: 9}","[8, 19, 56, 83]",89191562833,K1Ba2Bi3O9
K2Ba(BiO3)3,mp-1223672,0.0,2.58339382,0.020939928166666455,"{19: 2, 56: 1, 83: 3, 8: 9}","[8, 19, 56, 83]",89192561833,K2Ba1Bi3O9
K4Ba(GeO3)3,mp-557584,3.4159,-0.21903487,0.0,"{19: 4, 56: 1, 32: 3, 8: 9}","[8, 19, 32, 56]",89194323561,K4Ba1Ge3O9
Ba3CaTiWO9,mp-1228204,3.146,2.05172776,0.01688677333332045,"{56: 3, 20: 1, 22: 1, 74: 1, 8: 9}","[8, 20, 22, 56, 74]",89201221563741,Ba3Ca1Ti1W1O9
Ba3CaZrWO9,mp-736122,0.0,3.23415928,0.175183165222208,"{56: 3, 20: 1, 40: 1, 74: 1, 8: 9}","[8, 20, 40, 56, 74]",89201401563741,Ba3Ca1Zr1W1O9
Ba3CaNb2O9,mp-1214569,2.6460000000000004,2.05551185,0.0,"{56: 3, 20: 1, 41: 2, 8: 9}","[8, 20, 41, 56]",89201412563,Ba3Ca1Nb2O9
Ba3CaRu2O9,mp-6443,0.0,3.37780867,0.0,"{56: 3, 20: 1, 44: 2, 8: 9}","[8, 20, 44, 56]",89201442563,Ba3Ca1Ru2O9
Ba3CaSb2O9,mp-554817,3.1711000000000005,2.76092689,0.0,"{56: 3, 20: 1, 51: 2, 8: 9}","[8, 20, 51, 56]",89201512563,Ba3Ca1Sb2O9
Ba3CaTa2O9,mp-1228141,3.2256999999999993,2.17085649,0.0,"{56: 3, 20: 1, 73: 2, 8: 9}","[8, 20, 56, 73]",89201563732,Ba3Ca1Ta2O9
Ba3CaIr2O9,mp-17448,0.0,3.51789151,0.0,"{56: 3, 20: 1, 77: 2, 8: 9}","[8, 20, 56, 77]",89201563772,Ba3Ca1Ir2O9
Ba3CaBi2O9,mp-1228277,0.25039999999999996,2.61188071,0.0,"{56: 3, 20: 1, 83: 2, 8: 9}","[8, 20, 56, 83]",89201563832,Ba3Ca1Bi2O9
Ba2ScTi2BiO9,mp-1228409,2.1294000000000004,3.52993822,0.08803745062499324,"{56: 2, 21: 1, 22: 2, 83: 1, 8: 9}","[8, 21, 22, 56, 83]",89211222562831,Ba2Sc1Ti2Bi1O9
Ba4Sc2Cu2O9,mp-1228084,0.5834000000000001,2.25957844,0.0,"{56: 4, 21: 2, 29: 2, 8: 9}","[8, 21, 29, 56]",89212292564,Ba4Sc2Cu2O9
BaLa2TiCr2O9,mp-1227920,0.0,7.22104876,0.037949567000003626,"{56: 1, 57: 2, 22: 1, 24: 2, 8: 9}","[8, 22, 24, 56, 57]",89221242561572,Ba1La2Ti1Cr2O9
Ba3TiFe2O9,mp-1228231,0.24630000000000019,2.80830639,0.0,"{56: 3, 22: 1, 26: 2, 8: 9}","[8, 22, 26, 56]",89221262563,Ba3Ti1Fe2O9
Ba4Ti(CuO3)3,mp-1147699,0.28480000000000016,3.22485049,0.05057871088235366,"{56: 4, 22: 1, 29: 3, 8: 9}","[8, 22, 29, 56]",89221293564,Ba4Ti1Cu3O9
Ba3TiZnWO9,mp-1228110,3.0816999999999997,2.17905971,0.004522152666668333,"{56: 3, 22: 1, 30: 1, 74: 1, 8: 9}","[8, 22, 30, 56, 74]",89221301563741,Ba3Ti1Zn1W1O9
BaTi(GeO3)3,mp-1214320,2.9973,3.43023041,0.007699597083333565,"{56: 1, 22: 1, 32: 3, 8: 9}","[8, 22, 32, 56]",89221323561,Ba1Ti1Ge3O9
BaTi4O9,mp-3175,2.7041999999999997,2.15618378,0.01013069906249875,"{56: 1, 22: 4, 8: 9}","[8, 22, 56]",89224561,Ba1Ti4O9
Ba4Ti4O9,mp-530879,0.0,5.03762986,0.10385415156862798,"{56: 4, 22: 4, 8: 9}","[8, 22, 56]",89224564,Ba4Ti4O9
Ba2V2FeO9,mp-1214659,0.29999999999999993,0.53912248,0.04725417633928597,"{56: 2, 23: 2, 26: 1, 8: 9}","[8, 23, 26, 56]",89232261562,Ba2V2Fe1O9
Ba2V3O9,mp-32531,1.5728,1.04786449,0.016287927678614977,"{56: 2, 23: 3, 8: 9}","[8, 23, 56]",89233562,Ba2V3O9
BaV4O9,mp-18910,0.8127000000000004,3.28605248,0.0508895567410832,"{56: 1, 23: 4, 8: 9}","[8, 23, 56]",89234561,Ba1V4O9
Ba3Cr2MoO9,mp-557755,0.0,4.28842659,0.0,"{56: 3, 24: 2, 42: 1, 8: 9}","[8, 24, 42, 56]",89242421563,Ba3Cr2Mo1O9
Ba3Cr2WO9,mp-541512,0.0,4.46871492,0.0,"{56: 3, 24: 2, 74: 1, 8: 9}","[8, 24, 56, 74]",89242563741,Ba3Cr2W1O9
Ba3MnNb2O9,mp-20921,1.7737999999999996,3.01115303,0.0,"{56: 3, 25: 1, 41: 2, 8: 9}","[8, 25, 41, 56]",89251412563,Ba3Mn1Nb2O9
Ba3MnSb2O9,mp-17341,1.5103,4.11108756,0.0,"{56: 3, 25: 1, 51: 2, 8: 9}","[8, 25, 51, 56]",89251512563,Ba3Mn1Sb2O9
Ba3Ta2MnO9,mp-1214505,2.3735,3.03439264,0.0,"{56: 3, 73: 2, 25: 1, 8: 9}","[8, 25, 56, 73]",89251563732,Ba3Ta2Mn1O9
Ba3Mn2RuO9,mp-1228085,0.19849999999999968,3.35068447,0.027114301611128155,"{56: 3, 25: 2, 44: 1, 8: 9}","[8, 25, 44, 56]",89252441563,Ba3Mn2Ru1O9
Ba3ErMn2O9,mp-555498,0.0,1.90344053,0.0,"{56: 3, 68: 1, 25: 2, 8: 9}","[8, 25, 56, 68]",89252563681,Ba3Er1Mn2O9
Ba3Mn2IrO9,mp-1228074,0.0,3.14619195,0.028166020319464913,"{56: 3, 25: 2, 77: 1, 8: 9}","[8, 25, 56, 77]",89252563771,Ba3Mn2Ir1O9
BaLaPrMn3O9,mp-1227919,0.0,4.9472146,0.0804771165111724,"{56: 1, 57: 1, 59: 1, 25: 3, 8: 9}","[8, 25, 56, 57, 59]",89253561571591,Ba1La1Pr1Mn3O9
BaLaNdMn3O9,mp-1227936,0.0,4.96719906,0.08513661684449936,"{56: 1, 57: 1, 60: 1, 25: 3, 8: 9}","[8, 25, 56, 57, 60]",89253561571601,Ba1La1Nd1Mn3O9
BaLaSmMn3O9,mp-1227930,0.0,4.89423579,0.09411741017781772,"{56: 1, 57: 1, 62: 1, 25: 3, 8: 9}","[8, 25, 56, 57, 62]",89253561571621,Ba1La1Sm1Mn3O9
BaLa2Mn3O9,mp-690460,0.0,5.50126286,0.13582700995221586,"{56: 1, 57: 2, 25: 3, 8: 9}","[8, 25, 56, 57]",89253561572,Ba1La2Mn3O9
BaPr2Mn3O9,mp-1227914,0.0,4.13585513,0.03316455455557232,"{56: 1, 59: 2, 25: 3, 8: 9}","[8, 25, 56, 59]",89253561592,Ba1Pr2Mn3O9
Ba3FeRu2O9,mp-1214638,0.0,3.84682616,0.0,"{56: 3, 26: 1, 44: 2, 8: 9}","[8, 26, 44, 56]",89261442563,Ba3Fe1Ru2O9
Ba3DyUFeO9,mp-706328,1.4773,2.57727096,0.17243840758333384,"{56: 3, 66: 1, 92: 1, 26: 1, 8: 9}","[8, 26, 56, 66, 92]",89261563661921,Ba3Dy1U1Fe1O9
Ba3HoUFeO9,mp-694975,1.4135,2.42715505,0.20744435991666776,"{56: 3, 67: 1, 92: 1, 26: 1, 8: 9}","[8, 26, 56, 67, 92]",89261563671921,Ba3Ho1U1Fe1O9
BaNb2Fe2O9,mp-1022731,1.0838999999999999,0.96854878,0.09400010875000397,"{56: 1, 41: 2, 26: 2, 8: 9}","[8, 26, 41, 56]",89262412561,Ba1Nb2Fe2O9
Ba3Fe2TeO9,mp-1228445,1.7012999999999998,5.00124229,0.0,"{56: 3, 26: 2, 52: 1, 8: 9}","[8, 26, 52, 56]",89262521563,Ba3Fe2Te1O9