formula,material_id,band_gap,efermi,energy_above_hull,comp_atoms,sorted_keys_comp_atoms,comp_number,new_formula
Ba2YMgCo3O8,mp-2228739,0.0,3.47846748,0.17959989095833695,"{56: 2, 39: 1, 12: 1, 27: 3, 8: 8}","[8, 12, 27, 39, 56]",88121273391562,Ba2Y1Mg1Co3O8
BaMg(CoO2)4,mp-1044533,0.0,2.33482764,0.21935222133119403,"{56: 1, 12: 1, 27: 4, 8: 8}","[8, 12, 27, 56]",88121274561,Ba1Mg1Co4O8
Ba2NdMgNb(CuO4)2,mp-2232363,0.8567,3.93515918,0.30679798933332236,"{56: 2, 60: 1, 12: 1, 41: 1, 29: 2, 8: 8}","[8, 12, 29, 41, 56, 60]",88121292411562601,Ba2Nd1Mg1Nb1Cu2O8
Ba2LaMgTa(CuO4)2,mp-2232472,0.7027000000000001,4.66129007,0.3247076486666689,"{56: 2, 57: 1, 12: 1, 73: 1, 29: 2, 8: 8}","[8, 12, 29, 56, 57, 73]",88121292562571731,Ba2La1Mg1Ta1Cu2O8
Ba2YMg(CuO2)4,mp-2232926,0.0,3.97694327,0.2030189568593741,"{56: 2, 39: 1, 12: 1, 29: 4, 8: 8}","[8, 12, 29, 39, 56]",88121294391562,Ba2Y1Mg1Cu4O8
Ba2PrMg(CuO2)4,mp-2240946,0.0,3.46355291,0.17998297660937457,"{56: 2, 59: 1, 12: 1, 29: 4, 8: 8}","[8, 12, 29, 56, 59]",88121294562591,Ba2Pr1Mg1Cu4O8
Ba2EuMg(CuO2)4,mp-1234183,0.0,2.86649266,0.20437010828124968,"{56: 2, 63: 1, 12: 1, 29: 4, 8: 8}","[8, 12, 29, 56, 63]",88121294562631,Ba2Eu1Mg1Cu4O8
Ba2DyMg(CuO2)4,mp-2233040,0.0,4.00030102,0.20337575900000004,"{56: 2, 66: 1, 12: 1, 29: 4, 8: 8}","[8, 12, 29, 56, 66]",88121294562661,Ba2Dy1Mg1Cu4O8
Ba2HoMg(CuO2)4,mp-2233244,0.0,3.91505415,0.2032245462343747,"{56: 2, 67: 1, 12: 1, 29: 4, 8: 8}","[8, 12, 29, 56, 67]",88121294562671,Ba2Ho1Mg1Cu4O8
Ba2ErMg(CuO2)4,mp-2241055,0.0,3.99863241,0.2055219820000005,"{56: 2, 68: 1, 12: 1, 29: 4, 8: 8}","[8, 12, 29, 56, 68]",88121294562681,Ba2Er1Mg1Cu4O8
Ba2TmMg(CuO2)4,mp-2241328,0.0,3.97697694,0.20632171415624967,"{56: 2, 69: 1, 12: 1, 29: 4, 8: 8}","[8, 12, 29, 56, 69]",88121294562691,Ba2Tm1Mg1Cu4O8
Ba4Mg(CuO2)4,mp-2229481,0.0,2.4707407,0.1622928902941112,"{56: 4, 12: 1, 29: 4, 8: 8}","[8, 12, 29, 56]",88121294564,Ba4Mg1Cu4O8
Ba3MgNb2O8,mp-2226883,0.0,4.6084265,0.3667692867142822,"{56: 3, 12: 1, 41: 2, 8: 8}","[8, 12, 41, 56]",88121412563,Ba3Mg1Nb2O8
Ba2Mg(MoO4)2,mp-2218462,1.4981,2.6663429,0.18532824384613988,"{56: 2, 12: 1, 42: 2, 8: 8}","[8, 12, 42, 56]",88121422562,Ba2Mg1Mo2O8
BaMg(MoO2)4,mp-1044540,0.0,4.91822589,0.48882162053570344,"{56: 1, 12: 1, 42: 4, 8: 8}","[8, 12, 42, 56]",88121424561,Ba1Mg1Mo4O8
BaMg(AgO2)4,mp-1046961,0.0,0.97072582,0.29233904642856245,"{56: 1, 12: 1, 47: 4, 8: 8}","[8, 12, 47, 56]",88121474561,Ba1Mg1Ag4O8
BaMg(SnO2)4,mp-1046957,0.0,5.68256721,0.21253573589285324,"{56: 1, 12: 1, 50: 4, 8: 8}","[8, 12, 50, 56]",88121504561,Ba1Mg1Sn4O8
BaMg(SbO2)4,mp-1046897,0.0,6.12133337,0.3032715983035752,"{56: 1, 12: 1, 51: 4, 8: 8}","[8, 12, 51, 56]",88121514561,Ba1Mg1Sb4O8
BaMg(WO2)4,mp-1044474,0.0,4.61610533,0.741761198571421,"{56: 1, 12: 1, 74: 4, 8: 8}","[8, 12, 56, 74]",88121561744,Ba1Mg1W4O8
BaMg(BiO2)4,mp-1046893,0.6147999999999998,4.54221493,0.20264153839286347,"{56: 1, 12: 1, 83: 4, 8: 8}","[8, 12, 56, 83]",88121561834,Ba1Mg1Bi4O8
Ba2Mg(WO4)2,mp-2226861,0.9581000000000004,3.27298625,0.18730081038460966,"{56: 2, 12: 1, 74: 2, 8: 8}","[8, 12, 56, 74]",88121562742,Ba2Mg1W2O8
BaMg2V2O8,mp-19084,3.5516,1.12296418,0.0,"{56: 1, 12: 2, 23: 2, 8: 8}","[8, 12, 23, 56]",88122232561,Ba1Mg2V2O8
BaMg6AlO8,mp-1033059,0.0,8.07882992,0.4820323302943885,"{56: 1, 12: 6, 13: 1, 8: 8}","[8, 12, 13, 56]",88126131561,Ba1Mg6Al1O8
BaMg6SiO8,mp-1030830,0.2602000000000002,5.92603223,0.628653716640625,"{56: 1, 12: 6, 14: 1, 8: 8}","[8, 12, 14, 56]",88126141561,Ba1Mg6Si1O8
BaCaMg6O8,mp-1031868,0.7323999999999993,4.50499021,0.3437068349999999,"{56: 1, 20: 1, 12: 6, 8: 8}","[8, 12, 20, 56]",88126201561,Ba1Ca1Mg6O8
BaMg6TiO8,mp-1031397,0.0,6.62677656,0.469495694517045,"{56: 1, 12: 6, 22: 1, 8: 8}","[8, 12, 22, 56]",88126221561,Ba1Mg6Ti1O8
BaMg6VO8,mp-1031593,0.6301999999999994,4.95631932,0.3830843269531279,"{56: 1, 12: 6, 23: 1, 8: 8}","[8, 12, 23, 56]",88126231561,Ba1Mg6V1O8
BaMg6CrO8,mp-1033461,0.0,5.46276501,0.3977540794270853,"{56: 1, 12: 6, 24: 1, 8: 8}","[8, 12, 24, 56]",88126241561,Ba1Mg6Cr1O8
BaMg6MnO8,mp-1032679,0.4737999999999998,4.72415714,0.35523337148437406,"{56: 1, 12: 6, 25: 1, 8: 8}","[8, 12, 25, 56]",88126251561,Ba1Mg6Mn1O8
BaMg6FeO8,mp-1032152,0.3263999999999996,4.92185737,0.3685249533482162,"{56: 1, 12: 6, 26: 1, 8: 8}","[8, 12, 26, 56]",88126261561,Ba1Mg6Fe1O8
BaMg6CoO8,mp-1032360,0.0,5.16402034,0.39335809479166617,"{56: 1, 12: 6, 27: 1, 8: 8}","[8, 12, 27, 56]",88126271561,Ba1Mg6Co1O8
BaMg6CuO8,mp-1032324,0.0,4.61485405,0.3822140390625002,"{56: 1, 12: 6, 29: 1, 8: 8}","[8, 12, 29, 56]",88126291561,Ba1Mg6Cu1O8
BaMg6ZnO8,mp-1032037,0.7087000000000003,4.43641685,0.38410804791666653,"{56: 1, 12: 6, 30: 1, 8: 8}","[8, 12, 30, 56]",88126301561,Ba1Mg6Zn1O8
BaYMg6O8,mp-1032663,0.0,6.71757415,0.41357575578124983,"{56: 1, 39: 1, 12: 6, 8: 8}","[8, 12, 39, 56]",88126391561,Ba1Y1Mg6O8
BaMg6NbO8,mp-1033386,0.0,6.47743719,0.5267501334999984,"{56: 1, 12: 6, 41: 1, 8: 8}","[8, 12, 41, 56]",88126411561,Ba1Mg6Nb1O8
BaMg6CdO8,mp-1033419,0.14890000000000025,4.32760579,0.3485665235937505,"{56: 1, 12: 6, 48: 1, 8: 8}","[8, 12, 48, 56]",88126481561,Ba1Mg6Cd1O8
BaMg6SnO8,mp-1031535,0.0,6.51319745,0.45646696453124935,"{56: 1, 12: 6, 50: 1, 8: 8}","[8, 12, 50, 56]",88126501561,Ba1Mg6Sn1O8
BaHfMg6O8,mp-1033337,0.0,7.02842027,0.5551941971875065,"{56: 1, 72: 1, 12: 6, 8: 8}","[8, 12, 56, 72]",88126561721,Ba1Hf1Mg6O8
BaMg6BiO8,mp-1033406,0.0,6.02960787,0.494400804687503,"{56: 1, 12: 6, 83: 1, 8: 8}","[8, 12, 56, 83]",88126561831,Ba1Mg6Bi1O8
Ba2Ti3AlO8,mp-1041926,0.0,6.19000346,0.33562975241069637,"{56: 2, 22: 3, 13: 1, 8: 8}","[8, 13, 22, 56]",88131223562,Ba2Ti3Al1O8
Ba2AlV3O8,mp-1048162,0.0,5.24641399,0.3117751203615313,"{56: 2, 13: 1, 23: 3, 8: 8}","[8, 13, 23, 56]",88131233562,Ba2Al1V3O8
Ba2AlCr3O8,mp-1048171,0.0,4.29025332,0.38067391696428654,"{56: 2, 13: 1, 24: 3, 8: 8}","[8, 13, 24, 56]",88131243562,Ba2Al1Cr3O8
Ba2Mn3AlO8,mp-1048103,0.0,3.78644733,0.29070893241073037,"{56: 2, 25: 3, 13: 1, 8: 8}","[8, 13, 25, 56]",88131253562,Ba2Mn3Al1O8
Ba2AlFe3O8,mp-1048153,0.0,4.71400509,0.2809904241964567,"{56: 2, 13: 1, 26: 3, 8: 8}","[8, 13, 26, 56]",88131263562,Ba2Al1Fe3O8
Ba2AlCo3O8,mp-1048180,0.0,3.69143199,0.31601358517858635,"{56: 2, 13: 1, 27: 3, 8: 8}","[8, 13, 27, 56]",88131273562,Ba2Al1Co3O8
Ba2AlCu3O8,mp-1042435,0.0,3.80204046,0.29059212717533,"{56: 2, 13: 1, 29: 3, 8: 8}","[8, 13, 29, 56]",88131293562,Ba2Al1Cu3O8
Ba2AlMo3O8,mp-1048236,0.0,4.62574959,0.361951827589281,"{56: 2, 13: 1, 42: 3, 8: 8}","[8, 13, 42, 56]",88131423562,Ba2Al1Mo3O8
Ba2AlAg3O8,mp-1042222,0.0,2.3568527,0.3534434427678601,"{56: 2, 13: 1, 47: 3, 8: 8}","[8, 13, 47, 56]",88131473562,Ba2Al1Ag3O8
Ba2AlSn3O8,mp-1042344,0.0,6.27589592,0.46990597544642565,"{56: 2, 13: 1, 50: 3, 8: 8}","[8, 13, 50, 56]",88131503562,Ba2Al1Sn3O8
Ba2AlSb3O8,mp-1042580,0.0,6.0351606,0.5362611593303601,"{56: 2, 13: 1, 51: 3, 8: 8}","[8, 13, 51, 56]",88131513562,Ba2Al1Sb3O8
Ba2AlW3O8,mp-1048143,0.0,5.00300061,0.6424208243749927,"{56: 2, 13: 1, 74: 3, 8: 8}","[8, 13, 56, 74]",88131562743,Ba2Al1W3O8
Ba2AlBi3O8,mp-1042329,0.0,5.23121557,0.5611408675000087,"{56: 2, 13: 1, 83: 3, 8: 8}","[8, 13, 56, 83]",88131562833,Ba2Al1Bi3O8
BaAl2(SiO4)2,mp-6091,4.819699999999999,1.029435,0.0,"{56: 1, 13: 2, 14: 2, 8: 8}","[8, 13, 14, 56]",88132142561,Ba1Al2Si2O8
BaAl2(GeO4)2,mp-556178,3.8925,0.19214376,0.0,"{56: 1, 13: 2, 32: 2, 8: 8}","[8, 13, 32, 56]",88132322561,Ba1Al2Ge2O8
BaAl2O8,mp-725936,0.0,-0.54659313,0.5786483958471065,"{56: 1, 13: 2, 8: 8}","[8, 13, 56]",88132561,Ba1Al2O8
Ba2Ti(SiO4)2,mp-6081,3.7274000000000003,1.45338154,0.0,"{56: 2, 22: 1, 14: 2, 8: 8}","[8, 14, 22, 56]",88142221562,Ba2Ti1Si2O8
Ba2V(SiO4)2,mp-19179,2.6343,2.39014951,0.0,"{56: 2, 23: 1, 14: 2, 8: 8}","[8, 14, 23, 56]",88142231562,Ba2V1Si2O8
BaGa2(SiO4)2,mp-6759,4.0084,0.39800074,0.0,"{56: 1, 31: 2, 14: 2, 8: 8}","[8, 14, 31, 56]",88142312561,Ba1Ga2Si2O8
Ba3Cd(SiO4)2,mp-1214580,3.5869999999999997,1.9431773,0.019660572678570354,"{56: 3, 48: 1, 14: 2, 8: 8}","[8, 14, 48, 56]",88142481563,Ba3Cd1Si2O8
BaU(SiO4)2,mp-555561,2.3906,1.94093315,0.018069972152776614,"{56: 1, 92: 1, 14: 2, 8: 8}","[8, 14, 56, 92]",88142561921,Ba1U1Si2O8
Ba2Si3O8,mp-29222,4.5119,1.20459023,0.0,"{56: 2, 14: 3, 8: 8}","[8, 14, 56]",88143562,Ba2Si3O8
BaNbTePO8,mp-560794,2.7977,1.88560993,0.0,"{56: 1, 41: 1, 52: 1, 15: 1, 8: 8}","[8, 15, 41, 52, 56]",88151411521561,Ba1Nb1Te1P1O8
BaTi(PO4)2,mp-1214296,2.5923999999999996,1.04938495,0.0,"{56: 1, 22: 1, 15: 2, 8: 8}","[8, 15, 22, 56]",88152221561,Ba1Ti1P2O8
Ba2Mn(PO4)2,mp-19487,2.0342999999999996,3.17557527,0.0,"{56: 2, 25: 1, 15: 2, 8: 8}","[8, 15, 25, 56]",88152251562,Ba2Mn1P2O8
BaFe2(PO4)2,mp-1103865,2.1328,2.64470123,0.0,"{56: 1, 26: 2, 15: 2, 8: 8}","[8, 15, 26, 56]",88152262561,Ba1Fe2P2O8
Ba2Co(PO4)2,mp-505731,1.4643,1.93023804,0.0006765121153575748,"{56: 2, 27: 1, 15: 2, 8: 8}","[8, 15, 27, 56]",88152271562,Ba2Co1P2O8
BaCo2(PO4)2,mp-1194023,2.2840999999999996,1.21513299,0.0,"{56: 1, 27: 2, 15: 2, 8: 8}","[8, 15, 27, 56]",88152272561,Ba1Co2P2O8
Ba2Cu(PO4)2,mp-9372,0.0,1.76147329,0.0,"{56: 2, 29: 1, 15: 2, 8: 8}","[8, 15, 29, 56]",88152291562,Ba2Cu1P2O8
BaCu2(PO4)2,mp-654359,0.3255000000000001,2.19799212,0.01228707634616022,"{56: 1, 29: 2, 15: 2, 8: 8}","[8, 15, 29, 56]",88152292561,Ba1Cu2P2O8
BaZn2(PO4)2,mp-6089,4.0373,0.29590031,0.0,"{56: 1, 30: 2, 15: 2, 8: 8}","[8, 15, 30, 56]",88152302561,Ba1Zn2P2O8
BaGe(PO4)2,mp-1095485,4.1615,1.69028441,0.0,"{56: 1, 32: 1, 15: 2, 8: 8}","[8, 15, 32, 56]",88152321561,Ba1Ge1P2O8
BaZr(PO4)2,mp-556139,4.158799999999999,0.52391423,0.0,"{56: 1, 40: 1, 15: 2, 8: 8}","[8, 15, 40, 56]",88152401561,Ba1Zr1P2O8
BaMo(PO4)2,mp-1542939,1.7041999999999997,1.77741582,0.0,"{56: 1, 42: 1, 15: 2, 8: 8}","[8, 15, 42, 56]",88152421561,Ba1Mo1P2O8
BaSn(PO4)2,mp-1102308,3.7034999999999996,1.58480691,0.0,"{56: 1, 50: 1, 15: 2, 8: 8}","[8, 15, 50, 56]",88152501561,Ba1Sn1P2O8
Ba(PO4)2,mp-1191385,0.0,-1.63315374,0.2644443006818058,"{56: 1, 15: 2, 8: 8}","[8, 15, 56]",88152561,Ba1P2O8
BaHf(PO4)2,mp-545548,4.9273,0.65454443,0.0,"{56: 1, 72: 1, 15: 2, 8: 8}","[8, 15, 56, 72]",88152561721,Ba1Hf1P2O8
BaTh(PO4)2,mp-1192105,5.0577000000000005,2.48097885,0.0,"{56: 1, 90: 1, 15: 2, 8: 8}","[8, 15, 56, 90]",88152561901,Ba1Th1P2O8
BaNp(PO4)2,mp-1191675,0.0,4.83385995,0.0,"{56: 1, 93: 1, 15: 2, 8: 8}","[8, 15, 56, 93]",88152561931,Ba1Np1P2O8
Ba3(PO4)2,mp-3857,5.1422,2.029845,0.0,"{56: 3, 15: 2, 8: 8}","[8, 15, 56]",88152563,Ba3P2O8
Ba(SO4)2,mp-1182450,0.1563,-0.60486943,0.5218811952272668,"{56: 1, 16: 2, 8: 8}","[8, 16, 56]",88162561,Ba1S2O8
BaPb(SO4)2,mp-1227878,4.2418000000000005,1.94143951,0.00451391249999844,"{56: 1, 82: 1, 16: 2, 8: 8}","[8, 16, 56, 82]",88162561821,Ba1Pb1S2O8
BaSe(SO2)4,mp-1202467,0.0,-1.07556263,0.6999853245588872,"{56: 1, 34: 1, 16: 4, 8: 8}","[8, 16, 34, 56]",88164341561,Ba1Se1S4O8
BaTe(SO2)4,mp-1193998,0.34440000000000004,-0.30624585,0.45094927397321527,"{56: 1, 52: 1, 16: 4, 8: 8}","[8, 16, 52, 56]",88164521561,Ba1Te1S4O8
Ba(SO2)4,mp-1197994,0.1457,-0.36383862,0.4118250932692318,"{56: 1, 16: 4, 8: 8}","[8, 16, 56]",88164561,Ba1S4O8
BaS5O8,mp-1194419,0.09300000000000008,-0.82887757,0.6653105403571455,"{56: 1, 16: 5, 8: 8}","[8, 16, 56]",88165561,Ba1S5O8
Ba2V2CuClO8,mp-1195300,0.0,1.62447704,0.039291807633927256,"{56: 2, 23: 2, 29: 1, 17: 1, 8: 8}","[8, 17, 23, 29, 56]",88171232291562,Ba2V2Cu1Cl1O8
Ba2NbCu2Pb2ClO8,mp-1228495,0.49289999999999967,3.87000118,0.02628962957031611,"{56: 2, 41: 1, 29: 2, 82: 2, 17: 1, 8: 8}","[8, 17, 29, 41, 56, 82]",88171292411562822,Ba2Nb1Cu2Pb2Cl1O8
Ba2TaCu2Pb2ClO8,mp-1228449,0.5034000000000001,3.95682063,0.014666308580731702,"{56: 2, 73: 1, 29: 2, 82: 2, 17: 1, 8: 8}","[8, 17, 29, 56, 73, 82]",88171292562731822,Ba2Ta1Cu2Pb2Cl1O8
Ba(ClO4)2,mp-1190390,5.4454,0.35803387,0.0,"{56: 1, 17: 2, 8: 8}","[8, 17, 56]",88172561,Ba1Cl2O8
Ba3CaTi3O8,mp-1234083,0.0,5.02144536,0.18726656683333776,"{56: 3, 20: 1, 22: 3, 8: 8}","[8, 20, 22, 56]",88201223563,Ba3Ca1Ti3O8
BaCaTi4O8,mp-1046986,0.0,5.35228211,0.18556597910713712,"{56: 1, 20: 1, 22: 4, 8: 8}","[8, 20, 22, 56]",88201224561,Ba1Ca1Ti4O8
BaCaV4O8,mp-1044444,0.9838,3.26762181,0.12755889500292739,"{56: 1, 20: 1, 23: 4, 8: 8}","[8, 20, 23, 56]",88201234561,Ba1Ca1V4O8
BaCaCr4O8,mp-1044468,0.0,3.22881954,0.40715899821427115,"{56: 1, 20: 1, 24: 4, 8: 8}","[8, 20, 24, 56]",88201244561,Ba1Ca1Cr4O8
BaCaMn4O8,mp-1044544,0.0,2.23249016,0.19392659398808654,"{56: 1, 20: 1, 25: 4, 8: 8}","[8, 20, 25, 56]",88201254561,Ba1Ca1Mn4O8
BaCa(FeO2)4,mp-18950,0.0,1.9138795,0.03270685419634933,"{56: 1, 20: 1, 26: 4, 8: 8}","[8, 20, 26, 56]",88201264561,Ba1Ca1Fe4O8
BaCa(CoO2)4,mp-1044463,0.04380000000000006,1.91670404,0.14617309142855373,"{56: 1, 20: 1, 27: 4, 8: 8}","[8, 20, 27, 56]",88201274561,Ba1Ca1Co4O8
Ba2CaCu2MoO8,mp-1232340,0.0,3.28735699,0.06631897571428347,"{56: 2, 20: 1, 29: 2, 42: 1, 8: 8}","[8, 20, 29, 42, 56]",88201292421562,Ba2Ca1Cu2Mo1O8
Ba2CaTl2(CuO4)2,mp-6885,0.0,4.05856276,0.005910402314811769,"{56: 2, 20: 1, 81: 2, 29: 2, 8: 8}","[8, 20, 29, 56, 81]",88201292562812,Ba2Ca1Tl2Cu2O8
BaCa(CuO2)4,mp-1046980,0.0,2.12490863,0.20246486104910932,"{56: 1, 20: 1, 29: 4, 8: 8}","[8, 20, 29, 56]",88201294561,Ba1Ca1Cu4O8
BaCa(GaO2)4,mp-561446,3.0678,0.8271514,0.0,"{56: 1, 20: 1, 31: 4, 8: 8}","[8, 20, 31, 56]",88201314561,Ba1Ca1Ga4O8
BaCa(MoO2)4,mp-1044745,0.0,4.57753429,0.49448010071427717,"{56: 1, 20: 1, 42: 4, 8: 8}","[8, 20, 42, 56]",88201424561,Ba1Ca1Mo4O8
BaCa(AgO2)4,mp-1046998,0.0,0.67525689,0.3423807632142841,"{56: 1, 20: 1, 47: 4, 8: 8}","[8, 20, 47, 56]",88201474561,Ba1Ca1Ag4O8
BaCa(SnO2)4,mp-1047389,0.0,5.18387811,0.20049102017856146,"{56: 1, 20: 1, 50: 4, 8: 8}","[8, 20, 50, 56]",88201504561,Ba1Ca1Sn4O8
BaCa(SbO2)4,mp-1047093,0.14259999999999984,5.69065627,0.2225007841369111,"{56: 1, 20: 1, 51: 4, 8: 8}","[8, 20, 51, 56]",88201514561,Ba1Ca1Sb4O8
BaCa(WO2)4,mp-1048070,0.0,4.29352645,0.739151765833336,"{56: 1, 20: 1, 74: 4, 8: 8}","[8, 20, 56, 74]",88201561744,Ba1Ca1W4O8
BaCa(BiO2)4,mp-1047131,0.9921999999999995,3.96083609,0.13515817678572528,"{56: 1, 20: 1, 83: 4, 8: 8}","[8, 20, 56, 83]",88201561834,Ba1Ca1Bi4O8
Ba2Ca2Cu3HgO8,mp-22601,0.0,2.99730618,0.01764729989583458,"{56: 2, 20: 2, 29: 3, 80: 1, 8: 8}","[8, 20, 29, 56, 80]",88202293562801,Ba2Ca2Cu3Hg1O8
Ba3Ti(FeO4)2,mp-1228283,1.6418,4.26875417,0.02631362214285904,"{56: 3, 22: 1, 26: 2, 8: 8}","[8, 22, 26, 56]",88221262563,Ba3Ti1Fe2O8
Ba2Ti(GeO4)2,mp-6289,3.7129000000000003,0.70920893,0.0,"{56: 2, 22: 1, 32: 2, 8: 8}","[8, 22, 32, 56]",88221322562,Ba2Ti1Ge2O8
BaTi(AsO4)2,mp-1214314,2.4211,0.4092471,0.0,"{56: 1, 22: 1, 33: 2, 8: 8}","[8, 22, 33, 56]",88221332561,Ba1Ti1As2O8
Ba2YTi3O8,mp-1047361,0.0,5.94925936,0.030726523816952067,"{56: 2, 39: 1, 22: 3, 8: 8}","[8, 22, 39, 56]",88223391562,Ba2Y1Ti3O8
Ba2Ti3O8,mp-1400415,0.7315,2.57394179,0.2085619742308289,"{56: 2, 22: 3, 8: 8}","[8, 22, 56]",88223562,Ba2Ti3O8
Ba3Ti3O8,mp-33339,0.0,5.20646302,0.045849021785722144,"{56: 3, 22: 3, 8: 8}","[8, 22, 56]",88223563,Ba3Ti3O8
BaTi4ZnO8,mp-1046922,0.0,3.37680511,0.2827536295265176,"{56: 1, 22: 4, 30: 1, 8: 8}","[8, 22, 30, 56]",88224301561,Ba1Ti4Zn1O8
BaTi4O8,mp-1047421,0.0,3.57760895,0.2128756325669805,"{56: 1, 22: 4, 8: 8}","[8, 22, 56]",88224561,Ba1Ti4O8
BaV(AsO4)2,mp-557424,0.9488999999999996,2.94993895,0.022932471874998583,"{56: 1, 23: 1, 33: 2, 8: 8}","[8, 23, 33, 56]",88231332561,Ba1V1As2O8
BaMnV2(AgO4)2,mp-19174,2.1258999999999997,1.59083322,0.021243511249998903,"{56: 1, 25: 1, 23: 2, 47: 2, 8: 8}","[8, 23, 25, 47, 56]",88232251472561,Ba1Mn1V2Ag2O8
BaMn2V2O8,mp-19507,1.9198,2.09332941,0.0,"{56: 1, 25: 2, 23: 2, 8: 8}","[8, 23, 25, 56]",88232252561,Ba1Mn2V2O8
BaV2(CoO4)2,mp-19504,0.0,3.19958785,0.0,"{56: 1, 23: 2, 27: 2, 8: 8}","[8, 23, 27, 56]",88232272561,Ba1V2Co2O8
Ba2V2CuBrO8,mp-1195498,0.2924,1.48522601,0.036449102730058414,"{56: 2, 23: 2, 29: 1, 35: 1, 8: 8}","[8, 23, 29, 35, 56]",88232291351562,Ba2V2Cu1Br1O8
BaV2Cu(AgO4)2,mp-1192702,0.0,1.80922863,0.041467136785736436,"{56: 1, 23: 2, 29: 1, 47: 2, 8: 8}","[8, 23, 29, 47, 56]",88232291472561,Ba1V2Cu1Ag2O8
BaV2(CuO4)2,mp-557454,0.1615000000000002,2.17737174,0.03314589544872604,"{56: 1, 23: 2, 29: 2, 8: 8}","[8, 23, 29, 56]",88232292561,Ba1V2Cu2O8
Ba2V2ZnO8,mp-556688,3.4336,0.18443229,0.002490994615400588,"{56: 2, 23: 2, 30: 1, 8: 8}","[8, 23, 30, 56]",88232301562,Ba2V2Zn1O8
BaV2SeO8,mp-1200210,2.0881000000000003,0.4489903,0.02341802208331689,"{56: 1, 23: 2, 34: 1, 8: 8}","[8, 23, 34, 56]",88232341561,Ba1V2Se1O8
BaV2TeO8,mp-556790,2.5124000000000004,1.31126497,0.0,"{56: 1, 23: 2, 52: 1, 8: 8}","[8, 23, 52, 56]",88232521561,Ba1V2Te1O8
Ba3V2O8,mp-19365,3.7465,0.77827962,0.0,"{56: 3, 23: 2, 8: 8}","[8, 23, 56]",88232563,Ba3V2O8
Ba2YV3O8,mp-1047835,0.0,4.55149036,0.026680467910724204,"{56: 2, 39: 1, 23: 3, 8: 8}","[8, 23, 39, 56]",88233391562,Ba2Y1V3O8
BaV3O8,mp-29037,1.6101,1.3804184,0.01601968361110906,"{56: 1, 23: 3, 8: 8}","[8, 23, 56]",88233561,Ba1V3O8
Ba2V3O8,mp-1048112,0.0,2.64942146,0.30474486098557474,"{56: 2, 23: 3, 8: 8}","[8, 23, 56]",88233562,Ba2V3O8
BaV4ZnO8,mp-1044331,0.9247000000000005,3.37554415,0.21503225337301135,"{56: 1, 23: 4, 30: 1, 8: 8}","[8, 23, 30, 56]",88234301561,Ba1V4Zn1O8
BaV4O8,mp-1041271,0.0,1.91824049,0.3032580819712063,"{56: 1, 23: 4, 8: 8}","[8, 23, 56]",88234561,Ba1V4O8
Ba3Cr2O8,mp-1281162,1.1478000000000002,2.30846715,0.0,"{56: 3, 24: 2, 8: 8}","[8, 24, 56]",88242563,Ba3Cr2O8
Ba2YCr3O8,mp-1047804,0.0,3.67489286,0.09802901401785213,"{56: 2, 39: 1, 24: 3, 8: 8}","[8, 24, 39, 56]",88243391562,Ba2Y1Cr3O8
Ba2Cr3O8,mp-1048124,0.0,1.95917236,0.34256407057691796,"{56: 2, 24: 3, 8: 8}","[8, 24, 56]",88243562,Ba2Cr3O8
BaZnCr4O8,mp-1044490,0.0,3.34431586,0.4634644083928565,"{56: 1, 30: 1, 24: 4, 8: 8}","[8, 24, 30, 56]",88244301561,Ba1Zn1Cr4O8
BaCr4O8,mp-1041288,0.0,1.72412884,0.4240824687820499,"{56: 1, 24: 4, 8: 8}","[8, 24, 56]",88244561,Ba1Cr4O8
Ba2Mn(AsO4)2,mp-558651,1.1126,4.00210243,0.0,"{56: 2, 25: 1, 33: 2, 8: 8}","[8, 25, 33, 56]",88251332562,Ba2Mn1As2O8
BaMn2O8,mp-27681,0.0,-0.26896188,0.07325019889610385,"{56: 1, 25: 2, 8: 8}","[8, 25, 56]",88252561,Ba1Mn2O8
Ba3Mn2O8,mp-19188,1.4078000000000002,1.57975116,0.0,"{56: 3, 25: 2, 8: 8}","[8, 25, 56]",88252563,Ba3Mn2O8
Ba2YMn3O8,mp-1041433,0.0,3.08294147,0.01295649811863342,"{56: 2, 39: 1, 25: 3, 8: 8}","[8, 25, 39, 56]",88253391562,Ba2Y1Mn3O8
Ba2Mn3O8,mp-1048172,0.0,1.16738442,0.2963020525366389,"{56: 2, 25: 3, 8: 8}","[8, 25, 56]",88253562,Ba2Mn3O8
BaMn4ZnO8,mp-1044381,0.0,2.31033088,0.24113280916667712,"{56: 1, 25: 4, 30: 1, 8: 8}","[8, 25, 30, 56]",88254301561,Ba1Mn4Zn1O8
BaMn4O8,mp-766233,0.39990000000000014,2.77245685,0.028538742730773947,"{56: 1, 25: 4, 8: 8}","[8, 25, 56]",88254561,Ba1Mn4O8
Ba4NbFeO8,mp-1022809,2.6971,1.84069821,0.0,"{56: 4, 41: 1, 26: 1, 8: 8}","[8, 26, 41, 56]",88261411564,Ba4Nb1Fe1O8
Ba2YFe3O8,mp-558860,0.0,3.92232846,0.017262655401789395,"{56: 2, 39: 1, 26: 3, 8: 8}","[8, 26, 39, 56]",88263391562,Ba2Y1Fe3O8
Ba2Fe3O8,mp-1412163,0.0,0.93746697,0.18395805282051114,"{56: 2, 26: 3, 8: 8}","[8, 26, 56]",88263562,Ba2Fe3O8
Ba3Fe3O8,mp-1196000,0.0,2.24112272,0.02242287359693851,"{56: 3, 26: 3, 8: 8}","[8, 26, 56]",88263563,Ba3Fe3O8
BaZn(FeO2)4,mp-1044403,0.0,2.62336788,0.10755347714277619,"{56: 1, 30: 1, 26: 4, 8: 8}","[8, 26, 30, 56]",88264301561,Ba1Zn1Fe4O8
Ba(FeO2)4,mp-1412406,0.0,0.4389319,0.253951381538462,"{56: 1, 26: 4, 8: 8}","[8, 26, 56]",88264561,Ba1Fe4O8
BaCo2(AsO4)2,mp-19143,0.0,3.96520858,0.0,"{56: 1, 27: 2, 33: 2, 8: 8}","[8, 27, 33, 56]",88272332561,Ba1Co2As2O8
Ba2YCo3O8,mp-1048020,0.0,3.24890061,0.06358383697544312,"{56: 2, 39: 1, 27: 3, 8: 8}","[8, 27, 39, 56]",88273391562,Ba2Y1Co3O8
Ba2Co3O8,mp-1048116,0.0,1.35782955,0.3192800169230905,"{56: 2, 27: 3, 8: 8}","[8, 27, 56]",88273562,Ba2Co3O8
BaY(CoO2)4,mp-646218,0.6661000000000001,2.60583381,0.05563674781251038,"{56: 1, 39: 1, 27: 4, 8: 8}","[8, 27, 39, 56]",88274391561,Ba1Y1Co4O8
Ba(CoO2)4,mp-1041292,0.0,0.22212983,0.27967563961539454,"{56: 1, 27: 4, 8: 8}","[8, 27, 56]",88274561,Ba1Co4O8