formula,material_id,band_gap,efermi,energy_above_hull,comp_atoms,sorted_keys_comp_atoms,comp_number,new_formula
Ba10Nb3Bi7O30,mp-1228874,0.8441000000000001,4.29406279,0.0025065420250047765,"{56: 10, 41: 3, 83: 7, 8: 30}","[8, 41, 56, 83]",8304135610837,Ba10Nb3Bi7O30
Ba10Pr5Nb4SnO30,mp-1228934,0.0,1.87065734,0.013912234175046834,"{56: 10, 59: 5, 41: 4, 50: 1, 8: 30}","[8, 41, 50, 56, 59]",8304145015610595,Ba10Pr5Nb4Sn1O30
Ba10Pr5Ir(Ru2O15)2,mp-1228864,0.0,3.30545603,0.004254540199998935,"{56: 10, 59: 5, 77: 1, 44: 4, 8: 30}","[8, 44, 56, 59, 77]",8304445610595771,Ba10Pr5Ir1Ru4O30
Ba10Pr5Sn2(SbO10)3,mp-1247909,0.0,2.52300975,0.024828823681248835,"{56: 10, 59: 5, 50: 2, 51: 3, 8: 30}","[8, 50, 51, 56, 59]",8305025135610595,Ba10Pr5Sn2Sb3O30
Ba10Ce(Bi3O10)3,mp-1228865,0.0,4.06627559,0.0,"{56: 10, 58: 1, 83: 9, 8: 30}","[8, 56, 58, 83]",8305610581839,Ba10Ce1Bi9O30
Ba11(Bi3O10)3,mp-1228932,0.0,3.11498422,0.000344123120000539,"{56: 11, 83: 9, 8: 30}","[8, 56, 83]",8305611839,Ba11Bi9O30
Ba2Na2O3,mp-752395,1.9318,1.13167899,0.08113796607142909,"{56: 2, 11: 2, 8: 3}","[8, 11, 56]",83112562,Ba2Na2O3
BaNa4O3,mp-756084,1.4794999999999998,0.5490677,0.05603768125000119,"{56: 1, 11: 4, 8: 3}","[8, 11, 56]",83114561,Ba1Na4O3
Ba4Se4S16O31,mp-1229279,0.0,-0.65785183,0.6430879971751198,"{56: 4, 34: 4, 16: 16, 8: 31}","[8, 16, 34, 56]",8311616344564,Ba4Se4S16O31
Ba10Ca5Cu10Hg5O31,mp-1229139,0.0,2.7700603,0.02813646978141371,"{56: 10, 20: 5, 29: 10, 80: 5, 8: 31}","[8, 20, 29, 56, 80]",83120529105610805,Ba10Ca5Cu10Hg5O31
BaMgTiO3,mp-2210610,0.8491,4.52250204,0.29289806871212143,"{56: 1, 12: 1, 22: 1, 8: 3}","[8, 12, 22, 56]",83121221561,Ba1Mg1Ti1O3
BaMgVO3,mp-2226159,0.0,5.01968274,0.2583258052083375,"{56: 1, 12: 1, 23: 1, 8: 3}","[8, 12, 23, 56]",83121231561,Ba1Mg1V1O3
BaMgMnO3,mp-2239860,0.2219000000000002,3.74184218,0.04028424229166738,"{56: 1, 12: 1, 25: 1, 8: 3}","[8, 12, 25, 56]",83121251561,Ba1Mg1Mn1O3
BaMgCoO3,mp-2210607,0.0,4.40460863,0.5240806061111121,"{56: 1, 12: 1, 27: 1, 8: 3}","[8, 12, 27, 56]",83121271561,Ba1Mg1Co1O3
Ba2MgCuO3,mp-2242299,0.0,5.09264866,0.5359629171428573,"{56: 2, 12: 1, 29: 1, 8: 3}","[8, 12, 29, 56]",83121291562,Ba2Mg1Cu1O3
BaMgMoO3,mp-2226997,0.0,5.6706661,0.7255699405555545,"{56: 1, 12: 1, 42: 1, 8: 3}","[8, 12, 42, 56]",83121421561,Ba1Mg1Mo1O3
Ba2MgO3,mp-779511,3.3403000000000005,1.61135287,0.030436195416666756,"{56: 2, 12: 1, 8: 3}","[8, 12, 56]",83121562,Ba2Mg1O3
BaAlO3,mp-1183283,0.0,3.58007199,0.16936120074999383,"{56: 1, 13: 1, 8: 3}","[8, 13, 56]",83131561,Ba1Al1O3
BaSiO3,mp-776084,4.542,0.78355312,0.0,"{56: 1, 14: 1, 8: 3}","[8, 14, 56]",83141561,Ba1Si1O3
Ba6Nb4S13O3,mp-583297,2.2867,1.51150542,0.0,"{56: 6, 41: 4, 16: 13, 8: 3}","[8, 16, 41, 56]",831613414566,Ba6Nb4S13O3
BaSO3,mp-768307,4.4264,1.83986104,0.0694253275000003,"{56: 1, 16: 1, 8: 3}","[8, 16, 56]",83161561,Ba1S1O3
Ba3V2S4O3,mp-18000,0.42390000000000017,2.40379104,0.044348771093745576,"{56: 3, 23: 2, 16: 4, 8: 3}","[8, 16, 23, 56]",83164232563,Ba3V2S4O3
BaVClO3,mp-559481,2.3925,0.61100446,0.0,"{56: 1, 23: 1, 17: 1, 8: 3}","[8, 17, 23, 56]",83171231561,Ba1V1Cl1O3
Ba2InClO3,mp-558243,1.9144999999999999,2.61771162,0.0,"{56: 2, 49: 1, 17: 1, 8: 3}","[8, 17, 49, 56]",83171491562,Ba2In1Cl1O3
BaClO3,mp-1182237,0.0,1.92655179,0.49663952415999457,"{56: 1, 17: 1, 8: 3}","[8, 17, 56]",83171561,Ba1Cl1O3
BaZnTeCl2O3,mp-558504,3.7598,0.59530581,0.0032897592187470792,"{56: 1, 30: 1, 52: 1, 17: 2, 8: 3}","[8, 17, 30, 52, 56]",83172301521561,Ba1Zn1Te1Cl2O3
Ba3Bi(ClO)3,mp-556855,3.9283,0.7967185,0.0,"{56: 3, 83: 1, 17: 3, 8: 3}","[8, 17, 56, 83]",83173563831,Ba3Bi1Cl3O3
KBaFeO3,mp-18038,0.5118,1.3939339,0.0,"{19: 1, 56: 1, 26: 1, 8: 3}","[8, 19, 26, 56]",83191261561,K1Ba1Fe1O3
KBaO3,mp-973447,0.0,-1.51674926,0.5736075070000011,"{19: 1, 56: 1, 8: 3}","[8, 19, 56]",83191561,K1Ba1O3
BaCaO3,mp-1183285,0.0,0.87874162,0.34453105399999817,"{56: 1, 20: 1, 8: 3}","[8, 20, 56]",83201561,Ba1Ca1O3
K2BaNa2Ti4(SiO4)8,mp-1200158,0.5992,0.44813896,0.1950042674489847,"{19: 2, 56: 1, 11: 2, 22: 4, 14: 8, 8: 32}","[8, 11, 14, 19, 22, 56]",832112148192224561,K2Ba1Na2Ti4Si8O32
Ba2ScFeAsO3,mp-862301,0.0,3.87493471,0.05799753781250061,"{56: 2, 21: 1, 26: 1, 33: 1, 8: 3}","[8, 21, 26, 33, 56]",83211261331562,Ba2Sc1Fe1As1O3
BaScO3,mp-1183289,0.0,1.94015846,0.026701069166658264,"{56: 1, 21: 1, 8: 3}","[8, 21, 56]",83211561,Ba1Sc1O3
BaMg30AlO32,mp-1037958,0.35960000000000036,8.65553323,0.10683997444859816,"{56: 1, 12: 30, 13: 1, 8: 32}","[8, 12, 13, 56]",8321230131561,Ba1Mg30Al1O32
BaMg30SiO32,mp-1039822,1.6209000000000007,6.49187751,0.15967624587890583,"{56: 1, 12: 30, 14: 1, 8: 32}","[8, 12, 14, 56]",8321230141561,Ba1Mg30Si1O32
BaCaMg30O32,mp-1037905,4.0061,4.18079909,0.09134786203125067,"{56: 1, 20: 1, 12: 30, 8: 32}","[8, 12, 20, 56]",8321230201561,Ba1Ca1Mg30O32
BaMg30TiO32,mp-1040392,0.0,8.43453728,0.11349247831676301,"{56: 1, 12: 30, 22: 1, 8: 32}","[8, 12, 22, 56]",8321230221561,Ba1Mg30Ti1O32
BaMg30VO32,mp-1036802,1.7377000000000002,5.95475525,0.08539245048828192,"{56: 1, 12: 30, 23: 1, 8: 32}","[8, 12, 23, 56]",8321230231561,Ba1Mg30V1O32
BaMg30CrO32,mp-1038639,1.5460999999999991,6.08303038,0.08925787423177312,"{56: 1, 12: 30, 24: 1, 8: 32}","[8, 12, 24, 56]",8321230241561,Ba1Mg30Cr1O32
BaMg30MnO32,mp-1037843,2.6460999999999997,4.97194429,0.08198419005859403,"{56: 1, 12: 30, 25: 1, 8: 32}","[8, 12, 25, 56]",8321230251561,Ba1Mg30Mn1O32
BaMg30FeO32,mp-1037485,2.6279000000000003,5.00290684,0.07944593474330297,"{56: 1, 12: 30, 26: 1, 8: 32}","[8, 12, 26, 56]",8321230261561,Ba1Mg30Fe1O32
BaMg30CoO32,mp-1037023,2.2100999999999997,4.92562503,0.08538182432291652,"{56: 1, 12: 30, 27: 1, 8: 32}","[8, 12, 27, 56]",8321230271561,Ba1Mg30Co1O32
BaMg30CuO32,mp-1037251,0.7431999999999999,4.95686502,0.0864855338281254,"{56: 1, 12: 30, 29: 1, 8: 32}","[8, 12, 29, 56]",8321230291561,Ba1Mg30Cu1O32
BaMg30ZnO32,mp-1037611,3.2977,4.34254826,0.08285868791666662,"{56: 1, 12: 30, 30: 1, 8: 32}","[8, 12, 30, 56]",8321230301561,Ba1Mg30Zn1O32
BaYMg30O32,mp-1037184,0.3551000000000002,8.4105394,0.12079128816406204,"{56: 1, 39: 1, 12: 30, 8: 32}","[8, 12, 39, 56]",8321230391561,Ba1Y1Mg30O32
BaMg30NbO32,mp-1038676,0.10820000000000007,7.44238436,0.13528363431250057,"{56: 1, 12: 30, 41: 1, 8: 32}","[8, 12, 41, 56]",8321230411561,Ba1Mg30Nb1O32
BaMg30CdO32,mp-1038611,3.4322000000000004,3.95083157,0.0925852141796879,"{56: 1, 12: 30, 48: 1, 8: 32}","[8, 12, 48, 56]",8321230481561,Ba1Mg30Cd1O32
BaMg30SnO32,mp-1095706,1.647100000000001,6.43730229,0.1349444166015621,"{56: 1, 12: 30, 50: 1, 8: 32}","[8, 12, 50, 56]",8321230501561,Ba1Mg30Sn1O32
BaHfMg30O32,mp-1038615,0.0,8.41393117,0.15002877820312577,"{56: 1, 72: 1, 12: 30, 8: 32}","[8, 12, 56, 72]",8321230561721,Ba1Hf1Mg30O32
BaMg30BiO32,mp-1038632,0.0,8.10048884,0.15899950757812498,"{56: 1, 12: 30, 83: 1, 8: 32}","[8, 12, 56, 83]",8321230561831,Ba1Mg30Bi1O32
Ba8Ti3Co(SiO4)8,mp-1228423,0.23110000000000008,1.96961268,0.014687733076925724,"{56: 8, 22: 3, 27: 1, 14: 8, 8: 32}","[8, 14, 22, 27, 56]",832148223271568,Ba8Ti3Co1Si8O32
BaTiO3,mp-5777,2.2929999999999997,2.85356728,0.0,"{56: 1, 22: 1, 8: 3}","[8, 22, 56]",83221561,Ba1Ti1O3
Ba10Y5Cu15O32,mp-1229067,0.0,3.36706624,0.02215804053225323,"{56: 10, 39: 5, 29: 15, 8: 32}","[8, 29, 39, 56]",83229153955610,Ba10Y5Cu15O32
Ba8Y3Lu(CuO2)16,mp-1229138,0.0,3.28874541,0.021816963343749052,"{56: 8, 39: 3, 71: 1, 29: 16, 8: 32}","[8, 29, 39, 56, 71]",8322916393568711,Ba8Y3Lu1Cu16O32
BaVO3,mp-19150,0.0,3.75245735,0.07513865899998429,"{56: 1, 23: 1, 8: 3}","[8, 23, 56]",83231561,Ba1V1O3
Ba2Nb15O32,mp-28675,0.0,4.36275426,0.0,"{56: 2, 41: 15, 8: 32}","[8, 41, 56]",8324115562,Ba2Nb15O32
BaCrO3,mp-557081,0.0,2.84730237,0.0816520543392878,"{56: 1, 24: 1, 8: 3}","[8, 24, 56]",83241561,Ba1Cr1O3
BaMnO3,mp-18840,0.8952999999999998,2.44818127,0.0,"{56: 1, 25: 1, 8: 3}","[8, 25, 56]",83251561,Ba1Mn1O3
Ba2MnO3,mp-27443,1.4139000000000004,3.11511451,0.0,"{56: 2, 25: 1, 8: 3}","[8, 25, 56]",83251562,Ba2Mn1O3
BaMn2O3,mp-27323,0.0,3.78672557,0.03006660312500742,"{56: 1, 25: 2, 8: 3}","[8, 25, 56]",83252561,Ba1Mn2O3
Ba2Ta15O32,mp-28457,1.0410000000000004,5.30129739,0.0,"{56: 2, 73: 15, 8: 32}","[8, 56, 73]",8325627315,Ba2Ta15O32
Ba2FeBrO3,mp-1214726,1.4511000000000003,2.3148846,0.030990678571429342,"{56: 2, 26: 1, 35: 1, 8: 3}","[8, 26, 35, 56]",83261351562,Ba2Fe1Br1O3
BaFeO3,mp-1192651,0.0,2.22136317,0.0,"{56: 1, 26: 1, 8: 3}","[8, 26, 56]",83261561,Ba1Fe1O3
BaCoO3,mp-18965,0.0,2.49640627,0.0,"{56: 1, 27: 1, 8: 3}","[8, 27, 56]",83271561,Ba1Co1O3
BaCuO3,mp-1076800,0.0,2.4205615,0.08273291958333484,"{56: 1, 29: 1, 8: 3}","[8, 29, 56]",83291561,Ba1Cu1O3
Ba2CuO3,mp-8790,0.0,3.13646647,0.0,"{56: 2, 29: 1, 8: 3}","[8, 29, 56]",83291562,Ba2Cu1O3
BaZnO3,mp-1183405,0.0,1.53513963,0.1742941279999961,"{56: 1, 30: 1, 8: 3}","[8, 30, 56]",83301561,Ba1Zn1O3
Ba2ZnO3,mp-17911,2.6704,1.67806061,0.0,"{56: 2, 30: 1, 8: 3}","[8, 30, 56]",83301562,Ba2Zn1O3
BaNb7(P2O11)3,mp-555620,0.0,3.11555981,0.002397650659569095,"{56: 1, 41: 7, 15: 6, 8: 33}","[8, 15, 41, 56]",833156417561,Ba1Nb7P6O33
BaGeO3,mp-13863,3.5519,0.77691135,0.0,"{56: 1, 32: 1, 8: 3}","[8, 32, 56]",83321561,Ba1Ge1O3
Ba12(CoO3)11,mp-1195315,0.0,2.52635563,0.03205927066965142,"{56: 12, 27: 11, 8: 33}","[8, 27, 56]",83327115612,Ba12Co11O33
Ba10Ge7O3,mp-1228879,0.0,2.62244073,0.045322459999996845,"{56: 10, 32: 7, 8: 3}","[8, 32, 56]",833275610,Ba10Ge7O3
Ba10Y5(Cu5O11)3,mp-1229106,0.0,3.33566582,0.029248422432536003,"{56: 10, 39: 5, 29: 15, 8: 33}","[8, 29, 39, 56]",83329153955610,Ba10Y5Cu15O33
Ba10Sm5(Cu5O11)3,mp-1229115,0.0,3.23413485,0.02252717721824915,"{56: 10, 62: 5, 29: 15, 8: 33}","[8, 29, 56, 62]",83329155610625,Ba10Sm5Cu15O33
Ba10Ho5(Cu5O11)3,mp-1229045,0.0,3.25695961,0.029619861956344806,"{56: 10, 67: 5, 29: 15, 8: 33}","[8, 29, 56, 67]",83329155610675,Ba10Ho5Cu15O33
Ba2AsSe4O3,mp-1087236,0.1257999999999999,2.13882794,0.7919949307555862,"{56: 2, 33: 1, 34: 4, 8: 3}","[8, 33, 34, 56]",83331344562,Ba2As1Se4O3
Ba4U8As2O33,mp-1229229,1.5822999999999998,1.9000859,0.0,"{56: 4, 92: 8, 33: 2, 8: 33}","[8, 33, 56, 92]",833332564928,Ba4U8As2O33
BaSeO3,mp-6989,3.8865999999999996,1.17998316,0.0,"{56: 1, 34: 1, 8: 3}","[8, 34, 56]",83341561,Ba1Se1O3
Ba14Ir8(PdO11)3,mp-738639,0.0,3.76776087,0.0,"{56: 14, 77: 8, 46: 3, 8: 33}","[8, 46, 56, 77]",8334635614778,Ba14Ir8Pd3O33
Ba2InBrO3,mp-555212,1.8236999999999997,2.35183911,0.0,"{56: 2, 49: 1, 35: 1, 8: 3}","[8, 35, 49, 56]",83351491562,Ba2In1Br1O3
Cs2BaTa6(Br5O)3,mp-1203665,0.29780000000000006,1.39868529,0.2904155232862422,"{55: 2, 56: 1, 73: 6, 35: 15, 8: 3}","[8, 35, 55, 56, 73]",833515552561736,Cs2Ba1Ta6Br15O3
RbBaO3,mp-975387,0.0,-1.27671799,0.5158273460000009,"{37: 1, 56: 1, 8: 3}","[8, 37, 56]",83371561,Rb1Ba1O3
BaZrO3,mp-1019544,3.1163,2.20775892,0.0,"{56: 1, 40: 1, 8: 3}","[8, 40, 56]",83401561,Ba1Zr1O3
BaNbO3,mp-3020,0.0,4.78470394,0.0,"{56: 1, 41: 1, 8: 3}","[8, 41, 56]",83411561,Ba1Nb1O3
Ba6Mn4Si12Cl3O34,mp-1228733,0.009799999999999809,3.15415465,0.019227158983055936,"{56: 6, 25: 4, 14: 12, 17: 3, 8: 34}","[8, 14, 17, 25, 56]",8341412173254566,Ba6Mn4Si12Cl3O34
BaMoO3,mp-19322,0.0,4.70155929,0.0,"{56: 1, 42: 1, 8: 3}","[8, 42, 56]",83421561,Ba1Mo1O3
Ba10Y5Cu15O34,mp-1228903,0.0,3.19061639,0.028674605833324485,"{56: 10, 39: 5, 29: 15, 8: 34}","[8, 29, 39, 56]",83429153955610,Ba10Y5Cu15O34
Ba10Er5Cu15O34,mp-1229210,0.0,3.14986275,0.030196913255201352,"{56: 10, 68: 5, 29: 15, 8: 34}","[8, 29, 56, 68]",83429155610685,Ba10Er5Cu15O34
BaTcO3,mp-555174,0.0,5.00957728,0.0,"{56: 1, 43: 1, 8: 3}","[8, 43, 56]",83431561,Ba1Tc1O3
BaRuO3,mp-3597,0.0,4.37059066,0.0,"{56: 1, 44: 1, 8: 3}","[8, 44, 56]",83441561,Ba1Ru1O3
BaBi12Mo4WO34,mp-557475,3.0813,2.24386191,0.018277336346138817,"{56: 1, 83: 12, 42: 4, 74: 1, 8: 34}","[8, 42, 56, 74, 83]",8344245617418312,Ba1Bi12Mo4W1O34
BaBi12Mo5O34,mp-1215003,3.3118000000000003,2.23507872,0.00978305312496186,"{56: 1, 83: 12, 42: 5, 8: 34}","[8, 42, 56, 83]",8344255618312,Ba1Bi12Mo5O34
BaRhO3,mp-7685,0.0,3.50909208,0.015493725796296154,"{56: 1, 45: 1, 8: 3}","[8, 45, 56]",83451561,Ba1Rh1O3
BaPdO3,mp-1178510,0.0,2.28059005,0.028700658499994702,"{56: 1, 46: 1, 8: 3}","[8, 46, 56]",83461561,Ba1Pd1O3
Ba2PdO3,mp-29352,0.0,2.51228166,0.0,"{56: 2, 46: 1, 8: 3}","[8, 46, 56]",83461562,Ba2Pd1O3
BaCdO3,mp-1183292,0.0,1.0511327,0.20288103799999657,"{56: 1, 48: 1, 8: 3}","[8, 48, 56]",83481561,Ba1Cd1O3
BaInO3,mp-1183288,0.0,3.11773413,0.0772048647500041,"{56: 1, 49: 1, 8: 3}","[8, 49, 56]",83491561,Ba1In1O3
Ba11In6O3,mp-605809,0.0,3.67272469,0.0,"{56: 11, 49: 6, 8: 3}","[8, 49, 56]",834965611,Ba11In6O3
BaSnO3,mp-3163,0.37239999999999984,4.12362011,0.0,"{56: 1, 50: 1, 8: 3}","[8, 50, 56]",83501561,Ba1Sn1O3
Ba4Fe12Si8ClO35,mp-1228666,1.7846000000000006,2.7581109,0.0257711438749908,"{56: 4, 26: 12, 14: 8, 17: 1, 8: 35}","[8, 14, 17, 26, 56]",8351481712612564,Ba4Fe12Si8Cl1O35
Ba10CaY4(Cu3O7)5,mp-1228878,0.0,3.15204434,0.033892108051274406,"{56: 10, 20: 1, 39: 4, 29: 15, 8: 35}","[8, 20, 29, 39, 56]",83520129153945610,Ba10Ca1Y4Cu15O35
BaTeO3,mp-5431,2.7149,2.38545908,0.0,"{56: 1, 52: 1, 8: 3}","[8, 52, 56]",83521561,Ba1Te1O3
Ba10Gd4Y(Cu3O7)5,mp-1229238,0.0,3.24658284,0.0270193907211409,"{56: 10, 64: 4, 39: 1, 29: 15, 8: 35}","[8, 29, 39, 56, 64]",83529153915610644,Ba10Gd4Y1Cu15O35
Ba10Gd3Y2(Cu3O7)5,mp-1229307,0.0,3.1933154,0.02644029328844777,"{56: 10, 64: 3, 39: 2, 29: 15, 8: 35}","[8, 29, 39, 56, 64]",83529153925610643,Ba10Gd3Y2Cu15O35
Ba10Pr2Y3(Cu3O7)5,mp-1229245,0.0,3.26427846,0.033183154487185895,"{56: 10, 59: 2, 39: 3, 29: 15, 8: 35}","[8, 29, 39, 56, 59]",83529153935610592,Ba10Pr2Y3Cu15O35
Ba10Gd2Y3(Cu3O7)5,mp-1229059,0.0,3.23801062,0.03144676739421737,"{56: 10, 64: 2, 39: 3, 29: 15, 8: 35}","[8, 29, 39, 56, 64]",83529153935610642,Ba10Gd2Y3Cu15O35
Ba10PrY4(Cu3O7)5,mp-1228989,0.0,3.28480275,0.028326611583331385,"{56: 10, 59: 1, 39: 4, 29: 15, 8: 35}","[8, 29, 39, 56, 59]",83529153945610591,Ba10Pr1Y4Cu15O35
Ba10GdY4(Cu3O7)5,mp-1229303,0.0,3.24738088,0.03489577204486949,"{56: 10, 64: 1, 39: 4, 29: 15, 8: 35}","[8, 29, 39, 56, 64]",83529153945610641,Ba10Gd1Y4Cu15O35
CsBaO3,mp-1183934,0.0,-0.70591563,0.4837627900000001,"{55: 1, 56: 1, 8: 3}","[8, 55, 56]",83551561,Cs1Ba1O3
Cs2Ba2O3,mp-754272,1.6481999999999999,1.4640685,0.024394362857140806,"{55: 2, 56: 2, 8: 3}","[8, 55, 56]",83552562,Cs2Ba2O3
BaO3,mp-1206655,0.0,0.43754036,0.4278688409375011,"{56: 1, 8: 3}","[8, 56]",83561,Ba1O3
BaCeO3,mp-3187,2.2207000000000003,2.8039082,0.0,"{56: 1, 58: 1, 8: 3}","[8, 56, 58]",83561581,Ba1Ce1O3
BaPrO3,mp-22705,0.0,0.83997079,0.10705341450000017,"{56: 1, 59: 1, 8: 3}","[8, 56, 59]",83561591,Ba1Pr1O3
BaNdO3,mp-754307,0.0,0.92582437,0.1158703012500002,"{56: 1, 60: 1, 8: 3}","[8, 56, 60]",83561601,Ba1Nd1O3
BaEuO3,mp-1183310,0.0,1.33603217,0.16508361100000002,"{56: 1, 63: 1, 8: 3}","[8, 56, 63]",83561631,Ba1Eu1O3
BaTbO3,mp-20129,0.0,1.05215948,0.09080341975000028,"{56: 1, 65: 1, 8: 3}","[8, 56, 65]",83561651,Ba1Tb1O3
BaDyO3,mp-1183286,0.0,1.3626618,0.10872087100000094,"{56: 1, 66: 1, 8: 3}","[8, 56, 66]",83561661,Ba1Dy1O3
BaErO3,mp-1183291,0.0,1.33313718,0.08670264150000229,"{56: 1, 68: 1, 8: 3}","[8, 56, 68]",83561681,Ba1Er1O3
BaTmO3,mp-1183394,0.0,1.31294351,0.07247181324999818,"{56: 1, 69: 1, 8: 3}","[8, 56, 69]",83561691,Ba1Tm1O3
BaHfO3,mp-998552,3.5394,2.43655296,0.0,"{56: 1, 72: 1, 8: 3}","[8, 56, 72]",83561721,Ba1Hf1O3
BaTaO3,mp-754678,0.0,5.56835007,0.032557649306690806,"{56: 1, 73: 1, 8: 3}","[8, 56, 73]",83561731,Ba1Ta1O3
BaWO3,mp-1183395,0.0,5.14260618,0.15841601649999504,"{56: 1, 74: 1, 8: 3}","[8, 56, 74]",83561741,Ba1W1O3
BaReO3,mp-1183298,0.0,6.13450209,0.13636216450000127,"{56: 1, 75: 1, 8: 3}","[8, 56, 75]",83561751,Ba1Re1O3
BaOsO3,mp-781625,0.0,5.44938781,0.08043483299999732,"{56: 1, 76: 1, 8: 3}","[8, 56, 76]",83561761,Ba1Os1O3
BaIrO3,mp-542897,0.0,4.32830638,0.01625611929166748,"{56: 1, 77: 1, 8: 3}","[8, 56, 77]",83561771,Ba1Ir1O3
BaPtO3,mp-1214788,0.4158999999999997,4.51541092,0.004715041123815489,"{56: 1, 78: 1, 8: 3}","[8, 56, 78]",83561781,Ba1Pt1O3
BaAuO3,mp-1183287,0.0,2.25288076,0.19831959500000007,"{56: 1, 79: 1, 8: 3}","[8, 56, 79]",83561791,Ba1Au1O3
BaTlO3,mp-1183393,0.0,3.01037417,0.1192370462499941,"{56: 1, 81: 1, 8: 3}","[8, 56, 81]",83561811,Ba1Tl1O3
BaPbO3,mp-22230,0.1992999999999996,3.06685538,0.0,"{56: 1, 82: 1, 8: 3}","[8, 56, 82]",83561821,Ba1Pb1O3
BaBiO3,mp-559051,0.08000000000000007,3.755188,0.0,"{56: 1, 83: 1, 8: 3}","[8, 56, 83]",83561831,Ba1Bi1O3
BaThO3,mp-1189614,4.047,2.6543675,0.0,"{56: 1, 90: 1, 8: 3}","[8, 56, 90]",83561901,Ba1Th1O3
BaPaO3,mp-8557,0.0,7.52345396,0.0,"{56: 1, 91: 1, 8: 3}","[8, 56, 91]",83561911,Ba1Pa1O3
BaUO3,mp-35730,0.0,7.12532766,0.0,"{56: 1, 92: 1, 8: 3}","[8, 56, 92]",83561921,Ba1U1O3
BaNpO3,mp-8558,0.0,7.05965834,0.0,"{56: 1, 93: 1, 8: 3}","[8, 56, 93]",83561931,Ba1Np1O3
BaPuO3,mp-505025,0.0,6.17803464,0.0,"{56: 1, 94: 1, 8: 3}","[8, 56, 94]",83561941,Ba1Pu1O3
Ba2U2O3,mp-675410,0.0,5.03513739,0.34697757285714204,"{56: 2, 92: 2, 8: 3}","[8, 56, 92]",83562922,Ba2U2O3
Ba9La3Mg5Nb7O36,mp-695214,2.3787,3.20365708,0.047304876291670794,"{56: 9, 57: 3, 12: 5, 41: 7, 8: 36}","[8, 12, 41, 56, 57]",836125417569573,Ba9La3Mg5Nb7O36
Ba3La9Mg7Nb5O36,mp-695278,2.9983000000000004,7.81062408,0.10054636804166428,"{56: 3, 57: 9, 12: 7, 41: 5, 8: 36}","[8, 12, 41, 56, 57]",836127415563579,Ba3La9Mg7Nb5O36
Ba4TiSi12(SnO12)3,mp-1228270,3.2599,5.2378003,0.0008661928571420674,"{56: 4, 22: 1, 14: 12, 50: 3, 8: 36}","[8, 14, 22, 50, 56]",8361412221503564,Ba4Ti1Si12Sn3O36
Ba4La8Mn11SnO36,mp-743838,0.0,5.82485046,0.15652710008174076,"{56: 4, 57: 8, 25: 11, 50: 1, 8: 36}","[8, 25, 50, 56, 57]",8362511501564578,Ba4La8Mn11Sn1O36
Ba10Y5(Fe5O12)3,mp-1229144,0.6216999999999997,4.22947344,0.05691672743371701,"{56: 10, 39: 5, 26: 15, 8: 36}","[8, 26, 39, 56]",83626153955610,Ba10Y5Fe15O36
Ba13Ru10BrO36,mp-695535,0.0,1.63583465,0.02162570444884171,"{56: 13, 44: 10, 35: 1, 8: 36}","[8, 35, 44, 56]",83635144105613,Ba13Ru10Br1O36
Ba8ZrNb19O36,mp-1228755,0.0,5.38495748,0.0,"{56: 8, 40: 1, 41: 19, 8: 36}","[8, 40, 41, 56]",8364014119568,Ba8Zr1Nb19O36
Ba13Bi11O36,mp-758120,0.0,3.27409469,0.0,"{56: 13, 83: 11, 8: 36}","[8, 56, 83]",83656138311,Ba13Bi11O36
Ba6Ca12Cu15Hg3O37,mp-1229082,0.0,3.33278046,0.025236989360737816,"{56: 6, 20: 12, 29: 15, 80: 3, 8: 37}","[8, 20, 29, 56, 80]",83720122915566803,Ba6Ca12Cu15Hg3O37
Ba13Dy8Zn4Pt4O37,mp-555356,2.2975000000000003,2.6450019,0.0,"{56: 13, 66: 8, 30: 4, 78: 4, 8: 37}","[8, 30, 56, 66, 78]",8373045613668784,Ba13Dy8Zn4Pt4O37
Ba16Re6O37,mp-1197806,1.5111999999999999,3.43697739,0.0,"{56: 16, 75: 6, 8: 37}","[8, 56, 75]",8375616756,Ba16Re6O37
BaCa(Fe12O19)2,mp-1229206,1.0236,3.03017221,0.07842505326172677,"{56: 1, 20: 1, 26: 24, 8: 38}","[8, 20, 26, 56]",8382012624561,Ba1Ca1Fe24O38
BaTi18Mn3O38,mp-19502,0.0,5.39728822,0.016004711475231304,"{56: 1, 22: 18, 25: 3, 8: 38}","[8, 22, 25, 56]",8382218253561,Ba1Ti18Mn3O38
BaU11(GeO19)2,mp-1182767,1.6020999999999996,3.01210939,0.04919879783654402,"{56: 1, 92: 11, 32: 2, 8: 38}","[8, 32, 56, 92]",8383225619211,Ba1U11Ge2O38
KBaNaCaTi4Fe8Si8(O19F)2,mp-1213447,0.0,2.55586254,0.35744340851561773,"{19: 1, 56: 1, 11: 1, 20: 1, 22: 4, 26: 8, 14: 8, 8: 38, 9: 2}","[8, 9, 11, 14, 19, 20, 22, 26, 56]",83892111148191201224268561,K1Ba1Na1Ca1Ti4Fe8Si8O38F2
BaPO3F,mp-1197491,5.25,0.74301589,0.0,"{56: 1, 15: 1, 8: 3, 9: 1}","[8, 9, 15, 56]",8391151561,Ba1P1O3F1
Ba2ScO3F,mp-1228342,3.5461,2.01987698,0.0,"{56: 2, 21: 1, 8: 3, 9: 1}","[8, 9, 21, 56]",8391211562,Ba2Sc1O3F1
Ba4Nb2(OF4)3,mp-558153,3.3527,-1.15137022,0.0,"{56: 4, 41: 2, 8: 3, 9: 12}","[8, 9, 41, 56]",83912412564,Ba4Nb2O3F12
Ba2InO3F,mp-19956,2.0466999999999995,2.6603006,0.0,"{56: 2, 49: 1, 8: 3, 9: 1}","[8, 9, 49, 56]",8391491562,Ba2In1O3F1
Ba5Nb3O3F20,mp-1228715,0.7117,-0.949828,0.0,"{56: 5, 41: 3, 8: 3, 9: 20}","[8, 9, 41, 56]",83920413565,Ba5Nb3O3F20
Ba2S2O3F2,mp-1228621,2.3669999999999995,2.3369092,0.2526295568055561,"{56: 2, 16: 2, 8: 3, 9: 2}","[8, 9, 16, 56]",8392162562,Ba2S2O3F2