formula,material_id,band_gap,efermi,energy_above_hull,comp_atoms,sorted_keys_comp_atoms,comp_number,new_formula
BaTb2PdO5,mp-9760,1.8352,3.14574734,0.004388369027777728,"{56: 1, 65: 2, 46: 1, 8: 5}","[8, 46, 56, 65]",85461561652,Ba1Tb2Pd1O5
BaDy2PdO5,mp-9740,1.7855999999999996,3.14794922,0.011975081388890807,"{56: 1, 66: 2, 46: 1, 8: 5}","[8, 46, 56, 66]",85461561662,Ba1Dy2Pd1O5
BaHo2PdO5,mp-9785,1.9437999999999995,3.25335607,0.019735465138891684,"{56: 1, 67: 2, 46: 1, 8: 5}","[8, 46, 56, 67]",85461561672,Ba1Ho2Pd1O5
Ba2Pd2O5,mp-984876,0.0,2.36382494,0.06839295466666062,"{56: 2, 46: 2, 8: 5}","[8, 46, 56]",85462562,Ba2Pd2O5
Ba2In2O5,mp-20546,0.919,3.07737615,0.0,"{56: 2, 49: 2, 8: 5}","[8, 49, 56]",85492562,Ba2In2O5
Ba2Sb2O5,mp-765493,2.3822,2.29010266,0.0,"{56: 2, 51: 2, 8: 5}","[8, 51, 56]",85512562,Ba2Sb2O5
BaIO5,mp-1182264,0.23509999999999986,1.79445274,0.6279038069642864,"{56: 1, 53: 1, 8: 5}","[8, 53, 56]",85531561,Ba1I1O5
Ba3Bi2I2O5,mp-1214589,0.9866000000000001,4.19101983,0.10109535833333094,"{56: 3, 83: 2, 53: 2, 8: 5}","[8, 53, 56, 83]",85532563832,Ba3Bi2I2O5
BaO5,mp-1214539,0.0,0.88729678,0.27832706145833264,"{56: 1, 8: 5}","[8, 56]",85561,Ba1O5
BaLa2PtO5,mp-8809,2.4067000000000007,5.79692636,0.0,"{56: 1, 57: 2, 78: 1, 8: 5}","[8, 56, 57, 78]",85561572781,Ba1La2Pt1O5
BaNd2PtO5,mp-556525,2.5077000000000003,3.74713785,0.0,"{56: 1, 60: 2, 78: 1, 8: 5}","[8, 56, 60, 78]",85561602781,Ba1Nd2Pt1O5
BaSm2PtO5,mp-9757,2.6307,3.53162883,0.0028959483333199643,"{56: 1, 62: 2, 78: 1, 8: 5}","[8, 56, 62, 78]",85561622781,Ba1Sm2Pt1O5
BaEu2PtO5,mp-1188181,0.0,3.30370351,0.12652691263887483,"{56: 1, 63: 2, 78: 1, 8: 5}","[8, 56, 63, 78]",85561632781,Ba1Eu2Pt1O5
BaGd2PtO5,mp-19750,2.0430000000000006,3.50125646,0.016721306527772484,"{56: 1, 64: 2, 78: 1, 8: 5}","[8, 56, 64, 78]",85561642781,Ba1Gd2Pt1O5
BaBi2O5,mp-35915,0.0,1.45893178,0.11154218124999904,"{56: 1, 83: 2, 8: 5}","[8, 56, 83]",85561832,Ba1Bi2O5
Ba2La2O5,mp-768263,2.4337000000000004,3.17446064,0.07003288888888726,"{56: 2, 57: 2, 8: 5}","[8, 56, 57]",85562572,Ba2La2O5
Ba2Ce2O5,mp-769656,0.0,5.60923712,0.005184775601853708,"{56: 2, 58: 2, 8: 5}","[8, 56, 58]",85562582,Ba2Ce2O5
Ba2WO5,mp-28403,2.9568999999999996,1.9324621,0.0,"{56: 2, 74: 1, 8: 5}","[8, 56, 74]",85562741,Ba2W1O5
Ba2ReO5,mp-505390,0.0,4.34524455,0.0,"{56: 2, 75: 1, 8: 5}","[8, 56, 75]",85562751,Ba2Re1O5
Ba2Tl2O5,mp-18327,0.6503999999999999,2.61282051,0.0,"{56: 2, 81: 2, 8: 5}","[8, 56, 81]",85562812,Ba2Tl2O5
Ba2Bi2O5,mp-28670,2.0128999999999997,2.97320869,0.0,"{56: 2, 83: 2, 8: 5}","[8, 56, 83]",85562832,Ba2Bi2O5
BaP4(W2O7)8,mp-578781,0.0,2.64891667,0.01344532151785316,"{56: 1, 15: 4, 74: 16, 8: 56}","[8, 15, 56, 74]",8561545617416,Ba1P4W16O56
Ba17Y16Zn8Pt4O57,mp-560146,2.2817,2.68858145,0.0,"{56: 17, 39: 16, 30: 8, 78: 4, 8: 57}","[8, 30, 39, 56, 78]",85730839165617784,Ba17Y16Zn8Pt4O57
Ba17Dy16Zn8Pt4O57,mp-556377,2.0949,2.73839894,0.0032759621241931214,"{56: 17, 66: 16, 30: 8, 78: 4, 8: 57}","[8, 30, 56, 66, 78]",85730856176616784,Ba17Dy16Zn8Pt4O57
Ba17Ho16Zn8Pt4O57,mp-555188,2.2984000000000004,2.60717998,0.0,"{56: 17, 67: 16, 30: 8, 78: 4, 8: 57}","[8, 30, 56, 67, 78]",85730856176716784,Ba17Ho16Zn8Pt4O57
Ba17Er16Zn8Pt4O57,mp-561249,2.3049,2.62023326,0.0,"{56: 17, 68: 16, 30: 8, 78: 4, 8: 57}","[8, 30, 56, 68, 78]",85730856176816784,Ba17Er16Zn8Pt4O57
Ba17Tm16Zn8Pt4O57,mp-557741,2.3147,2.59768039,0.0,"{56: 17, 69: 16, 30: 8, 78: 4, 8: 57}","[8, 30, 56, 69, 78]",85730856176916784,Ba17Tm16Zn8Pt4O57
Ba9Ge23O57,mp-1202498,0.020999999999999908,1.98975652,0.054140479884520865,"{56: 9, 32: 23, 8: 57}","[8, 32, 56]",8573223569,Ba9Ge23O57
K4Ba2Na4Ti8MnSi16(W4O29)2,mp-1213587,0.0,4.53271191,0.4081611898805271,"{19: 4, 56: 2, 11: 4, 22: 8, 25: 1, 14: 16, 74: 8, 8: 58}","[8, 11, 14, 19, 22, 25, 56, 74]",8581141416194228251562748,K4Ba2Na4Ti8Mn1Si16W8O58
BaAlPO5F,mp-1214467,0.3407,1.87660214,0.08949586221695238,"{56: 1, 13: 1, 15: 1, 8: 5, 9: 1}","[8, 9, 13, 15, 56]",8591131151561,Ba1Al1P1O5F1
Ba16S16O59,mp-760205,4.7474,1.87770436,0.026389971126374867,"{56: 16, 16: 16, 8: 59}","[8, 16, 56]",85916165616,Ba16S16O59
Ba3In2O5F2,mp-21445,1.5869000000000004,2.97466774,0.020119398750003015,"{56: 3, 49: 2, 8: 5, 9: 2}","[8, 9, 49, 56]",8592492563,Ba3In2O5F2
BaLa2Fe2O5F4,mp-1228011,0.4773000000000005,4.59201855,0.14479605500000226,"{56: 1, 57: 2, 26: 2, 8: 5, 9: 4}","[8, 9, 26, 56, 57]",8594262561572,Ba1La2Fe2O5F4
Ba20Y10Cu(Ru3O20)3,mp-686442,0.04499999999999993,3.22176402,0.006248262631254775,"{56: 20, 39: 10, 29: 1, 44: 9, 8: 60}","[8, 29, 39, 44, 56]",86029139104495620,Ba20Y10Cu1Ru9O60
Ba2NaMgReO6,mp-2217618,0.0,4.18803983,0.2641835890259774,"{56: 2, 11: 1, 12: 1, 75: 1, 8: 6}","[8, 11, 12, 56, 75]",86111121562751,Ba2Na1Mg1Re1O6
BaNaCaMnO6,mp-1517699,0.0,1.00274773,0.16180764206944875,"{56: 1, 11: 1, 20: 1, 25: 1, 8: 6}","[8, 11, 20, 25, 56]",86111201251561,Ba1Na1Ca1Mn1O6
BaNaTiNbO6,mp-1227835,1.5650999999999997,2.29431709,0.03082286299999737,"{56: 1, 11: 1, 22: 1, 41: 1, 8: 6}","[8, 11, 22, 41, 56]",86111221411561,Ba1Na1Ti1Nb1O6
BaNaLaMnO6,mp-1522946,0.0,2.12583624,0.22133738808333092,"{56: 1, 11: 1, 57: 1, 25: 1, 8: 6}","[8, 11, 25, 56, 57]",86111251561571,Ba1Na1La1Mn1O6
BaNaCeMnO6,mp-1519131,0.0,2.26124634,0.1235942618333361,"{56: 1, 11: 1, 58: 1, 25: 1, 8: 6}","[8, 11, 25, 56, 58]",86111251561581,Ba1Na1Ce1Mn1O6
BaNaPrMnO6,mp-1518813,0.0,1.22724251,0.18619652414583587,"{56: 1, 11: 1, 59: 1, 25: 1, 8: 6}","[8, 11, 25, 56, 59]",86111251561591,Ba1Na1Pr1Mn1O6
BaNaNdMnO6,mp-1517829,0.0,1.13072412,0.16979216633333216,"{56: 1, 11: 1, 60: 1, 25: 1, 8: 6}","[8, 11, 25, 56, 60]",86111251561601,Ba1Na1Nd1Mn1O6
BaNaSmMnO6,mp-1517761,0.0,1.13061282,0.15633643702083333,"{56: 1, 11: 1, 62: 1, 25: 1, 8: 6}","[8, 11, 25, 56, 62]",86111251561621,Ba1Na1Sm1Mn1O6
BaNaEuMnO6,mp-1519543,0.0,1.77917217,0.28018515045833325,"{56: 1, 11: 1, 63: 1, 25: 1, 8: 6}","[8, 11, 25, 56, 63]",86111251561631,Ba1Na1Eu1Mn1O6
BaNaMnBiO6,mp-1518849,0.0,2.38996844,0.17827198683333378,"{56: 1, 11: 1, 25: 1, 83: 1, 8: 6}","[8, 11, 25, 56, 83]",86111251561831,Ba1Na1Mn1Bi1O6
Ba2NaMnO6,mp-1516498,0.0,1.36106411,0.12510015283334042,"{56: 2, 11: 1, 25: 1, 8: 6}","[8, 11, 25, 56]",86111251562,Ba2Na1Mn1O6
BaNaLaFeO6,mp-1520093,0.0,2.49121477,0.1434230166499999,"{56: 1, 11: 1, 57: 1, 26: 1, 8: 6}","[8, 11, 26, 56, 57]",86111261561571,Ba1Na1La1Fe1O6
BaNaCeFeO6,mp-1519179,0.0,2.46755887,0.1123348199999965,"{56: 1, 11: 1, 58: 1, 26: 1, 8: 6}","[8, 11, 26, 56, 58]",86111261561581,Ba1Na1Ce1Fe1O6
BaNaPrFeO6,mp-1522267,0.0,1.53650634,0.14689151787500077,"{56: 1, 11: 1, 59: 1, 26: 1, 8: 6}","[8, 11, 26, 56, 59]",86111261561591,Ba1Na1Pr1Fe1O6
BaNaNdFeO6,mp-1516692,0.0,1.52316894,0.14327258449999913,"{56: 1, 11: 1, 60: 1, 26: 1, 8: 6}","[8, 11, 26, 56, 60]",86111261561601,Ba1Na1Nd1Fe1O6
BaNaEuFeO6,mp-1520230,0.0,1.29454224,0.17794457143750186,"{56: 1, 11: 1, 63: 1, 26: 1, 8: 6}","[8, 11, 26, 56, 63]",86111261561631,Ba1Na1Eu1Fe1O6
Ba2Na(CuO2)3,mp-6496,0.0,3.15711575,0.0,"{56: 2, 11: 1, 29: 3, 8: 6}","[8, 11, 29, 56]",86111293562,Ba2Na1Cu3O6
BaNaLaSeO6,mp-1517423,2.0473000000000003,3.37542824,0.132738086874995,"{56: 1, 11: 1, 57: 1, 34: 1, 8: 6}","[8, 11, 34, 56, 57]",86111341561571,Ba1Na1La1Se1O6
BaNaPrSeO6,mp-1520242,1.9163000000000006,2.51652733,0.13228827312499458,"{56: 1, 11: 1, 59: 1, 34: 1, 8: 6}","[8, 11, 34, 56, 59]",86111341561591,Ba1Na1Pr1Se1O6
BaNaNdSeO6,mp-1520207,1.8960999999999997,2.45274983,0.13023237724999515,"{56: 1, 11: 1, 60: 1, 34: 1, 8: 6}","[8, 11, 34, 56, 60]",86111341561601,Ba1Na1Nd1Se1O6
BaNaSmSeO6,mp-1517581,1.8646000000000003,2.46229705,0.12973692675000326,"{56: 1, 11: 1, 62: 1, 34: 1, 8: 6}","[8, 11, 34, 56, 62]",86111341561621,Ba1Na1Sm1Se1O6
BaNaEuSeO6,mp-1521429,0.0,2.42005898,0.1983288881249985,"{56: 1, 11: 1, 63: 1, 34: 1, 8: 6}","[8, 11, 34, 56, 63]",86111341561631,Ba1Na1Eu1Se1O6
BaNaYWO6,mp-1516963,2.8552,1.84222014,0.007841522895853714,"{56: 1, 11: 1, 39: 1, 74: 1, 8: 6}","[8, 11, 39, 56, 74]",86111391561741,Ba1Na1Y1W1O6
BaNaZrBiO6,mp-1520791,1.0379,2.11004159,0.048030828499999956,"{56: 1, 11: 1, 40: 1, 83: 1, 8: 6}","[8, 11, 40, 56, 83]",86111401561831,Ba1Na1Zr1Bi1O6
BaNaCeNbO6,mp-1522146,2.0165999999999995,2.12778775,0.07104732133331026,"{56: 1, 11: 1, 58: 1, 41: 1, 8: 6}","[8, 11, 41, 56, 58]",86111411561581,Ba1Na1Ce1Nb1O6
BaNaPrNbO6,mp-1518832,0.0,1.04176755,0.11927054722082087,"{56: 1, 11: 1, 59: 1, 41: 1, 8: 6}","[8, 11, 41, 56, 59]",86111411561591,Ba1Na1Pr1Nb1O6
BaNaNbBiO6,mp-1516598,0.0,3.16278146,0.07386391612499565,"{56: 1, 11: 1, 41: 1, 83: 1, 8: 6}","[8, 11, 41, 56, 83]",86111411561831,Ba1Na1Nb1Bi1O6
Ba3NaNbO6,mp-8960,3.0766,1.58569425,0.0,"{56: 3, 11: 1, 41: 1, 8: 6}","[8, 11, 41, 56]",86111411563,Ba3Na1Nb1O6
Ba3NaRuO6,mp-9745,0.5280999999999998,2.82220823,0.0,"{56: 3, 11: 1, 44: 1, 8: 6}","[8, 11, 44, 56]",86111441563,Ba3Na1Ru1O6
BaNaSnBiO6,mp-1517547,0.0,3.16391053,0.10106278700000448,"{56: 1, 11: 1, 50: 1, 83: 1, 8: 6}","[8, 11, 50, 56, 83]",86111501561831,Ba1Na1Sn1Bi1O6
BaNaCeSbO6,mp-1520946,1.8794999999999997,3.10945134,0.033507397222230395,"{56: 1, 11: 1, 58: 1, 51: 1, 8: 6}","[8, 11, 51, 56, 58]",86111511561581,Ba1Na1Ce1Sb1O6
BaNaPrSbO6,mp-1521782,0.0,1.87729754,0.09049358962777543,"{56: 1, 11: 1, 59: 1, 51: 1, 8: 6}","[8, 11, 51, 56, 59]",86111511561591,Ba1Na1Pr1Sb1O6
BaNaSbWO6,mp-1517995,1.3942999999999994,4.39867557,0.13489355955356164,"{56: 1, 11: 1, 51: 1, 74: 1, 8: 6}","[8, 11, 51, 56, 74]",86111511561741,Ba1Na1Sb1W1O6
Ba3NaSbO6,mp-1190024,2.8068,2.43581612,0.0,"{56: 3, 11: 1, 51: 1, 8: 6}","[8, 11, 51, 56]",86111511563,Ba3Na1Sb1O6
Ba2NaIO6,mp-1091394,2.2417000000000002,2.80780736,0.0,"{56: 2, 11: 1, 53: 1, 8: 6}","[8, 11, 53, 56]",86111531562,Ba2Na1I1O6
BaNaLaWO6,mp-1519664,3.0444999999999998,2.55597064,0.04609535368752482,"{56: 1, 11: 1, 57: 1, 74: 1, 8: 6}","[8, 11, 56, 57, 74]",86111561571741,Ba1Na1La1W1O6
BaNaCeWO6,mp-1520136,0.5205999999999995,3.87219637,0.05484462206251983,"{56: 1, 11: 1, 58: 1, 74: 1, 8: 6}","[8, 11, 56, 58, 74]",86111561581741,Ba1Na1Ce1W1O6
BaNaCeBiO6,mp-1519525,1.5674000000000001,2.33993544,0.03364747787499933,"{56: 1, 11: 1, 58: 1, 83: 1, 8: 6}","[8, 11, 56, 58, 83]",86111561581831,Ba1Na1Ce1Bi1O6
BaNaPrWO6,mp-1519011,2.9179999999999997,1.57113923,0.02815865909375237,"{56: 1, 11: 1, 59: 1, 74: 1, 8: 6}","[8, 11, 56, 59, 74]",86111561591741,Ba1Na1Pr1W1O6
BaNaPrBiO6,mp-1522899,0.0,1.38892326,0.09772045893750114,"{56: 1, 11: 1, 59: 1, 83: 1, 8: 6}","[8, 11, 56, 59, 83]",86111561591831,Ba1Na1Pr1Bi1O6
BaNaNdWO6,mp-1518179,2.9197000000000006,1.59662567,0.03126306671874879,"{56: 1, 11: 1, 60: 1, 74: 1, 8: 6}","[8, 11, 56, 60, 74]",86111561601741,Ba1Na1Nd1W1O6
BaNaSmWO6,mp-1516632,2.92,1.67886983,0.020636466265623987,"{56: 1, 11: 1, 62: 1, 74: 1, 8: 6}","[8, 11, 56, 62, 74]",86111561621741,Ba1Na1Sm1W1O6
BaNaEuWO6,mp-1518039,0.0,1.91431265,0.03801084031250568,"{56: 1, 11: 1, 63: 1, 74: 1, 8: 6}","[8, 11, 56, 63, 74]",86111561631741,Ba1Na1Eu1W1O6
BaNaGdWO6,mp-1516849,2.8728,1.68047122,0.015386676895854379,"{56: 1, 11: 1, 64: 1, 74: 1, 8: 6}","[8, 11, 56, 64, 74]",86111561641741,Ba1Na1Gd1W1O6
BaNaTbWO6,mp-1517370,2.8478000000000003,1.79999055,0.008678987218755374,"{56: 1, 11: 1, 65: 1, 74: 1, 8: 6}","[8, 11, 56, 65, 74]",86111561651741,Ba1Na1Tb1W1O6
BaNaTbBiO6,mp-1522715,0.0,1.39550112,0.0997026837187498,"{56: 1, 11: 1, 65: 1, 83: 1, 8: 6}","[8, 11, 56, 65, 83]",86111561651831,Ba1Na1Tb1Bi1O6
BaNaDyWO6,mp-1520399,2.8635,1.71253187,0.0004843171874986396,"{56: 1, 11: 1, 66: 1, 74: 1, 8: 6}","[8, 11, 56, 66, 74]",86111561661741,Ba1Na1Dy1W1O6
BaNaHfBiO6,mp-1516939,1.0663,2.39259829,0.06361672700000032,"{56: 1, 11: 1, 72: 1, 83: 1, 8: 6}","[8, 11, 56, 72, 83]",86111561721831,Ba1Na1Hf1Bi1O6
BaNaBiWO6,mp-1516254,2.4274999999999998,3.02382206,0.04488642618750571,"{56: 1, 11: 1, 83: 1, 74: 1, 8: 6}","[8, 11, 56, 74, 83]",86111561741831,Ba1Na1Bi1W1O6
Ba2NaReO6,mp-6798,1.8688,1.9235851,0.0,"{56: 2, 11: 1, 75: 1, 8: 6}","[8, 11, 56, 75]",86111562751,Ba2Na1Re1O6
Ba2NaOsO6,mp-22442,0.0,3.23211052,0.0,"{56: 2, 11: 1, 76: 1, 8: 6}","[8, 11, 56, 76]",86111562761,Ba2Na1Os1O6
Ba2NaUO6,mp-1214646,0.0,2.42912026,0.0,"{56: 2, 11: 1, 92: 1, 8: 6}","[8, 11, 56, 92]",86111562921,Ba2Na1U1O6
Ba3NaTaO6,mp-8961,3.4044,1.68409773,0.0,"{56: 3, 11: 1, 73: 1, 8: 6}","[8, 11, 56, 73]",86111563731,Ba3Na1Ta1O6
Ba3NaIrO6,mp-9746,0.0,3.05587467,0.0,"{56: 3, 11: 1, 77: 1, 8: 6}","[8, 11, 56, 77]",86111563771,Ba3Na1Ir1O6
Ba3NaBiO6,mp-556316,1.7096000000000002,1.8782404,0.0,"{56: 3, 11: 1, 83: 1, 8: 6}","[8, 11, 56, 83]",86111563831,Ba3Na1Bi1O6
BaNa2(SiO3)2,mp-556806,4.1731,1.26455742,0.014120158636361957,"{56: 1, 11: 2, 14: 2, 8: 6}","[8, 11, 14, 56]",86112142561,Ba1Na2Si2O6
Ba2MgZrTiO6,mp-2241013,1.2641999999999998,4.29676395,0.21883220384297797,"{56: 2, 12: 1, 40: 1, 22: 1, 8: 6}","[8, 12, 22, 40, 56]",86121221401562,Ba2Mg1Zr1Ti1O6
Ba2MgTi2O6,mp-2217552,0.9191000000000003,4.54316615,0.24606871409090836,"{56: 2, 12: 1, 22: 2, 8: 6}","[8, 12, 22, 56]",86121222562,Ba2Mg1Ti2O6
Ba2MgVFeO6,mp-2223880,1.87,2.81986608,0.2567686974350645,"{56: 2, 12: 1, 23: 1, 26: 1, 8: 6}","[8, 12, 23, 26, 56]",86121231261562,Ba2Mg1V1Fe1O6
Ba2MgNbVO6,mp-2226968,0.0,5.17765066,0.3535672614204559,"{56: 2, 12: 1, 41: 1, 23: 1, 8: 6}","[8, 12, 23, 41, 56]",86121231411562,Ba2Mg1Nb1V1O6
Ba2MgVMoO6,mp-2217741,0.0,4.00863343,0.35688462242424457,"{56: 2, 12: 1, 23: 1, 42: 1, 8: 6}","[8, 12, 23, 42, 56]",86121231421562,Ba2Mg1V1Mo1O6
Ba2MgCrMoO6,mp-2242301,1.1214999999999997,3.31496062,0.272474554659091,"{56: 2, 12: 1, 24: 1, 42: 1, 8: 6}","[8, 12, 24, 42, 56]",86121241421562,Ba2Mg1Cr1Mo1O6
Ba2MgMnMoO6,mp-2226724,1.4017000000000004,3.72349701,0.233449380075756,"{56: 2, 12: 1, 25: 1, 42: 1, 8: 6}","[8, 12, 25, 42, 56]",86121251421562,Ba2Mg1Mn1Mo1O6
Ba2MgMnWO6,mp-2240013,1.1658999999999997,3.73263101,0.30977911977272754,"{56: 2, 12: 1, 25: 1, 74: 1, 8: 6}","[8, 12, 25, 56, 74]",86121251562741,Ba2Mg1Mn1W1O6
BaLaMgMn2O6,mp-2217986,0.0,5.50002248,0.1295408977380923,"{56: 1, 57: 1, 12: 1, 25: 2, 8: 6}","[8, 12, 25, 56, 57]",86121252561571,Ba1La1Mg1Mn2O6
BaPrMgMn2O6,mp-2240280,0.3033999999999999,5.36070418,0.11129818272727388,"{56: 1, 59: 1, 12: 1, 25: 2, 8: 6}","[8, 12, 25, 56, 59]",86121252561591,Ba1Pr1Mg1Mn2O6
BaNdMgMn2O6,mp-2217652,0.0,4.5681815,0.12017813818177547,"{56: 1, 60: 1, 12: 1, 25: 2, 8: 6}","[8, 12, 25, 56, 60]",86121252561601,Ba1Nd1Mg1Mn2O6
Ba2MgMn2O6,mp-2215870,1.8439,1.90962645,0.11251970177273218,"{56: 2, 12: 1, 25: 2, 8: 6}","[8, 12, 25, 56]",86121252562,Ba2Mg1Mn2O6
Ba2MgFeMoO6,mp-2217283,0.8445000000000005,3.60566929,0.19408043636364436,"{56: 2, 12: 1, 26: 1, 42: 1, 8: 6}","[8, 12, 26, 42, 56]",86121261421562,Ba2Mg1Fe1Mo1O6
Ba2MgFeWO6,mp-2223651,1.9303999999999997,3.6014793,0.3221983172727265,"{56: 2, 12: 1, 26: 1, 74: 1, 8: 6}","[8, 12, 26, 56, 74]",86121261562741,Ba2Mg1Fe1W1O6
Ba2MgFeReO6,mp-2217890,0.8178999999999998,4.57428304,0.3202068590909155,"{56: 2, 12: 1, 26: 1, 75: 1, 8: 6}","[8, 12, 26, 56, 75]",86121261562751,Ba2Mg1Fe1Re1O6
Ba2MgCoMoO6,mp-2222775,1.1731000000000003,3.65010926,0.23074347227272707,"{56: 2, 12: 1, 27: 1, 42: 1, 8: 6}","[8, 12, 27, 42, 56]",86121271421562,Ba2Mg1Co1Mo1O6
Ba2MgCoWO6,mp-2218102,1.8519999999999999,3.62931556,0.3312106000000057,"{56: 2, 12: 1, 27: 1, 74: 1, 8: 6}","[8, 12, 27, 56, 74]",86121271562741,Ba2Mg1Co1W1O6
BaLaMg(CoO3)2,mp-2217308,0.0,5.1255122,0.12604971704546575,"{56: 1, 57: 1, 12: 1, 27: 2, 8: 6}","[8, 12, 27, 56, 57]",86121272561571,Ba1La1Mg1Co2O6
BaPrMg(CoO3)2,mp-2222923,0.0,3.9242607,0.12670591687500998,"{56: 1, 59: 1, 12: 1, 27: 2, 8: 6}","[8, 12, 27, 56, 59]",86121272561591,Ba1Pr1Mg1Co2O6
BaNdMg(CoO3)2,mp-2240082,0.0,3.79988808,0.2778995936363753,"{56: 1, 60: 1, 12: 1, 27: 2, 8: 6}","[8, 12, 27, 56, 60]",86121272561601,Ba1Nd1Mg1Co2O6
BaHoMg(CoO3)2,mp-2217714,0.1299999999999999,3.57904947,0.3511557736931801,"{56: 1, 67: 1, 12: 1, 27: 2, 8: 6}","[8, 12, 27, 56, 67]",86121272561671,Ba1Ho1Mg1Co2O6
Ba2Mg(CoO3)2,mp-2227473,0.8877000000000002,3.03369495,0.15761587613636685,"{56: 2, 12: 1, 27: 2, 8: 6}","[8, 12, 27, 56]",86121272562,Ba2Mg1Co2O6
Ba2MgCuTeO6,mp-2218048,0.0,5.41363739,0.21360096954544794,"{56: 2, 12: 1, 29: 1, 52: 1, 8: 6}","[8, 12, 29, 52, 56]",86121291521562,Ba2Mg1Cu1Te1O6
Ba2MgCuWO6,mp-2234096,0.7394000000000007,4.27271049,0.4039497527272662,"{56: 2, 12: 1, 29: 1, 74: 1, 8: 6}","[8, 12, 29, 56, 74]",86121291562741,Ba2Mg1Cu1W1O6
Ba2MgTl2CuO6,mp-2218239,0.0,3.53129031,0.18463802322916667,"{56: 2, 12: 1, 81: 2, 29: 1, 8: 6}","[8, 12, 29, 56, 81]",86121291562812,Ba2Mg1Tl2Cu1O6
BaLaMgZnRuO6,mp-2226529,0.12819999999999965,5.54820923,0.2748704281817753,"{56: 1, 57: 1, 12: 1, 30: 1, 44: 1, 8: 6}","[8, 12, 30, 44, 56, 57]",86121301441561571,Ba1La1Mg1Zn1Ru1O6
Ba2MgZnWO6,mp-2242187,1.4500000000000002,3.12289952,0.2853785572727272,"{56: 2, 12: 1, 30: 1, 74: 1, 8: 6}","[8, 12, 30, 56, 74]",86121301562741,Ba2Mg1Zn1W1O6
Ba2YMgNbO6,mp-2217320,0.0,4.96959596,0.36420701463636185,"{56: 2, 39: 1, 12: 1, 41: 1, 8: 6}","[8, 12, 39, 41, 56]",86121391411562,Ba2Y1Mg1Nb1O6
Ba2YMgRuO6,mp-2240594,0.0,4.13646272,0.3636450684545398,"{56: 2, 39: 1, 12: 1, 44: 1, 8: 6}","[8, 12, 39, 44, 56]",86121391441562,Ba2Y1Mg1Ru1O6
Ba2YMgSbO6,mp-2241296,2.5044,2.78186052,0.2266971480681823,"{56: 2, 39: 1, 12: 1, 51: 1, 8: 6}","[8, 12, 39, 51, 56]",86121391511562,Ba2Y1Mg1Sb1O6
Ba2YMgBiO6,mp-2217325,2.3588999999999998,2.40775451,0.2169690177272745,"{56: 2, 39: 1, 12: 1, 83: 1, 8: 6}","[8, 12, 39, 56, 83]",86121391562831,Ba2Y1Mg1Bi1O6
Ba2MgNbInO6,mp-2218010,1.1141,3.72156896,0.4556434941414187,"{56: 2, 12: 1, 41: 1, 49: 1, 8: 6}","[8, 12, 41, 49, 56]",86121411491562,Ba2Mg1Nb1In1O6
BaLaMgNbO6,mp-39288,2.6557000000000004,4.02664952,0.09039945658333437,"{56: 1, 57: 1, 12: 1, 41: 1, 8: 6}","[8, 12, 41, 56, 57]",86121411561571,Ba1La1Mg1Nb1O6
Ba2LaMgNbO6,mp-2217682,0.0,6.18370808,0.35552411604544787,"{56: 2, 57: 1, 12: 1, 41: 1, 8: 6}","[8, 12, 41, 56, 57]",86121411562571,Ba2La1Mg1Nb1O6
Ba2CeMgNbO6,mp-2217812,0.0,5.74235818,0.23062012236363483,"{56: 2, 58: 1, 12: 1, 41: 1, 8: 6}","[8, 12, 41, 56, 58]",86121411562581,Ba2Ce1Mg1Nb1O6
Ba2PrMgNbO6,mp-2224757,0.0,4.63045504,0.2870205235454497,"{56: 2, 59: 1, 12: 1, 41: 1, 8: 6}","[8, 12, 41, 56, 59]",86121411562591,Ba2Pr1Mg1Nb1O6
Ba2NdMgNbO6,mp-2240134,0.0,5.33615704,0.42212805911363294,"{56: 2, 60: 1, 12: 1, 41: 1, 8: 6}","[8, 12, 41, 56, 60]",86121411562601,Ba2Nd1Mg1Nb1O6
Ba2SmMgNbO6,mp-2222862,0.0,4.73562561,0.3191584543409016,"{56: 2, 62: 1, 12: 1, 41: 1, 8: 6}","[8, 12, 41, 56, 62]",86121411562621,Ba2Sm1Mg1Nb1O6
Ba2EuMgNbO6,mp-2240659,0.1968999999999994,5.10496438,0.15931360745454182,"{56: 2, 63: 1, 12: 1, 41: 1, 8: 6}","[8, 12, 41, 56, 63]",86121411562631,Ba2Eu1Mg1Nb1O6
Ba2DyMgNbO6,mp-2217995,0.0,4.96911907,0.3685119690909078,"{56: 2, 66: 1, 12: 1, 41: 1, 8: 6}","[8, 12, 41, 56, 66]",86121411562661,Ba2Dy1Mg1Nb1O6
Ba2HoMgNbO6,mp-2217913,0.0,4.96693678,0.3779666889090887,"{56: 2, 67: 1, 12: 1, 41: 1, 8: 6}","[8, 12, 41, 56, 67]",86121411562671,Ba2Ho1Mg1Nb1O6
Ba2ErMgNbO6,mp-2234097,0.0,5.4108623,0.41492011245454385,"{56: 2, 68: 1, 12: 1, 41: 1, 8: 6}","[8, 12, 41, 56, 68]",86121411562681,Ba2Er1Mg1Nb1O6
Ba2TmMgNbO6,mp-2240398,0.0,5.05582249,0.3971513945909031,"{56: 2, 69: 1, 12: 1, 41: 1, 8: 6}","[8, 12, 41, 56, 69]",86121411562691,Ba2Tm1Mg1Nb1O6
Ba2LuMgNbO6,mp-2217600,0.0,5.08530727,0.41150396472726847,"{56: 2, 71: 1, 12: 1, 41: 1, 8: 6}","[8, 12, 41, 56, 71]",86121411562711,Ba2Lu1Mg1Nb1O6
Ba2MgMoO6,mp-1205825,2.2647999999999997,4.98940118,0.0,"{56: 2, 12: 1, 42: 1, 8: 6}","[8, 12, 42, 56]",86121421562,Ba2Mg1Mo1O6
Ba2NdMgMoO6,mp-2226150,2.4982,3.11027572,0.1327112605681826,"{56: 2, 60: 1, 12: 1, 42: 1, 8: 6}","[8, 12, 42, 56, 60]",86121421562601,Ba2Nd1Mg1Mo1O6
Ba2SmMgMoO6,mp-2227531,2.2166000000000006,3.23985316,0.23173472849999577,"{56: 2, 62: 1, 12: 1, 42: 1, 8: 6}","[8, 12, 42, 56, 62]",86121421562621,Ba2Sm1Mg1Mo1O6
Ba2GdMgMoO6,mp-2227258,1.5189,3.44642151,0.297334995045448,"{56: 2, 64: 1, 12: 1, 42: 1, 8: 6}","[8, 12, 42, 56, 64]",86121421562641,Ba2Gd1Mg1Mo1O6