formula,material_id,band_gap,efermi,energy_above_hull,comp_atoms,sorted_keys_comp_atoms,comp_number,new_formula
Ba6CaI14,mp-766337,3.0651,0.96947906,0.065669322857143,"{56: 6, 20: 1, 53: 14}","[20, 53, 56]",2015314566,Ba6Ca1I14
BaCaI4,mp-753809,3.4982999999999995,1.11860349,0.027518532083335767,"{56: 1, 20: 1, 53: 4}","[20, 53, 56]",201534561,Ba1Ca1I4
Ba2CaI6,mp-756725,3.5732,1.27236642,0.0070092049999956885,"{56: 2, 20: 1, 53: 6}","[20, 53, 56]",201536562,Ba2Ca1I6
Ba3CaI8,mp-859126,2.9489,1.41681677,0.04635655020833296,"{56: 3, 20: 1, 53: 8}","[20, 53, 56]",201538563,Ba3Ca1I8
BaCa,mp-1227938,0.0,1.74885286,0.04079111000000002,"{56: 1, 20: 1}","[20, 56]",201561,Ba1Ca1
BaCaHg2,mp-1097359,0.18070000000000008,-1.91577587,1.3487994099999996,"{56: 1, 20: 1, 80: 2}","[20, 56, 80]",201561802,Ba1Ca1Hg2
BaCaTl2,mp-1095980,0.054300000000000015,-2.13255612,1.6092681475000026,"{56: 1, 20: 1, 81: 2}","[20, 56, 81]",201561812,Ba1Ca1Tl2
BaCaPb,mp-1102214,0.21520000000000028,3.28767324,0.0,"{56: 1, 20: 1, 82: 1}","[20, 56, 82]",201561821,Ba1Ca1Pb1
Ba3Ca,mp-1183374,0.0,1.74399547,0.02985033874999843,"{56: 3, 20: 1}","[20, 56]",201563,Ba3Ca1
BaCa2I6,mp-757074,3.8624000000000005,0.5296314,0.029202725277777564,"{56: 1, 20: 2, 53: 6}","[20, 53, 56]",202536561,Ba1Ca2I6
BaCa3,mp-1183332,0.0,1.99553809,0.03701715999999999,"{56: 1, 20: 3}","[20, 56]",203561,Ba1Ca3
Ba2Ca7I18,mp-766303,3.3846,1.33075782,0.07217705870370361,"{56: 2, 20: 7, 53: 18}","[20, 53, 56]",2075318562,Ba2Ca7I18
BaScCu3Se4,mp-1182182,1.4923,1.85692244,0.16510878638889004,"{56: 1, 21: 1, 29: 3, 34: 4}","[21, 29, 34, 56]",211293344561,Ba1Sc1Cu3Se4
BaYSc,mp-631495,0.0,1.83997638,0.8405989183333338,"{56: 1, 39: 1, 21: 1}","[21, 39, 56]",211391561,Ba1Y1Sc1
BaScIr,mp-631492,0.0,3.90572605,1.6070752400000012,"{56: 1, 21: 1, 77: 1}","[21, 56, 77]",211561771,Ba1Sc1Ir1
Ba(ScTe2)2,mp-17501,0.43100000000000005,4.51360505,0.0,"{56: 1, 21: 2, 52: 4}","[21, 52, 56]",212524561,Ba1Sc2Te4
Ba3Sc4,mp-1078164,0.0,2.72622776,0.41120075285714197,"{56: 3, 21: 4}","[21, 56]",214563,Ba3Sc4
Ba4TiAs4,mp-15503,1.0497999999999998,2.173118,0.0,"{56: 4, 22: 1, 33: 4}","[22, 33, 56]",221334564,Ba4Ti1As4
BaTiSe3,mp-1079893,0.0,3.34336363,0.0,"{56: 1, 22: 1, 34: 3}","[22, 34, 56]",221343561,Ba1Ti1Se3
Ba2UTiTe7,mp-1195439,0.0,5.49394428,0.021231387727277173,"{56: 2, 92: 1, 22: 1, 52: 7}","[22, 52, 56, 92]",221527562921,Ba2U1Ti1Te7
BaVSe3,mp-676597,0.0,3.79088627,0.0226695529999974,"{56: 1, 23: 1, 34: 3}","[23, 34, 56]",231343561,Ba1V1Se3
BaCrCu3Se4,mp-1182275,0.008299999999999752,3.16500978,0.21979983388888868,"{56: 1, 24: 1, 29: 3, 34: 4}","[24, 29, 34, 56]",241293344561,Ba1Cr1Cu3Se4
Ba2ThCrTe7,mp-1195123,0.0,4.75770397,0.07527952136363503,"{56: 2, 90: 1, 24: 1, 52: 7}","[24, 52, 56, 90]",241527562901,Ba2Th1Cr1Te7
Ba2UCrTe7,mp-1195734,0.0,5.35738408,0.11485121363636441,"{56: 2, 92: 1, 24: 1, 52: 7}","[24, 52, 56, 92]",241527562921,Ba2U1Cr1Te7
Ba(CrAs)2,mp-571339,0.0,4.45891247,0.008602989666665728,"{56: 1, 24: 2, 33: 2}","[24, 33, 56]",242332561,Ba1Cr2As2
BaMnGe,mp-20639,0.0,2.87048457,0.2298344173563205,"{56: 1, 25: 1, 32: 1}","[25, 32, 56]",251321561,Ba1Mn1Ge1
Ba2MnTeSe2,mp-1228544,0.0,3.27548194,0.0,"{56: 2, 25: 1, 52: 1, 34: 2}","[25, 34, 52, 56]",251342521562,Ba2Mn1Te1Se2
Ba2MnSe3,mp-18513,1.0675,2.48772661,0.0,"{56: 2, 25: 1, 34: 3}","[25, 34, 56]",251343562,Ba2Mn1Se3
BaMnSnSe4,mp-1204333,0.9141999999999997,2.41117759,0.0,"{56: 1, 25: 1, 50: 1, 34: 4}","[25, 34, 50, 56]",251344501561,Ba1Mn1Sn1Se4
Ba3UMnSe6,mp-1190712,0.0,3.98291288,0.15896507470779575,"{56: 3, 92: 1, 25: 1, 34: 6}","[25, 34, 56, 92]",251346563921,Ba3U1Mn1Se6
Ba14MnSb11,mp-532211,0.0,3.11551783,0.013799661060340362,"{56: 14, 25: 1, 51: 11}","[25, 51, 56]",25151115614,Ba14Mn1Sb11
BaMnSb2,mp-29206,0.0,4.35554589,0.08872857260057376,"{56: 1, 25: 1, 51: 2}","[25, 51, 56]",251512561,Ba1Mn1Sb2
Ba2MnTe3,mp-16905,0.8251999999999997,3.41147663,0.0,"{56: 2, 25: 1, 52: 3}","[25, 52, 56]",251523562,Ba2Mn1Te3
Ba14MnBi11,mp-567518,0.0,2.79690319,0.0,"{56: 14, 25: 1, 83: 11}","[25, 56, 83]",25156148311,Ba14Mn1Bi11
BaMnBi2,mp-1079799,0.0,3.73703502,0.17870084010057585,"{56: 1, 25: 1, 83: 2}","[25, 56, 83]",251561832,Ba1Mn1Bi2
Ba3Mn,mp-1183323,0.0,2.44277868,0.46834242301724105,"{56: 3, 25: 1}","[25, 56]",251563,Ba3Mn1
Ba(MnGe)2,mp-22412,0.0,3.88671829,0.09458175450000095,"{56: 1, 25: 2, 32: 2}","[25, 32, 56]",252322561,Ba1Mn2Ge2
Ba(MnAs)2,mp-15608,0.0,4.8137755,0.0,"{56: 1, 25: 2, 33: 2}","[25, 33, 56]",252332561,Ba1Mn2As2
Ba(MnSn)2,mp-22679,0.0,4.56989716,0.2205082748275906,"{56: 1, 25: 2, 50: 2}","[25, 50, 56]",252502561,Ba1Mn2Sn2
Ba(MnSb)2,mp-567240,0.0,5.20179353,0.12460563149424875,"{56: 1, 25: 2, 51: 2}","[25, 51, 56]",252512561,Ba1Mn2Sb2
Ba(MnBi)2,mp-1068010,0.0,4.51254407,0.17875167749425636,"{56: 1, 25: 2, 83: 2}","[25, 56, 83]",252561832,Ba1Mn2Bi2
BaMn28,mp-1194459,0.0,6.15339949,0.20053765751486274,"{56: 1, 25: 28}","[25, 56]",2528561,Ba1Mn28
BaFe12,mp-1229277,0.0,3.81480539,0.3520984273076939,"{56: 1, 26: 12}","[26, 56]",2612561,Ba1Fe12
BaFeAs2Ru,mp-1227957,0.0,4.97781292,0.04161497649999912,"{56: 1, 26: 1, 33: 2, 44: 1}","[26, 33, 44, 56]",261332441561,Ba1Fe1As2Ru1
Ba2FeSe3,mp-1191973,0.0,2.78051698,0.25571637750000065,"{56: 2, 26: 1, 34: 3}","[26, 34, 56]",261343562,Ba2Fe1Se3
Ba3UFeSe6,mp-1190259,0.0,4.34214453,0.016448710357145124,"{56: 3, 92: 1, 26: 1, 34: 6}","[26, 34, 56, 92]",261346563921,Ba3U1Fe1Se6
Ba(FeAs)2,mp-568961,0.0,4.88622424,0.0,"{56: 1, 26: 2, 33: 2}","[26, 33, 56]",262332561,Ba1Fe2As2
BaFe2Se3,mp-504563,0.0,3.68116036,0.05822068625000032,"{56: 1, 26: 2, 34: 3}","[26, 34, 56]",262343561,Ba1Fe2Se3
Ba(FeSe2)2,mp-1077893,0.0,3.55812819,0.12308677499999998,"{56: 1, 26: 2, 34: 4}","[26, 34, 56]",262344561,Ba1Fe2Se4
Ba(FeBr4)2,mp-568396,0.7292000000000001,-1.2726039,0.0,"{56: 1, 26: 2, 35: 8}","[26, 35, 56]",262358561,Ba1Fe2Br8
Ba4Fe3Se10,mp-1195255,0.0,3.09505638,0.09654314323529523,"{56: 4, 26: 3, 34: 10}","[26, 34, 56]",2633410564,Ba4Fe3Se10
Ba3Fe3Se7,mp-567429,0.0,2.21540373,0.047037090384617564,"{56: 3, 26: 3, 34: 7}","[26, 34, 56]",263347563,Ba3Fe3Se7
Ba9(FeSe4)4,mp-1229328,0.0,2.19697294,0.0743026922413792,"{56: 9, 26: 4, 34: 16}","[26, 34, 56]",2643416569,Ba9Fe4Se16
Ba(FeSb3)4,mp-1189647,0.0,7.42966713,0.0,"{56: 1, 26: 4, 51: 12}","[26, 51, 56]",2645112561,Ba1Fe4Sb12
Ba(Co5As3)2,mp-21918,0.0,5.75308901,0.02730692470588192,"{56: 1, 27: 10, 33: 6}","[27, 33, 56]",2710336561,Ba1Co10As6
BaCoCu3Se4,mp-1182299,0.0,2.4676724,0.1956194567592595,"{56: 1, 27: 1, 29: 3, 34: 4}","[27, 29, 34, 56]",271293344561,Ba1Co1Cu3Se4
BaCoSe2,mp-1147588,0.0,3.71542233,0.22812045166666373,"{56: 1, 27: 1, 34: 2}","[27, 34, 56]",271342561,Ba1Co1Se2
Ba2UCo,mp-1063920,0.0,5.00180175,1.4411606431250004,"{56: 2, 92: 1, 27: 1}","[27, 56, 92]",271562921,Ba2U1Co1
Ba(CoGe)2,mp-1070253,0.0,4.56908952,0.0,"{56: 1, 27: 2, 32: 2}","[27, 32, 56]",272322561,Ba1Co2Ge2
Ba(CoAs)2,mp-20563,0.0,4.72683673,0.0,"{56: 1, 27: 2, 33: 2}","[27, 33, 56]",272332561,Ba1Co2As2
Ba(CoSn4)2,mp-1195776,0.0,7.16889864,0.0,"{56: 1, 27: 2, 50: 8}","[27, 50, 56]",272508561,Ba1Co2Sn8
Ba4Zn2CuGe20,mp-1229043,0.0,5.18535762,0.0,"{56: 4, 30: 2, 29: 1, 32: 20}","[29, 30, 32, 56]",2913023220564,Ba4Zn2Cu1Ge20
BaCuGe,mp-1227964,0.0,4.14274346,0.046628846666663115,"{56: 1, 29: 1, 32: 1}","[29, 32, 56]",291321561,Ba1Cu1Ge1
BaCuAs,mp-9898,0.0,4.15929929,0.0,"{56: 1, 29: 1, 33: 1}","[29, 33, 56]",291331561,Ba1Cu1As1
BaYCuSe3,mp-1101801,0.9653,3.37632314,0.0,"{56: 1, 39: 1, 29: 1, 34: 3}","[29, 34, 39, 56]",291343391561,Ba1Y1Cu1Se3
BaLaCuSe3,mp-541430,1.2052999999999998,3.78397073,0.0,"{56: 1, 57: 1, 29: 1, 34: 3}","[29, 34, 56, 57]",291343561571,Ba1La1Cu1Se3
BaGdCuSe3,mp-20157,0.8826,3.38691974,0.0,"{56: 1, 64: 1, 29: 1, 34: 3}","[29, 34, 56, 64]",291343561641,Ba1Gd1Cu1Se3
BaErCuSe3,mp-1101781,0.9489000000000005,3.55432376,0.0,"{56: 1, 68: 1, 29: 1, 34: 3}","[29, 34, 56, 68]",291343561681,Ba1Er1Cu1Se3
BaCu13,mp-642,0.0,5.70453964,0.0029819446428578367,"{56: 1, 29: 13}","[29, 56]",2913561,Ba1Cu13
BaYCuTe3,mp-10336,0.5313999999999997,4.65641791,0.0,"{56: 1, 39: 1, 29: 1, 52: 3}","[29, 39, 52, 56]",291391523561,Ba1Y1Cu1Te3
Ba2CuPd,mp-1097397,0.0,-1.51275591,1.3654770800000002,"{56: 2, 29: 1, 46: 1}","[29, 46, 56]",291461562,Ba2Cu1Pd1
BaCuSn2,mp-5792,0.0,5.51434764,0.0,"{56: 1, 29: 1, 50: 2}","[29, 50, 56]",291502561,Ba1Cu1Sn2
BaCuSb,mp-11700,0.0,4.77387642,0.0,"{56: 1, 29: 1, 51: 1}","[29, 51, 56]",291511561,Ba1Cu1Sb1
BaLaCuTe3,mp-17063,0.8131000000000004,4.73211515,0.0,"{56: 1, 57: 1, 29: 1, 52: 3}","[29, 52, 56, 57]",291523561571,Ba1La1Cu1Te3
BaPrCuTe3,mp-1214381,0.5658000000000003,4.69246469,0.0,"{56: 1, 59: 1, 29: 1, 52: 3}","[29, 52, 56, 59]",291523561591,Ba1Pr1Cu1Te3
BaNdCuTe3,mp-1214402,0.5138999999999996,4.25476958,0.0,"{56: 1, 60: 1, 29: 1, 52: 3}","[29, 52, 56, 60]",291523561601,Ba1Nd1Cu1Te3
BaGdCuTe3,mp-1095273,0.5030999999999999,4.45120751,0.0,"{56: 1, 64: 1, 29: 1, 52: 3}","[29, 52, 56, 64]",291523561641,Ba1Gd1Cu1Te3
BaTbCuTe3,mp-1095403,0.5309999999999997,4.63185538,0.0,"{56: 1, 65: 1, 29: 1, 52: 3}","[29, 52, 56, 65]",291523561651,Ba1Tb1Cu1Te3
BaDyCuTe3,mp-9503,0.5186000000000002,4.61224519,0.0,"{56: 1, 66: 1, 29: 1, 52: 3}","[29, 52, 56, 66]",291523561661,Ba1Dy1Cu1Te3
BaCu,mp-30428,0.0,2.51138074,0.0,"{56: 1, 29: 1}","[29, 56]",291561,Ba1Cu1
BaCuBi,mp-31145,0.0,4.2787843,0.04107070871794871,"{56: 1, 29: 1, 83: 1}","[29, 56, 83]",291561831,Ba1Cu1Bi1
BaZn2Cu2As3,mp-1214271,0.0,3.96182681,0.02804001572916448,"{56: 1, 30: 2, 29: 2, 33: 3}","[29, 30, 33, 56]",292302333561,Ba1Zn2Cu2As3
BaGaCu2,mp-1008511,0.0,3.55198443,0.0,"{56: 1, 31: 1, 29: 2}","[29, 31, 56]",292311561,Ba1Ga1Cu2
BaCu2GeSe4,mp-17252,0.3567,3.23217502,0.0,"{56: 1, 29: 2, 32: 1, 34: 4}","[29, 32, 34, 56]",292321344561,Ba1Cu2Ge1Se4
Ba(CuAs)2,mp-9247,0.0,4.90060993,0.0,"{56: 1, 29: 2, 33: 2}","[29, 33, 56]",292332561,Ba1Cu2As2
Ba(CuSe)2,mp-4473,0.4887000000000006,4.70094078,0.0040221209999993235,"{56: 1, 29: 2, 34: 2}","[29, 34, 56]",292342561,Ba1Cu2Se2
BaCu2SnSe4,mp-12364,0.45299999999999985,3.26571237,0.0,"{56: 1, 29: 2, 50: 1, 34: 4}","[29, 34, 50, 56]",292344501561,Ba1Cu2Sn1Se4
Ba2ThCu2Se5,mp-1078405,0.7546000000000004,3.84830748,0.0,"{56: 2, 90: 1, 29: 2, 34: 5}","[29, 34, 56, 90]",292345562901,Ba2Th1Cu2Se5
Ba2UCu2Se5,mp-1078441,0.0,4.82396722,0.0,"{56: 2, 92: 1, 29: 2, 34: 5}","[29, 34, 56, 92]",292345562921,Ba2U1Cu2Se5
Ba(InCu)2,mp-1214759,0.0,5.19933018,0.13135294199999858,"{56: 1, 49: 2, 29: 2}","[29, 49, 56]",292492561,Ba1In2Cu2
Ba(CuSb)2,mp-1080702,0.0,6.25480066,0.0,"{56: 1, 29: 2, 51: 2}","[29, 51, 56]",292512561,Ba1Cu2Sb2
Ba(CuTe)2,mp-30133,0.6006999999999998,5.57215501,0.019412735500001332,"{56: 1, 29: 2, 52: 2}","[29, 52, 56]",292522561,Ba1Cu2Te2
BaGaCu3Se4,mp-1182227,1.3948999999999998,3.6354778,0.21626512597222192,"{56: 1, 31: 1, 29: 3, 34: 4}","[29, 31, 34, 56]",293311344561,Ba1Ga1Cu3Se4
Ba4Cu3Ge20,mp-669542,0.0,3.27406373,0.0,"{56: 4, 29: 3, 32: 20}","[29, 32, 56]",2933220564,Ba4Cu3Ge20
BaYCu3Se4,mp-1182242,1.2651000000000001,1.36166272,0.3317208024999996,"{56: 1, 39: 1, 29: 3, 34: 4}","[29, 34, 39, 56]",293344391561,Ba1Y1Cu3Se4
BaInCu3Se4,mp-1182175,1.2734999999999999,2.36291443,0.2836288525000006,"{56: 1, 49: 1, 29: 3, 34: 4}","[29, 34, 49, 56]",293344491561,Ba1In1Cu3Se4
BaTlCu3Se4,mp-1182240,1.0076999999999998,2.16293297,0.38974624277777803,"{56: 1, 81: 1, 29: 3, 34: 4}","[29, 34, 56, 81]",293344561811,Ba1Tl1Cu3Se4
Ba(Cu2As)2,mp-16052,0.0,5.75228444,0.03827144428571927,"{56: 1, 29: 4, 33: 2}","[29, 33, 56]",294332561,Ba1Cu4As2
Ba2U(Cu2Se3)2,mp-1192549,0.0,5.35386314,0.0,"{56: 2, 92: 1, 29: 4, 34: 6}","[29, 34, 56, 92]",294346562921,Ba2U1Cu4Se6
Ba(Cu3As)2,mp-505215,0.0,5.27756516,0.01286638111111138,"{56: 1, 29: 6, 33: 2}","[29, 33, 56]",296332561,Ba1Cu6As2
BaCu6Te6Se,mp-1228039,0.4773999999999994,5.92008716,0.050323458571427615,"{56: 1, 29: 6, 52: 6, 34: 1}","[29, 34, 52, 56]",296341526561,Ba1Cu6Te6Se1
Ba(Cu2As)4,mp-14786,0.0,5.99138671,0.0,"{56: 1, 29: 8, 33: 4}","[29, 33, 56]",298334561,Ba1Cu8As4
BaCu9Ge4,mp-11145,0.0,6.61802738,0.0,"{56: 1, 29: 9, 32: 4}","[29, 32, 56]",299324561,Ba1Cu9Ge4
BaCu9Sn4,mp-1192715,0.0,7.41140057,0.0,"{56: 1, 29: 9, 50: 4}","[29, 50, 56]",299504561,Ba1Cu9Sn4
Ba4Zn11Ge12,mp-1214758,0.0,3.0554983,0.15305105043771317,"{56: 4, 30: 11, 32: 12}","[30, 32, 56]",30113212564,Ba4Zn11Ge12
Ba2ZnGa,mp-1096058,0.028899999999999926,-1.83255913,1.4948607680059522,"{56: 2, 30: 1, 31: 1}","[30, 31, 56]",301311562,Ba2Zn1Ga1
BaZnGe,mp-11818,0.0,3.06726235,0.0,"{56: 1, 30: 1, 32: 1}","[30, 32, 56]",301321561,Ba1Zn1Ge1
Ba2ZnAs2,mp-1078636,0.6404000000000001,2.56999806,0.0,"{56: 2, 30: 1, 33: 2}","[30, 33, 56]",301332562,Ba2Zn1As2
Ba2ZnSe3,mp-1190528,1.6214000000000002,1.69371802,0.004843865000000669,"{56: 2, 30: 1, 34: 3}","[30, 34, 56]",301343562,Ba2Zn1Se3
BaZn13,mp-672225,0.0,3.05086186,0.0,"{56: 1, 30: 13}","[30, 56]",3013561,Ba1Zn13
Ba2ZnPd,mp-1096110,0.0,-1.70437084,1.3461285233333333,"{56: 2, 30: 1, 46: 1}","[30, 46, 56]",301461562,Ba2Zn1Pd1
Ba2ZnAg,mp-1097365,0.0,-1.87979866,1.3917020052083338,"{56: 2, 30: 1, 47: 1}","[30, 47, 56]",301471562,Ba2Zn1Ag1
Ba2ZnCd,mp-984784,0.0,2.16280622,0.007584713333333992,"{56: 2, 30: 1, 48: 1}","[30, 48, 56]",301481562,Ba2Zn1Cd1
Ba2ZnIn,mp-1183381,0.0,3.10190356,0.009561917083334315,"{56: 2, 30: 1, 49: 1}","[30, 49, 56]",301491562,Ba2Zn1In1
BaZnIn3,mp-1227349,0.0,5.21606723,0.0,"{56: 1, 30: 1, 49: 3}","[30, 49, 56]",301493561,Ba1Zn1In3
BaZnSn,mp-31148,0.0,3.59317192,0.0,"{56: 1, 30: 1, 50: 1}","[30, 50, 56]",301501561,Ba1Zn1Sn1
Ba2ZnSn,mp-1093764,0.08719999999999994,-1.94235505,1.5784542897500018,"{56: 2, 30: 1, 50: 1}","[30, 50, 56]",301501562,Ba2Zn1Sn1
BaZnSn2,mp-1227443,0.0,4.56819834,0.17421385124999844,"{56: 1, 30: 1, 50: 2}","[30, 50, 56]",301502561,Ba1Zn1Sn2
BaZnSb2,mp-1205765,0.0,4.29299512,0.0033426288541651417,"{56: 1, 30: 1, 51: 2}","[30, 51, 56]",301512561,Ba1Zn1Sb2
Ba2ZnSb2,mp-1079149,0.29220000000000024,3.46640755,0.0,"{56: 2, 30: 1, 51: 2}","[30, 51, 56]",301512562,Ba2Zn1Sb2
Ba2ZnTe3,mp-1190380,1.2922000000000002,2.8506089,0.027225454166668772,"{56: 2, 30: 1, 52: 3}","[30, 52, 56]",301523562,Ba2Zn1Te3
BaZn,mp-902,0.0,2.03751215,0.0035235766666672497,"{56: 1, 30: 1}","[30, 56]",301561,Ba1Zn1
BaZnPb,mp-510311,0.0,3.34298891,0.020344268141026856,"{56: 1, 30: 1, 82: 1}","[30, 56, 82]",301561821,Ba1Zn1Pb1
BaZnBi2,mp-30427,0.0,3.79540731,0.0,"{56: 1, 30: 1, 83: 2}","[30, 56, 83]",301561832,Ba1Zn1Bi2
Ba2Zn,mp-1018178,0.0,1.86264753,0.0,"{56: 2, 30: 1}","[30, 56]",301562,Ba2Zn1
Ba2ZnAu,mp-1095934,0.0,-1.73999773,1.3830029929166696,"{56: 2, 30: 1, 79: 1}","[30, 56, 79]",301562791,Ba2Zn1Au1
Ba2ZnHg,mp-1183301,0.0,2.46527718,0.0036882933333337586,"{56: 2, 30: 1, 80: 1}","[30, 56, 80]",301562801,Ba2Zn1Hg1
Ba2TlZn,mp-984724,0.0,3.07696069,0.0,"{56: 2, 81: 1, 30: 1}","[30, 56, 81]",301562811,Ba2Tl1Zn1
Ba2ZnPb,mp-1093602,0.1117999999999999,-2.02005646,1.5851091962499986,"{56: 2, 30: 1, 82: 1}","[30, 56, 82]",301562821,Ba2Zn1Pb1
Ba2ZnBi2,mp-1079130,0.0823999999999998,3.0773238,0.0,"{56: 2, 30: 1, 83: 2}","[30, 56, 83]",301562832,Ba2Zn1Bi2
Ba3ZnHg10,mp-1228314,0.0,2.63918845,0.018773877390112048,"{56: 3, 30: 1, 80: 10}","[30, 56, 80]",3015638010,Ba3Zn1Hg10
Ba(ZnGe)2,mp-1206924,0.0,4.06677455,0.0,"{56: 1, 30: 2, 32: 2}","[30, 32, 56]",302322561,Ba1Zn2Ge2
Ba(ZnAs)2,mp-7427,0.2974000000000001,3.50575622,0.0,"{56: 1, 30: 2, 33: 2}","[30, 33, 56]",302332561,Ba1Zn2As2
Ba3(ZnAs2)2,mp-1079622,0.0,2.89000224,0.0,"{56: 3, 30: 2, 33: 4}","[30, 33, 56]",302334563,Ba3Zn2As4
Ba(ZnSn)2,mp-13920,0.0,4.82218623,0.0,"{56: 1, 30: 2, 50: 2}","[30, 50, 56]",302502561,Ba1Zn2Sn2
Ba(ZnSb)2,mp-14207,0.0,4.3664275,0.0,"{56: 1, 30: 2, 51: 2}","[30, 51, 56]",302512561,Ba1Zn2Sb2
BaZn2,mp-30435,0.0,2.41506663,0.0,"{56: 1, 30: 2}","[30, 56]",302561,Ba1Zn2
BaZn5,mp-303,0.0,2.5762968,0.0,"{56: 1, 30: 5}","[30, 56]",305561,Ba1Zn5
Ba20Zn5Hg99,mp-1196499,0.06080000000000041,2.49274997,0.01099860090570648,"{56: 20, 30: 5, 80: 99}","[30, 56, 80]",30556208099,Ba20Zn5Hg99
Ba16Zn9Ge80Pd3,mp-1229324,0.0,3.56138305,0.0,"{56: 16, 30: 9, 32: 80, 46: 3}","[30, 32, 46, 56]",30932804635616,Ba16Zn9Ge80Pd3
Ba2NaLi,mp-1095990,0.11020000000000008,-1.90365532,1.1350441637500004,"{56: 2, 11: 1, 3: 1}","[3, 11, 56]",31111562,Ba2Na1Li1
BaLiMg14,mp-1026840,0.0,2.76019292,0.12152751765625003,"{56: 1, 3: 1, 12: 14}","[3, 12, 56]",311214561,Ba1Li1Mg14
Ba2LiMg,mp-1096727,0.0,-1.93198618,1.3741986737499998,"{56: 2, 3: 1, 12: 1}","[3, 12, 56]",31121562,Ba2Li1Mg1
BaLiMg6,mp-1021357,0.0,2.32198436,0.15209134879464092,"{56: 1, 3: 1, 12: 6}","[3, 12, 56]",31126561,Ba1Li1Mg6
BaGaGe,mp-1102026,0.0,3.22526058,0.0,"{56: 1, 31: 1, 32: 1}","[31, 32, 56]",311321561,Ba1Ga1Ge1
Ba2GaAsSe5,mp-1195309,1.8702999999999999,3.45754671,0.0,"{56: 2, 31: 1, 33: 1, 34: 5}","[31, 33, 34, 56]",311331345562,Ba2Ga1As1Se5
Ba3GaAs3,mp-1195592,0.6858,3.02098174,0.0,"{56: 3, 31: 1, 33: 3}","[31, 33, 56]",311333563,Ba3Ga1As3
Ba2GaSe4,mp-1195574,1.0042,2.69662867,0.0001800394642863523,"{56: 2, 31: 1, 34: 4}","[31, 34, 56]",311344562,Ba2Ga1Se4
Ba2YGaSe5,mp-1106265,1.6616,1.97355638,0.0019664204166671695,"{56: 2, 39: 1, 31: 1, 34: 5}","[31, 34, 39, 56]",311345391562,Ba2Y1Ga1Se5
Ba2GaSbSe5,mp-1203387,1.8066999999999998,2.09590984,0.0,"{56: 2, 31: 1, 51: 1, 34: 5}","[31, 34, 51, 56]",311345511562,Ba2Ga1Sb1Se5
Ba2NdGaSe5,mp-1205363,1.6574000000000002,1.87842689,0.0,"{56: 2, 60: 1, 31: 1, 34: 5}","[31, 34, 56, 60]",311345562601,Ba2Nd1Ga1Se5
Ba2SmGaSe5,mp-1189376,1.7080000000000002,1.93707802,0.0,"{56: 2, 62: 1, 31: 1, 34: 5}","[31, 34, 56, 62]",311345562621,Ba2Sm1Ga1Se5
Ba2GdGaSe5,mp-1190156,1.3594000000000002,1.98533891,1.3269444442798317e-05,"{56: 2, 64: 1, 31: 1, 34: 5}","[31, 34, 56, 64]",311345562641,Ba2Gd1Ga1Se5
Ba2DyGaSe5,mp-1105698,1.6672,2.02030881,0.0018864505555562516,"{56: 2, 66: 1, 31: 1, 34: 5}","[31, 34, 56, 66]",311345562661,Ba2Dy1Ga1Se5
Ba2ErGaSe5,mp-1105790,1.6730999999999998,1.97358548,0.0036194940277782806,"{56: 2, 68: 1, 31: 1, 34: 5}","[31, 34, 56, 68]",311345562681,Ba2Er1Ga1Se5
Ba2GaBiSe5,mp-1203584,1.7506,1.89376407,0.0,"{56: 2, 31: 1, 83: 1, 34: 5}","[31, 34, 56, 83]",311345562831,Ba2Ga1Bi1Se5
Ba2YGaTe5,mp-1189739,0.42220000000000013,3.35020654,0.016023128750001447,"{56: 2, 39: 1, 31: 1, 52: 5}","[31, 39, 52, 56]",311391525562,Ba2Y1Ga1Te5
BaLiSi,mp-9950,0.0,2.50223993,0.14156482392857228,"{56: 1, 3: 1, 14: 1}","[3, 14, 56]",31141561,Ba1Li1Si1
Ba2LiSi3,mp-15521,0.09229999999999983,3.65934514,0.0,"{56: 2, 3: 1, 14: 3}","[3, 14, 56]",31143562,Ba2Li1Si3
Ba2CdGa,mp-1096555,0.0,-1.89572416,1.467729504471154,"{56: 2, 48: 1, 31: 1}","[31, 48, 56]",311481562,Ba2Cd1Ga1
BaCd3Ga,mp-1227962,0.0,2.05629728,0.0010694490000009438,"{56: 1, 48: 3, 31: 1}","[31, 48, 56]",311483561,Ba1Cd3Ga1
BaInGa,mp-1228055,0.0,4.26072299,0.01888275666666628,"{56: 1, 49: 1, 31: 1}","[31, 49, 56]",311491561,Ba1In1Ga1
BaGaSn,mp-1228005,0.0,3.72926671,0.05944599854166954,"{56: 1, 31: 1, 50: 1}","[31, 50, 56]",311501561,Ba1Ga1Sn1
Ba4GaSn3,mp-1228036,0.0,3.40773348,0.01922657968750041,"{56: 4, 31: 1, 50: 3}","[31, 50, 56]",311503564,Ba4Ga1Sn3
Ba2GaSbTe5,mp-1200935,0.9727999999999999,3.47332065,0.0011941655555567365,"{56: 2, 31: 1, 51: 1, 52: 5}","[31, 51, 52, 56]",311511525562,Ba2Ga1Sb1Te5
Ba3GaSb3,mp-28296,0.34189999999999987,3.14439002,0.0,"{56: 3, 31: 1, 51: 3}","[31, 51, 56]",311513563,Ba3Ga1Sb3
BaLiP,mp-13277,0.9631000000000003,2.47323895,0.0,"{56: 1, 3: 1, 15: 1}","[3, 15, 56]",31151561,Ba1Li1P1
Ba2SmGaTe5,mp-1189729,1.0131999999999999,3.47840677,0.010538432083332161,"{56: 2, 62: 1, 31: 1, 52: 5}","[31, 52, 56, 62]",311525562621,Ba2Sm1Ga1Te5
Ba2GdGaTe5,mp-1105573,0.7637,3.45688133,0.011212631388890948,"{56: 2, 64: 1, 31: 1, 52: 5}","[31, 52, 56, 64]",311525562641,Ba2Gd1Ga1Te5
Ba2DyGaTe5,mp-1105922,0.41179999999999994,3.34145968,0.016173870972219895,"{56: 2, 66: 1, 31: 1, 52: 5}","[31, 52, 56, 66]",311525562661,Ba2Dy1Ga1Te5
Ba2ErGaTe5,mp-1105724,0.41890000000000027,3.25354279,0.017760509305556837,"{56: 2, 68: 1, 31: 1, 52: 5}","[31, 52, 56, 68]",311525562681,Ba2Er1Ga1Te5