formula,material_id,band_gap,efermi,energy_above_hull,comp_atoms,sorted_keys_comp_atoms,comp_number,new_formula
Ba2Mn(BO2)6,mp-18990,3.9788000000000006,1.82372392,0.0,"{56: 2, 25: 1, 5: 6, 8: 12}","[5, 8, 25, 56]",56812251562,Ba2Mn1B6O12
Ba2Co(BO2)6,mp-18735,0.0,3.03798915,0.06060043519840086,"{56: 2, 27: 1, 5: 6, 8: 12}","[5, 8, 27, 56]",56812271562,Ba2Co1B6O12
Ba2Zn(BO2)6,mp-558680,4.2768999999999995,4.7717128,0.0058654419642500955,"{56: 2, 30: 1, 5: 6, 8: 12}","[5, 8, 30, 56]",56812301562,Ba2Zn1B6O12
BaY6Si3B6(O12F)2,mp-554918,5.2315000000000005,2.3060135,0.008291939880958665,"{56: 1, 39: 6, 14: 3, 5: 6, 8: 24, 9: 2}","[5, 8, 9, 14, 39, 56]",5682492143396561,Ba1Y6Si3B6O24F2
Ba3NaSi2B7O20,mp-1205119,0.41290000000000004,1.7658892,0.11600081045456001,"{56: 3, 11: 1, 14: 2, 5: 7, 8: 20}","[5, 8, 11, 14, 56]",57820111142563,Ba3Na1Si2B7O20
Ba4NaAl2B8(BrO6)3,mp-1197875,3.9082999999999997,1.95243876,0.0,"{56: 4, 11: 1, 13: 2, 5: 8, 35: 3, 8: 18}","[5, 8, 11, 13, 35, 56]",58818111132353564,Ba4Na1Al2B8Br3O18
BaNa(B3O5)3,mp-17864,5.5009999999999994,-0.57260115,0.0,"{56: 1, 11: 1, 5: 9, 8: 15}","[5, 8, 11, 56]",59815111561,Ba1Na1B9O15
Ba3Sc(BO2)9,mp-557994,5.2789,0.75645211,0.006512873024197674,"{56: 3, 21: 1, 5: 9, 8: 18}","[5, 8, 21, 56]",59818211563,Ba3Sc1B9O18
Ba3Y(BO2)9,mp-559066,5.1876999999999995,0.57522941,0.0078351536962451,"{56: 3, 39: 1, 5: 9, 8: 18}","[5, 8, 39, 56]",59818391563,Ba3Y1B9O18
Ba3In(BO2)9,mp-556038,4.7243,0.98244937,0.008324900524184997,"{56: 3, 49: 1, 5: 9, 8: 18}","[5, 8, 49, 56]",59818491563,Ba3In1B9O18
Ba3Pr(BO2)9,mp-1214611,5.0748,5.39911607,0.01149332237904055,"{56: 3, 59: 1, 5: 9, 8: 18}","[5, 8, 56, 59]",59818563591,Ba3Pr1B9O18
Ba3Nd(BO2)9,mp-1214606,5.1019000000000005,5.43188638,0.011135229717748274,"{56: 3, 60: 1, 5: 9, 8: 18}","[5, 8, 56, 60]",59818563601,Ba3Nd1B9O18
Ba3Sm(BO2)9,mp-1214584,5.0836,5.42683789,0.00909740173387874,"{56: 3, 62: 1, 5: 9, 8: 18}","[5, 8, 56, 62]",59818563621,Ba3Sm1B9O18
Ba3Eu(BO2)9,mp-1214649,0.0,0.95876801,0.029114988528228025,"{56: 3, 63: 1, 5: 9, 8: 18}","[5, 8, 56, 63]",59818563631,Ba3Eu1B9O18
Ba3Gd(BO2)9,mp-1214653,3.6864000000000003,4.12124569,0.009811149771511651,"{56: 3, 64: 1, 5: 9, 8: 18}","[5, 8, 56, 64]",59818563641,Ba3Gd1B9O18
Ba3Tb(BO2)9,mp-1214548,5.1617999999999995,5.5947389,0.0,"{56: 3, 65: 1, 5: 9, 8: 18}","[5, 8, 56, 65]",59818563651,Ba3Tb1B9O18
Ba3Dy(BO2)9,mp-1214634,5.1786,5.62241238,0.004439662217748719,"{56: 3, 66: 1, 5: 9, 8: 18}","[5, 8, 56, 66]",59818563661,Ba3Dy1B9O18
Ba3Ho(BO2)9,mp-1214639,5.1913,5.62528034,0.008291901169362959,"{56: 3, 67: 1, 5: 9, 8: 18}","[5, 8, 56, 67]",59818563671,Ba3Ho1B9O18
Ba3Er(BO2)9,mp-1214718,5.217700000000001,5.6540962,0.007850114072587289,"{56: 3, 68: 1, 5: 9, 8: 18}","[5, 8, 56, 68]",59818563681,Ba3Er1B9O18
Ba3Lu(BO2)9,mp-561253,5.247299999999999,0.54816874,0.0036953421370942152,"{56: 3, 71: 1, 5: 9, 8: 18}","[5, 8, 56, 71]",59818563711,Ba3Lu1B9O18
Ba3Bi(BO2)9,mp-1200141,4.286300000000001,5.62697115,0.009992137177398774,"{56: 3, 83: 1, 5: 9, 8: 18}","[5, 8, 56, 83]",59818563831,Ba3Bi1B9O18
KBa2Zn3B9O19,mp-1223606,3.6287000000000003,4.65085096,0.007249001139695288,"{19: 1, 56: 2, 30: 3, 5: 9, 8: 19}","[5, 8, 19, 30, 56]",59819191303562,K1Ba2Zn3B9O19
BaC10,mp-18027,0.18229999999999968,5.69668589,0.22433702015151624,"{56: 1, 6: 10}","[6, 56]",610561,Ba1C10
BaMg14C,mp-1026576,0.0,3.21311351,0.30610427158854003,"{56: 1, 12: 14, 6: 1}","[6, 12, 56]",611214561,Ba1Mg14C1
BaMg6C,mp-1016658,0.0,2.96303787,0.3451171623139899,"{56: 1, 12: 6, 6: 1}","[6, 12, 56]",61126561,Ba1Mg6C1
BaSiC,mp-1191774,0.968,3.6339811,0.44425418259461047,"{56: 1, 14: 1, 6: 1}","[6, 14, 56]",61141561,Ba1Si1C1
Ba2Cu(C2O3)6,mp-1203729,0.0,-0.10957891,0.9810987581818118,"{56: 2, 29: 1, 6: 12, 8: 18}","[6, 8, 29, 56]",612818291562,Ba2Cu1C12O18
Ba6Ca6Mg(CO3)13,mp-1228574,4.5923,1.39609882,0.011221654307694173,"{56: 6, 20: 6, 12: 1, 6: 13, 8: 39}","[6, 8, 12, 20, 56]",613839121206566,Ba6Ca6Mg1C13O39
BaC,mp-997616,0.0,2.20239951,1.4421610008333339,"{56: 1, 6: 1}","[6, 56]",61561,Ba1C1
Ba9Nb2CN10O,mp-560022,1.7837999999999998,2.49751935,0.0,"{56: 9, 41: 2, 6: 1, 7: 10, 8: 1}","[6, 7, 8, 41, 56]",6171081412569,Ba9Nb2C1N10O1
BaCSNCl,mp-556856,4.1666,0.51484578,0.013462340500001169,"{56: 1, 6: 1, 16: 1, 7: 1, 17: 1}","[6, 7, 16, 17, 56]",6171161171561,Ba1C1S1N1Cl1
Ba6Si6CN14,mp-1214762,0.0,3.73573006,0.03783600536650766,"{56: 6, 14: 6, 6: 1, 7: 14}","[6, 7, 14, 56]",61714146566,Ba6Si6C1N14
BaCN2,mp-1029375,2.8508,0.63403185,0.0,"{56: 1, 6: 1, 7: 2}","[6, 7, 56]",6172561,Ba1C1N2
Ba2CuC(NO)2,mp-1021669,0.0,2.34049439,0.13250000257812466,"{56: 2, 29: 1, 6: 1, 7: 2, 8: 2}","[6, 7, 8, 29, 56]",617282291562,Ba2Cu1C1N2O2
Ba3CN3,mp-1245933,0.0,3.67938523,0.15655246642857357,"{56: 3, 6: 1, 7: 3}","[6, 7, 56]",6173563,Ba3C1N3
Ba4CN4,mp-1247171,1.3090000000000002,3.79685182,0.019973733148148654,"{56: 4, 6: 1, 7: 4}","[6, 7, 56]",6174564,Ba4C1N4
Ba7CN6,mp-1247355,0.21300000000000008,3.61045861,0.36508803851190486,"{56: 7, 6: 1, 7: 6}","[6, 7, 56]",6176567,Ba7C1N6
BaNa2Nd2Si4CO15,mp-559586,4.8248,1.69750114,0.0,"{56: 1, 11: 2, 60: 2, 14: 4, 6: 1, 8: 15}","[6, 8, 11, 14, 56, 60]",61815112144561602,Ba1Na2Nd2Si4C1O15
BaMg14CO16,mp-1033873,0.0,5.84277863,0.4329333421484378,"{56: 1, 12: 14, 6: 1, 8: 16}","[6, 8, 12, 56]",618161214561,Ba1Mg14C1O16
Ba4Ca8Cu11CO20,mp-1228570,0.0,3.91016289,0.3523979732954521,"{56: 4, 20: 8, 29: 11, 6: 1, 8: 20}","[6, 8, 20, 29, 56]",618202082911564,Ba4Ca8Cu11C1O20
Ba10Re6CO30,mp-1228940,0.0,3.22595045,0.11280388053190915,"{56: 10, 75: 6, 6: 1, 8: 30}","[6, 8, 56, 75]",618305610756,Ba10Re6C1O30
Ba3CCl4O3,mp-1201184,4.6687,5.36172877,0.013415570454553105,"{56: 3, 6: 1, 17: 4, 8: 3}","[6, 8, 17, 56]",6183174563,Ba3C1Cl4O3
BaCaCO3,mp-696695,0.0,2.36794923,0.5857865789583343,"{56: 1, 20: 1, 6: 1, 8: 3}","[6, 8, 20, 56]",6183201561,Ba1Ca1C1O3
BaMg30CO32,mp-1038610,1.8598,5.30096453,0.2052127302929696,"{56: 1, 12: 30, 6: 1, 8: 32}","[6, 8, 12, 56]",618321230561,Ba1Mg30C1O32
BaCO3,mp-5504,4.397399999999999,0.68234594,0.0,"{56: 1, 6: 1, 8: 3}","[6, 8, 56]",6183561,Ba1C1O3
BaMnCO3F2,mp-19054,4.0653999999999995,1.62187422,0.02469945749999347,"{56: 1, 25: 1, 6: 1, 8: 3, 9: 2}","[6, 8, 9, 25, 56]",618392251561,Ba1Mn1C1O3F2
BaCuCO3F2,mp-556030,0.4303000000000001,2.00322217,0.00993544812500069,"{56: 1, 29: 1, 6: 1, 8: 3, 9: 2}","[6, 8, 9, 29, 56]",618392291561,Ba1Cu1C1O3F2
BaZnCO3F2,mp-11166,4.7744,0.40278733,0.0,"{56: 1, 30: 1, 6: 1, 8: 3, 9: 2}","[6, 8, 9, 30, 56]",618392301561,Ba1Zn1C1O3F2
Ba3ScCO3F7,mp-560519,4.549,0.02050761,0.0,"{56: 3, 21: 1, 6: 1, 8: 3, 9: 7}","[6, 8, 9, 21, 56]",618397211563,Ba3Sc1C1O3F7
BaCO4,mp-1214434,0.0,0.74508594,0.28791066041666546,"{56: 1, 6: 1, 8: 4}","[6, 8, 56]",6184561,Ba1C1O4
BaNa3PCO7,mp-771331,3.7744999999999997,0.83790251,0.03069640423076958,"{56: 1, 11: 3, 15: 1, 6: 1, 8: 7}","[6, 8, 11, 15, 56]",6187113151561,Ba1Na3P1C1O7
K3BaPCO7,mp-756876,3.9055999999999997,0.15405792,0.02623837211538227,"{19: 3, 56: 1, 15: 1, 6: 1, 8: 7}","[6, 8, 15, 19, 56]",6187151193561,K3Ba1P1C1O7
BaMg6CO8,mp-1033432,0.0,4.14157842,0.8623078742968753,"{56: 1, 12: 6, 6: 1, 8: 8}","[6, 8, 12, 56]",6188126561,Ba1Mg6C1O8
Ba4CaCu2CO9,mp-1228203,0.1347999999999998,2.86796492,0.005940852941160202,"{56: 4, 20: 1, 29: 2, 6: 1, 8: 9}","[6, 8, 20, 29, 56]",6189201292564,Ba4Ca1Cu2C1O9
KBaC20,mp-1223585,0.0,4.92975526,0.23905417659092265,"{19: 1, 56: 1, 6: 20}","[6, 19, 56]",620191561,K1Ba1C20
BaC20,mp-28979,0.14360000000000017,3.65825153,0.26113755071428635,"{56: 1, 6: 20}","[6, 56]",620561,Ba1C20
Ba3(Ge2C)2,mp-675489,0.4882000000000002,1.6800795,0.3276769958333299,"{56: 3, 32: 4, 6: 2}","[6, 32, 56]",62324563,Ba3Ge4C2
BaC2,mp-10293,2.1291,0.12749713,0.1468354744444449,"{56: 1, 6: 2}","[6, 56]",62561,Ba1C2
Ba11(CN5)2,mp-1246400,0.37460000000000004,2.80965172,0.044159877173913564,"{56: 11, 6: 2, 7: 10}","[6, 7, 56]",627105611,Ba11C2N10
BaC2(SN)2,mp-10928,3.9015,0.01911985,0.023999595714284006,"{56: 1, 6: 2, 16: 2, 7: 2}","[6, 7, 16, 56]",6272162561,Ba1C2S2N2
BaC2S2(NO)2,mp-733972,0.49849999999999994,0.38565284,0.7577682333082212,"{56: 1, 6: 2, 16: 2, 7: 2, 8: 2}","[6, 7, 8, 16, 56]",627282162561,Ba1C2S2N2O2
BaC2(NO)2,mp-1195678,4.5717,0.46973528,0.0,"{56: 1, 6: 2, 7: 2, 8: 2}","[6, 7, 8, 56]",627282561,Ba1C2N2O2
Ba5(CN3)2,mp-1246905,0.7318000000000002,3.44409794,0.18784575025641015,"{56: 5, 6: 2, 7: 6}","[6, 7, 56]",6276565,Ba5C2N6
BaC2(N3O2)2,mp-726154,0.0,0.60375994,0.2788573812393178,"{56: 1, 6: 2, 7: 6, 8: 4}","[6, 7, 8, 56]",627684561,Ba1C2N6O4
Ba4NaMgCu(CO5)2,mp-2232061,0.44330000000000025,3.83954883,0.24736657105262605,"{56: 4, 11: 1, 12: 1, 29: 1, 6: 2, 8: 10}","[6, 8, 11, 12, 29, 56]",62810111121291564,Ba4Na1Mg1Cu1C2O10
Ba4NaCu(CO5)2,mp-6841,1.0292,2.1870289,0.0,"{56: 4, 11: 1, 29: 1, 6: 2, 8: 10}","[6, 8, 11, 29, 56]",62810111291564,Ba4Na1Cu1C2O10
BaAl2C2O11,mp-1195111,0.0,-0.39993119,0.48760514849431935,"{56: 1, 13: 2, 6: 2, 8: 11}","[6, 8, 13, 56]",62811132561,Ba1Al2C2O11
Ba2Au(CO)2,mp-1232309,0.0,2.51523651,0.7746181954464264,"{56: 2, 79: 1, 6: 2, 8: 2}","[6, 8, 56, 79]",6282562791,Ba2Au1C2O2
Ba6Fe3Si8C2(ClO10)3,mp-1214735,0.0,2.09355403,0.12364151153846681,"{56: 6, 26: 3, 14: 8, 6: 2, 17: 3, 8: 30}","[6, 8, 14, 17, 26, 56]",62830148173263566,Ba6Fe3Si8C2Cl3O30
BaMg(CO2)2,mp-1080511,1.2620999999999998,2.92404693,0.5062841459375003,"{56: 1, 12: 1, 6: 2, 8: 4}","[6, 8, 12, 56]",6284121561,Ba1Mg1C2O4
Ba(CO2)2,mp-1194021,3.2678,0.21080841,0.07962491124999627,"{56: 1, 6: 2, 8: 4}","[6, 8, 56]",6284561,Ba1C2O4
BaC2O5,mp-1214493,0.0,-0.34318801,0.6132169737499931,"{56: 1, 6: 2, 8: 5}","[6, 8, 56]",6285561,Ba1C2O5
BaMg(CO3)2,mp-1205395,4.2267,1.66114531,0.003504170000001139,"{56: 1, 12: 1, 6: 2, 8: 6}","[6, 8, 12, 56]",6286121561,Ba1Mg1C2O6
BaCa(CO3)2,mp-6568,4.703,1.34352016,0.006067084000001444,"{56: 1, 20: 1, 6: 2, 8: 6}","[6, 8, 20, 56]",6286201561,Ba1Ca1C2O6
Ba(CO3)2,mp-1214990,0.8614999999999999,0.41971513,0.6399249619444483,"{56: 1, 6: 2, 8: 6}","[6, 8, 56]",6286561,Ba1C2O6
Ba6MgSc2C2(O3F7)2,mp-1234212,4.1158,1.10722704,0.12784178010079827,"{56: 6, 12: 1, 21: 2, 6: 2, 8: 6, 9: 14}","[6, 8, 9, 12, 21, 56]",6286914121212566,Ba6Mg1Sc2C2O6F14
BaCeC2O6F,mp-541482,0.19779999999999998,5.34655483,0.0022534062121142284,"{56: 1, 58: 1, 6: 2, 8: 6, 9: 1}","[6, 8, 9, 56, 58]",628691561581,Ba1Ce1C2O6F1
BaSmC2O6F,mp-15073,4.295999999999999,1.84001379,0.0,"{56: 1, 62: 1, 6: 2, 8: 6, 9: 1}","[6, 8, 9, 56, 62]",628691561621,Ba1Sm1C2O6F1
BaCa2C2(O3F)2,mp-560303,4.7463999999999995,0.91780499,0.006078377692315229,"{56: 1, 20: 2, 6: 2, 8: 6, 9: 2}","[6, 8, 9, 20, 56]",628692202561,Ba1Ca2C2O6F2
Ba2CoC2(O3F)2,mp-562662,3.066,1.40245901,0.00799610230769332,"{56: 2, 27: 1, 6: 2, 8: 6, 9: 2}","[6, 8, 9, 27, 56]",628692271562,Ba2Co1C2O6F2
BaPb2C2(O3F)2,mp-560874,4.0572,2.07299185,0.003956138076923743,"{56: 1, 82: 2, 6: 2, 8: 6, 9: 2}","[6, 8, 9, 56, 82]",628692561822,Ba1Pb2C2O6F2
Ba2YC2(O2F)3,mp-8985,5.263999999999999,0.72030391,0.0,"{56: 2, 39: 1, 6: 2, 8: 6, 9: 3}","[6, 8, 9, 39, 56]",628693391562,Ba2Y1C2O6F3
Ba2GdC2(O2F)3,mp-8986,3.0692,0.77374221,0.0,"{56: 2, 64: 1, 6: 2, 8: 6, 9: 3}","[6, 8, 9, 56, 64]",628693562641,Ba2Gd1C2O6F3
BaC2S2(OF)6,mp-638469,6.1552999999999995,-0.99808801,0.17172671279411933,"{56: 1, 6: 2, 16: 2, 8: 6, 9: 6}","[6, 8, 9, 16, 56]",628696162561,Ba1C2S2O6F6
Ba3Co(CN)3,mp-861914,0.7976999999999999,3.0709038,0.0,"{56: 3, 27: 1, 6: 3, 7: 3}","[6, 7, 27, 56]",6373271563,Ba3Co1C3N3
Ba3Rh(CN)3,mp-1105268,0.6265999999999998,3.2469344,0.0,"{56: 3, 45: 1, 6: 3, 7: 3}","[6, 7, 45, 56]",6373451563,Ba3Rh1C3N3
Ba3Ir(CN)3,mp-1106080,0.6643000000000003,3.26985071,0.0,"{56: 3, 77: 1, 6: 3, 7: 3}","[6, 7, 56, 77]",6373563771,Ba3Ir1C3N3
BaRe2C3N6O11,mp-1215113,0.6291,-1.49533499,0.6036245719444446,"{56: 1, 75: 2, 6: 3, 7: 6, 8: 11}","[6, 7, 8, 56, 75]",6376811561752,Ba1Re2C3N6O11
Ba10Ge3C3O26,mp-1229247,0.0,0.44342851,0.16270419776785872,"{56: 10, 32: 3, 6: 3, 8: 26}","[6, 8, 32, 56]",638263235610,Ba10Ge3C3O26
Cs2Ba2(CO3)3,mp-558539,4.3381,0.77750475,0.0,"{55: 2, 56: 2, 6: 3, 8: 9}","[6, 8, 55, 56]",6389552562,Cs2Ba2C3O9
Ba2LaC3O9F,mp-18111,3.9314,2.06882873,0.0,"{56: 2, 57: 1, 6: 3, 8: 9, 9: 1}","[6, 8, 9, 56, 57]",638991562571,Ba2La1C3O9F1
Ba2CeC3O9F,mp-6850,0.0766,4.69284296,0.0,"{56: 2, 58: 1, 6: 3, 8: 9, 9: 1}","[6, 8, 9, 56, 58]",638991562581,Ba2Ce1C3O9F1
Cs3Ba4C3O9F5,mp-1181689,4.7611,5.1267233,0.004711984401041924,"{55: 3, 56: 4, 6: 3, 8: 9, 9: 5}","[6, 8, 9, 55, 56]",638995553564,Cs3Ba4C3O9F5
BaZnC4S4N4O7,mp-740871,0.0,-0.57103907,1.128061765508317,"{56: 1, 30: 1, 6: 4, 16: 4, 7: 4, 8: 7}","[6, 7, 8, 16, 30, 56]",647487164301561,Ba1Zn1C4S4N4O7
Ba(C2N3)2,mp-669448,1.0087,1.9059929,0.5641431734090885,"{56: 1, 6: 4, 7: 6}","[6, 7, 56]",6476561,Ba1C4N6
Ba3Na2(CN2)4,mp-571621,3.3120000000000003,1.68941714,0.0016220804411748446,"{56: 3, 11: 2, 6: 4, 7: 8}","[6, 7, 11, 56]",6478112563,Ba3Na2C4N8
Ba4MgC4(N4F)2,mp-1201360,3.7144000000000004,2.03312795,0.006833141842103707,"{56: 4, 12: 1, 6: 4, 7: 8, 9: 2}","[6, 7, 9, 12, 56]",647892121564,Ba4Mg1C4N8F2
Ba(C2O5)2,mp-1214983,0.5037,-0.73449591,0.3829091721666664,"{56: 1, 6: 4, 8: 10}","[6, 8, 56]",64810561,Ba1C4O10
BaNaCe2C4O12F,mp-542264,0.24960000000000004,5.16896816,0.0,"{56: 1, 11: 1, 58: 2, 6: 4, 8: 12, 9: 1}","[6, 8, 9, 11, 56, 58]",6481291111561582,Ba1Na1Ce2C4O12F1
BaCu(C2O7)2,mp-1182559,0.0,-0.1699,0.7003309713750001,"{56: 1, 29: 1, 6: 4, 8: 14}","[6, 8, 29, 56]",64814291561,Ba1Cu1C4O14
BaMo2C4O17,mp-1199746,2.8698,-1.3806907,0.6346263632118081,"{56: 1, 42: 2, 6: 4, 8: 17}","[6, 8, 42, 56]",64817422561,Ba1Mo2C4O17
KBa4Au(CO)4,mp-557602,2.6467,1.16356115,0.6019042302381008,"{19: 1, 56: 4, 79: 1, 6: 4, 8: 4}","[6, 8, 19, 56, 79]",6484191564791,K1Ba4Au1C4O4
Ba(CO)4,mp-30237,2.5827999999999998,1.51300179,0.28968840291666,"{56: 1, 6: 4, 8: 4}","[6, 8, 56]",6484561,Ba1C4O4
BaC4(O2F3)2,mp-1194836,4.7469,-1.87880419,0.17401129005555482,"{56: 1, 6: 4, 8: 4, 9: 6}","[6, 8, 9, 56]",648496561,Ba1C4O4F6
Ba2W(CO2)4,mp-1214683,0.0817000000000001,2.69299699,0.5169726763333431,"{56: 2, 74: 1, 6: 4, 8: 8}","[6, 8, 56, 74]",6488562741,Ba2W1C4O8
Ba2C4O9,mp-1215131,2.4048,2.73515365,0.11281101508332725,"{56: 2, 6: 4, 8: 9}","[6, 8, 56]",6489562,Ba2C4O9
Ba3Na3(CO3)5,mp-1214668,0.007099999999999995,0.55084542,0.0,"{56: 3, 11: 3, 6: 5, 8: 15}","[6, 8, 11, 56]",65815113563,Ba3Na3C5O15
Ba3La2C5O15F2,mp-581361,3.9044,2.41909019,0.0,"{56: 3, 57: 2, 6: 5, 8: 15, 9: 2}","[6, 8, 9, 56, 57]",6581592563572,Ba3La2C5O15F2
Ba3Ce2C5O15F2,mp-581090,0.31730000000000036,4.91909313,0.0003050427160271596,"{56: 3, 58: 2, 6: 5, 8: 15, 9: 2}","[6, 8, 9, 56, 58]",6581592563582,Ba3Ce2C5O15F2
BaC6,mp-1214417,0.0,5.58967106,0.0,"{56: 1, 6: 6}","[6, 56]",66561,Ba1C6
Ba2Cu(C3O8)2,mp-1182577,0.04059999999999997,-1.88371843,0.17026243040000733,"{56: 2, 29: 1, 6: 6, 8: 16}","[6, 8, 29, 56]",66816291562,Ba2Cu1C6O16
Ba3NaCaY(C2O7)3,mp-1202406,0.0001999999999999988,-0.02174373,0.441732468446971,"{56: 3, 11: 1, 20: 1, 39: 1, 6: 6, 8: 21}","[6, 8, 11, 20, 39, 56]",66821111201391563,Ba3Na1Ca1Y1C6O21
BaNa6Th(CO4)6,mp-1201530,0.2049,0.20690164,0.2530200876827404,"{56: 1, 11: 6, 90: 1, 6: 6, 8: 24}","[6, 8, 11, 56, 90]",66824116561901,Ba1Na6Th1C6O24
BaC7N10,mp-1245412,3.7132000000000005,6.99397166,0.3901999500000013,"{56: 1, 6: 7, 7: 10}","[6, 7, 56]",67710561,Ba1C7N10
Ba(C4N3)2,mp-1245468,3.5050999999999997,2.51314591,0.22944137961111188,"{56: 1, 6: 8, 7: 6}","[6, 7, 56]",6876561,Ba1C8N6
Rb2BaPt2(CN)8,mp-637582,1.7071,-0.54764605,0.06539658964285877,"{37: 2, 56: 1, 78: 2, 6: 8, 7: 8}","[6, 7, 37, 56, 78]",6878372561782,Rb2Ba1Pt2C8N8
Ba2ZrC8O19,mp-1204722,0.49,-1.35370203,0.536398691208329,"{56: 2, 40: 1, 6: 8, 8: 19}","[6, 8, 40, 56]",68819401562,Ba2Zr1C8O19
Ba11(SiN5)2,mp-1245390,0.0,2.61622138,0.3047331371739146,"{56: 11, 14: 2, 7: 10}","[7, 14, 56]",7101425611,Ba11Si2N10
BaSi7N10,mp-29703,3.9124,5.41846885,0.0,"{56: 1, 14: 7, 7: 10}","[7, 14, 56]",710147561,Ba1Si7N10
BaGe7N10,mp-1029679,2.1552000000000002,2.67727608,0.0,"{56: 1, 32: 7, 7: 10}","[7, 32, 56]",710327561,Ba1Ge7N10
BaNaN,mp-1245807,0.6228000000000002,2.85907731,0.2455260489846749,"{56: 1, 11: 1, 7: 1}","[7, 11, 56]",71111561,Ba1Na1N1
Ba3NaN,mp-8868,0.0,1.78234063,0.0,"{56: 3, 11: 1, 7: 1}","[7, 11, 56]",71111563,Ba3Na1N1
Ba6Na16N,mp-505213,0.0,1.04811362,0.019354707867316634,"{56: 6, 11: 16, 7: 1}","[7, 11, 56]",711116566,Ba6Na16N1
Ba24In19N11,mp-677705,0.0,3.27907086,0.14212102212963096,"{56: 24, 49: 19, 7: 11}","[7, 49, 56]",71149195624,Ba24In19N11
Ba3PN,mp-1013533,0.0,2.98726727,0.1394114273333349,"{56: 3, 15: 1, 7: 1}","[7, 15, 56]",71151563,Ba3P1N1
Ba2NCl,mp-1018099,1.1077,2.66562085,0.0,"{56: 2, 7: 1, 17: 1}","[7, 17, 56]",71171562,Ba2N1Cl1
Ba6Tl2NCl,mp-989542,0.0,2.92746626,0.020639006000002347,"{56: 6, 81: 2, 7: 1, 17: 1}","[7, 17, 56, 81]",71171566812,Ba6Tl2N1Cl1
Ba2Ho2Al3Si5N11O3,mp-684935,0.0,5.13031238,0.5521238182211592,"{56: 2, 67: 2, 13: 3, 14: 5, 7: 11, 8: 3}","[7, 8, 13, 14, 56, 67]",71183133145562672,Ba2Ho2Al3Si5N11O3
Ba2Tm2Al3Si5N11O3,mp-684728,0.0,4.64288449,1.553947581057698,"{56: 2, 69: 2, 13: 3, 14: 5, 7: 11, 8: 3}","[7, 8, 13, 14, 56, 69]",71183133145562692,Ba2Tm2Al3Si5N11O3
KBaN,mp-1247556,0.0,0.9818988,0.32905545036111095,"{19: 1, 56: 1, 7: 1}","[7, 19, 56]",71191561,K1Ba1N1
BaCa2(PN2)6,mp-6404,4.0725999999999996,5.18587446,0.0,"{56: 1, 20: 2, 15: 6, 7: 12}","[7, 15, 20, 56]",712156202561,Ba1Ca2P6N12
Ba9(NbN6)2,mp-541765,1.2610999999999999,2.75212892,0.05148595637681108,"{56: 9, 41: 2, 7: 12}","[7, 41, 56]",712412569,Ba9Nb2N12
Ba9(TaN6)2,mp-667314,1.2429000000000001,2.786594,0.048854712536231304,"{56: 9, 73: 2, 7: 12}","[7, 56, 73]",712569732,Ba9Ta2N12
Ba3Co2(NO2)12,mp-734925,2.1153,-0.72921615,0.1758963666376303,"{56: 3, 27: 2, 7: 12, 8: 24}","[7, 8, 27, 56]",712824272563,Ba3Co2N12O24
Ba3Ir2(NO2)12,mp-1229018,0.0,-0.09243721,1.3945657945121885,"{56: 3, 77: 2, 7: 12, 8: 24}","[7, 8, 56, 77]",712824563772,Ba3Ir2N12O24
BaCa3Si10(N2O)6,mp-1228049,3.2698,4.86745377,0.007876902474015068,"{56: 1, 20: 3, 14: 10, 7: 12, 8: 6}","[7, 8, 14, 20, 56]",712861410203561,Ba1Ca3Si10N12O6
BaCuN,mp-29199,0.0,3.53689879,0.0,"{56: 1, 29: 1, 7: 1}","[7, 29, 56]",71291561,Ba1Cu1N1
Ba2GaGeN,mp-570245,0.0,2.63521137,0.0,"{56: 2, 31: 1, 32: 1, 7: 1}","[7, 31, 32, 56]",71311321562,Ba2Ga1Ge1N1
Ba6Ga5N,mp-16859,0.0,2.70190941,0.0,"{56: 6, 31: 5, 7: 1}","[7, 31, 56]",71315566,Ba6Ga5N1
Ba3AsN,mp-1013734,0.0,2.87293755,0.08112790405128134,"{56: 3, 33: 1, 7: 1}","[7, 33, 56]",71331563,Ba3As1N1
Ba2BrN,mp-1018098,1.1377000000000002,2.41621929,0.0,"{56: 2, 35: 1, 7: 1}","[7, 35, 56]",71351562,Ba2Br1N1
Ba6In5N,mp-672306,0.0,3.65684459,0.0,"{56: 6, 49: 5, 7: 1}","[7, 49, 56]",71495566,Ba6In5N1
Ba3SbN,mp-12814,0.6988000000000003,3.23084157,0.0,"{56: 3, 51: 1, 7: 1}","[7, 51, 56]",71511563,Ba3Sb1N1
RbBa2N15,mp-605646,3.7794,0.38373146,0.0075478755555522525,"{37: 1, 56: 2, 7: 15}","[7, 37, 56]",715371562,Rb1Ba2N15
BaN,mp-1057758,0.0,2.46505356,0.5173562991666669,"{56: 1, 7: 1}","[7, 56]",71561,Ba1N1
Ba2N,mp-1892,0.0,2.41519529,0.0,"{56: 2, 7: 1}","[7, 56]",71562,Ba2N1
Ba3N,mp-10736,0.0,1.95063697,0.0,"{56: 3, 7: 1}","[7, 56]",71563,Ba3N1
Ba3BiN,mp-567666,0.6466000000000003,2.9483435,0.0,"{56: 3, 83: 1, 7: 1}","[7, 56, 83]",71563831,Ba3Bi1N1
Ba9Ca3(MoN4)4,mp-1228642,2.3264,4.66081621,0.008361151953125479,"{56: 9, 20: 3, 42: 4, 7: 16}","[7, 20, 42, 56]",716203424569,Ba9Ca3Mo4N16
BaP3NO10,mp-726673,0.24500000000000005,-0.51930271,0.4490849745000034,"{56: 1, 15: 3, 7: 1, 8: 10}","[7, 8, 15, 56]",71810153561,Ba1P3N1O10
BaP3NO11,mp-1202402,2.4885,1.45117973,0.028397038017577536,"{56: 1, 15: 3, 7: 1, 8: 11}","[7, 8, 15, 56]",71811153561,Ba1P3N1O11
Ba5Re3NO18,mp-555095,2.3,1.03586353,0.0,"{56: 5, 75: 3, 7: 1, 8: 18}","[7, 8, 56, 75]",71818565753,Ba5Re3N1O18
Ba5Os3NO18,mp-628618,0.6044999999999998,3.03509581,0.0,"{56: 5, 76: 3, 7: 1, 8: 18}","[7, 8, 56, 76]",71818565763,Ba5Os3N1O18
BaNbNO2,mp-1227828,0.0,3.8378222,0.05673557562498921,"{56: 1, 41: 1, 7: 1, 8: 2}","[7, 8, 41, 56]",7182411561,Ba1Nb1N1O2