formula,material_id,band_gap,efermi,energy_above_hull,comp_atoms,sorted_keys_comp_atoms,comp_number,new_formula
Ba3Fe2WO9,mp-1228376,1.5158999999999998,4.29223783,0.0,"{56: 3, 26: 2, 74: 1, 8: 9}","[8, 26, 56, 74]",89262563741,Ba3Fe2W1O9
Ba3UFe2O9,mp-1228523,1.0145000000000004,3.56865649,0.0,"{56: 3, 92: 1, 26: 2, 8: 9}","[8, 26, 56, 92]",89262563921,Ba3U1Fe2O9
Ba2La(FeO3)3,mp-1228521,0.0,3.96364475,0.008935322222230369,"{56: 2, 57: 1, 26: 3, 8: 9}","[8, 26, 56, 57]",89263562571,Ba2La1Fe3O9
Ba3Nb2CoO9,mp-31514,0.0,3.64005662,0.0,"{56: 3, 41: 2, 27: 1, 8: 9}","[8, 27, 41, 56]",89271412563,Ba3Nb2Co1O9
Ba3CoRu2O9,mp-19058,0.0,3.72977824,0.08604807233332945,"{56: 3, 27: 1, 44: 2, 8: 9}","[8, 27, 44, 56]",89271442563,Ba3Co1Ru2O9
Ba3CoSb2O9,mp-19337,0.0,4.38266834,0.0,"{56: 3, 27: 1, 51: 2, 8: 9}","[8, 27, 51, 56]",89271512563,Ba3Co1Sb2O9
Ba3Ta2CoO9,mp-1214485,2.2293999999999996,2.6753925,0.0,"{56: 3, 73: 2, 27: 1, 8: 9}","[8, 27, 56, 73]",89271563732,Ba3Ta2Co1O9
Ba3CoIr2O9,mp-1214637,0.0,3.80381028,0.0,"{56: 3, 27: 1, 77: 2, 8: 9}","[8, 27, 56, 77]",89271563772,Ba3Co1Ir2O9
Ba3Co2WO9,mp-1228027,0.0,2.85421508,0.09285496766667123,"{56: 3, 27: 2, 74: 1, 8: 9}","[8, 27, 56, 74]",89272563741,Ba3Co2W1O9
BaLa2(CoO3)3,mp-1302177,0.0,5.28061006,0.0668342360000036,"{56: 1, 57: 2, 27: 3, 8: 9}","[8, 27, 56, 57]",89273561572,Ba1La2Co3O9
Ba2Y2Co4O9,mp-1228471,0.0,3.74488609,0.13191586220588114,"{56: 2, 39: 2, 27: 4, 8: 9}","[8, 27, 39, 56]",89274392562,Ba2Y2Co4O9
Ba3CuRu2O9,mp-22472,0.0,3.66297259,0.0,"{56: 3, 29: 1, 44: 2, 8: 9}","[8, 29, 44, 56]",89291442563,Ba3Cu1Ru2O9
Ba3CuSb2O9,mp-17145,0.0,4.50029936,0.02679721533330781,"{56: 3, 29: 1, 51: 2, 8: 9}","[8, 29, 51, 56]",89291512563,Ba3Cu1Sb2O9
Ba2La2TlCu2O9,mp-1214673,0.0,4.63795053,0.030758971206585883,"{56: 2, 57: 2, 81: 1, 29: 2, 8: 9}","[8, 29, 56, 57, 81]",89292562572811,Ba2La2Tl1Cu2O9
Ba4Nd2Cu2O9,mp-560766,0.0,3.4579262,0.010335295147053003,"{56: 4, 60: 2, 29: 2, 8: 9}","[8, 29, 56, 60]",89292564602,Ba4Nd2Cu2O9
Ba4Sm2Cu2O9,mp-636383,0.0,3.4290714,0.0126657303676323,"{56: 4, 62: 2, 29: 2, 8: 9}","[8, 29, 56, 62]",89292564622,Ba4Sm2Cu2O9
Ba4Y(CuO3)3,mp-643409,0.0,2.9646027,0.0,"{56: 4, 39: 1, 29: 3, 8: 9}","[8, 29, 39, 56]",89293391564,Ba4Y1Cu3O9
Ba4Cu3SnO9,mp-1147655,0.0,3.55384905,0.04886554117646735,"{56: 4, 29: 3, 50: 1, 8: 9}","[8, 29, 50, 56]",89293501564,Ba4Cu3Sn1O9
Ba4Ce(CuO3)3,mp-1096779,0.6774999999999998,3.44043656,0.01761377588235913,"{56: 4, 58: 1, 29: 3, 8: 9}","[8, 29, 56, 58]",89293564581,Ba4Ce1Cu3O9
Ba4Sm(CuO3)3,mp-1214478,0.0,2.62509033,0.0013092563602867813,"{56: 4, 62: 1, 29: 3, 8: 9}","[8, 29, 56, 62]",89293564621,Ba4Sm1Cu3O9
Ba4Gd(CuO3)3,mp-1214933,0.0,2.60508064,0.0,"{56: 4, 64: 1, 29: 3, 8: 9}","[8, 29, 56, 64]",89293564641,Ba4Gd1Cu3O9
Ba4Dy(CuO3)3,mp-1214524,0.0,2.62925017,0.0,"{56: 4, 66: 1, 29: 3, 8: 9}","[8, 29, 56, 66]",89293564661,Ba4Dy1Cu3O9
Ba4Ho(CuO3)3,mp-1214501,0.0,2.6700234,0.0,"{56: 4, 67: 1, 29: 3, 8: 9}","[8, 29, 56, 67]",89293564671,Ba4Ho1Cu3O9
Ba4Cu3PbO9,mp-1023127,0.0,3.44576177,0.03670060419728394,"{56: 4, 29: 3, 82: 1, 8: 9}","[8, 29, 56, 82]",89293564821,Ba4Cu3Pb1O9
Ba3Nb2ZnO9,mp-7249,2.7287,2.11558013,0.0,"{56: 3, 41: 2, 30: 1, 8: 9}","[8, 30, 41, 56]",89301412563,Ba3Nb2Zn1O9
Ba3ZnIrRuO9,mp-1228233,0.0,3.62083696,0.0,"{56: 3, 30: 1, 77: 1, 44: 1, 8: 9}","[8, 30, 44, 56, 77]",89301441563771,Ba3Zn1Ir1Ru1O9
Ba3ZnRu2O9,mp-17137,0.0,3.44798625,0.0,"{56: 3, 30: 1, 44: 2, 8: 9}","[8, 30, 44, 56]",89301442563,Ba3Zn1Ru2O9
Ba3ZnSb2O9,mp-1214487,1.9684999999999997,5.05394167,0.0,"{56: 3, 30: 1, 51: 2, 8: 9}","[8, 30, 51, 56]",89301512563,Ba3Zn1Sb2O9
Ba3Ta2ZnO9,mp-1214475,3.3487999999999998,2.2106626,0.0,"{56: 3, 73: 2, 30: 1, 8: 9}","[8, 30, 56, 73]",89301563732,Ba3Ta2Zn1O9
Ba3ZnIr2O9,mp-542939,0.0,3.66391499,0.0,"{56: 3, 30: 1, 77: 2, 8: 9}","[8, 30, 56, 77]",89301563772,Ba3Zn1Ir2O9
Ba3Ga4O9,mp-771132,2.9232,0.58427416,0.0,"{56: 3, 31: 4, 8: 9}","[8, 31, 56]",89314563,Ba3Ga4O9
BaSn(GeO3)3,mp-540635,2.7866000000000004,1.37985654,0.0,"{56: 1, 50: 1, 32: 3, 8: 9}","[8, 32, 50, 56]",89323501561,Ba1Sn1Ge3O9
BaGe4O9,mp-3848,3.0551,0.93513528,0.0,"{56: 1, 32: 4, 8: 9}","[8, 32, 56]",89324561,Ba1Ge4O9
BaAs2O9,mp-1195437,0.0,-0.93489089,0.7369044102083322,"{56: 1, 33: 2, 8: 9}","[8, 33, 56]",89332561,Ba1As2O9
Ba5Ru2Br2O9,mp-558725,0.4718,2.04613925,0.0,"{56: 5, 44: 2, 35: 2, 8: 9}","[8, 35, 44, 56]",89352442565,Ba5Ru2Br2O9
Ba3YIrRuO9,mp-1228020,0.0,3.68628769,0.0,"{56: 3, 39: 1, 77: 1, 44: 1, 8: 9}","[8, 39, 44, 56, 77]",89391441563771,Ba3Y1Ir1Ru1O9
Ba3YRuPtO9,mp-1228242,0.21550000000000002,3.40845415,0.0,"{56: 3, 39: 1, 44: 1, 78: 1, 8: 9}","[8, 39, 44, 56, 78]",89391441563781,Ba3Y1Ru1Pt1O9
Ba3YRu2O9,mp-18701,0.0,3.56509252,0.0,"{56: 3, 39: 1, 44: 2, 8: 9}","[8, 39, 44, 56]",89391442563,Ba3Y1Ru2O9
Ba3YIr2O9,mp-1205382,0.0,3.81233333,0.0,"{56: 3, 39: 1, 77: 2, 8: 9}","[8, 39, 56, 77]",89391563772,Ba3Y1Ir2O9
Ba3Y2MoO9,mp-1228052,1.569,2.57289569,0.0,"{56: 3, 39: 2, 42: 1, 8: 9}","[8, 39, 42, 56]",89392421563,Ba3Y2Mo1O9
Ba3Y2WO9,mp-1228087,2.3881,2.489576,0.0,"{56: 3, 39: 2, 74: 1, 8: 9}","[8, 39, 56, 74]",89392563741,Ba3Y2W1O9
Ba3Y4O9,mp-15751,3.3201,1.70939054,0.014391349374999862,"{56: 3, 39: 4, 8: 9}","[8, 39, 56]",89394563,Ba3Y4O9
Ba3ZrRu2O9,mp-561170,0.0,3.9511269,0.0011554747777804408,"{56: 3, 40: 1, 44: 2, 8: 9}","[8, 40, 44, 56]",89401442563,Ba3Zr1Ru2O9
Ba3ZrIr2O9,mp-1214509,0.0,4.29012326,0.0,"{56: 3, 40: 1, 77: 2, 8: 9}","[8, 40, 56, 77]",89401563772,Ba3Zr1Ir2O9
Ba3Nb2CdO9,mp-1214502,2.8387000000000002,1.91289671,0.0,"{56: 3, 41: 2, 48: 1, 8: 9}","[8, 41, 48, 56]",89412481563,Ba3Nb2Cd1O9
BaNb2Bi2O9,mp-555867,2.2153,2.69469225,0.00688399907142756,"{56: 1, 41: 2, 83: 2, 8: 9}","[8, 41, 56, 83]",89412561832,Ba1Nb2Bi2O9
Ba4Nb2O9,mp-1193166,3.5089,4.54481715,0.0,"{56: 4, 41: 2, 8: 9}","[8, 41, 56]",89412564,Ba4Nb2O9
Ba2Nb5O9,mp-19796,0.0,5.28975414,0.0,"{56: 2, 41: 5, 8: 9}","[8, 41, 56]",89415562,Ba2Nb5O9
BaNb7O9,mp-505078,0.0,5.54859732,0.0,"{56: 1, 41: 7, 8: 9}","[8, 41, 56]",89417561,Ba1Nb7O9
Ba3In2MoO9,mp-1228643,1.8273000000000001,3.68505208,0.0,"{56: 3, 49: 2, 42: 1, 8: 9}","[8, 42, 49, 56]",89421492563,Ba3In2Mo1O9
Ba3Dy2MoO9,mp-1228336,1.3959000000000006,2.68298483,0.0,"{56: 3, 66: 2, 42: 1, 8: 9}","[8, 42, 56, 66]",89421563662,Ba3Dy2Mo1O9
Ba3Ho2MoO9,mp-1228250,2.1402,4.19072083,0.0,"{56: 3, 67: 2, 42: 1, 8: 9}","[8, 42, 56, 67]",89421563672,Ba3Ho2Mo1O9
Ba3Er2MoO9,mp-1228244,2.063,4.18523442,0.0,"{56: 3, 68: 2, 42: 1, 8: 9}","[8, 42, 56, 68]",89421563682,Ba3Er2Mo1O9
Ba3Lu2MoO9,mp-1228133,1.8982999999999999,2.28486036,0.0,"{56: 3, 71: 2, 42: 1, 8: 9}","[8, 42, 56, 71]",89421563712,Ba3Lu2Mo1O9
BaTeMo2O9,mp-1203413,3.0136000000000003,1.79989774,0.011802890144230638,"{56: 1, 52: 1, 42: 2, 8: 9}","[8, 42, 52, 56]",89422521561,Ba1Te1Mo2O9
Ba3InIrRuO9,mp-1228718,0.0,4.2726414,0.0,"{56: 3, 49: 1, 77: 1, 44: 1, 8: 9}","[8, 44, 49, 56, 77]",89441491563771,Ba3In1Ir1Ru1O9
Ba3LaIrRuO9,mp-1228246,0.0,4.3055934,0.0,"{56: 3, 57: 1, 77: 1, 44: 1, 8: 9}","[8, 44, 56, 57, 77]",89441563571771,Ba3La1Ir1Ru1O9
Ba3PrIrRuO9,mp-1228216,0.0,3.73015832,0.0,"{56: 3, 59: 1, 77: 1, 44: 1, 8: 9}","[8, 44, 56, 59, 77]",89441563591771,Ba3Pr1Ir1Ru1O9
Ba3NdIrRuO9,mp-1228241,0.0009000000000001229,3.74625309,0.0,"{56: 3, 60: 1, 77: 1, 44: 1, 8: 9}","[8, 44, 56, 60, 77]",89441563601771,Ba3Nd1Ir1Ru1O9
Ba3SmIrRuO9,mp-1228168,0.0,3.53964279,0.0,"{56: 3, 62: 1, 77: 1, 44: 1, 8: 9}","[8, 44, 56, 62, 77]",89441563621771,Ba3Sm1Ir1Ru1O9
Ba3GdIrRuO9,mp-1228796,0.0,3.60732103,0.0,"{56: 3, 64: 1, 77: 1, 44: 1, 8: 9}","[8, 44, 56, 64, 77]",89441563641771,Ba3Gd1Ir1Ru1O9
Ba3TbIrRuO9,mp-1228219,0.0,3.76553003,0.0,"{56: 3, 65: 1, 77: 1, 44: 1, 8: 9}","[8, 44, 56, 65, 77]",89441563651771,Ba3Tb1Ir1Ru1O9
Ba3DyIrRuO9,mp-1228297,0.0,3.78298671,0.0,"{56: 3, 66: 1, 77: 1, 44: 1, 8: 9}","[8, 44, 56, 66, 77]",89441563661771,Ba3Dy1Ir1Ru1O9
Ba3HoIrRuO9,mp-1228398,0.0,3.77848706,0.0,"{56: 3, 67: 1, 77: 1, 44: 1, 8: 9}","[8, 44, 56, 67, 77]",89441563671771,Ba3Ho1Ir1Ru1O9
Ba3ErIrRuO9,mp-1228390,0.0,3.78635884,0.0,"{56: 3, 68: 1, 77: 1, 44: 1, 8: 9}","[8, 44, 56, 68, 77]",89441563681771,Ba3Er1Ir1Ru1O9
Ba3TmIrRuO9,mp-1227963,0.0,3.67219496,0.0,"{56: 3, 69: 1, 77: 1, 44: 1, 8: 9}","[8, 44, 56, 69, 77]",89441563691771,Ba3Tm1Ir1Ru1O9
Ba3LuIrRuO9,mp-1228300,0.0,3.77169189,0.0,"{56: 3, 71: 1, 77: 1, 44: 1, 8: 9}","[8, 44, 56, 71, 77]",89441563711771,Ba3Lu1Ir1Ru1O9
Ba3BiIrRuO9,mp-1228361,0.06430000000000025,4.15607267,0.0,"{56: 3, 83: 1, 77: 1, 44: 1, 8: 9}","[8, 44, 56, 77, 83]",89441563771831,Ba3Bi1Ir1Ru1O9
Ba3Bi2RuO9,mp-1228299,0.4466000000000001,3.70171164,0.0,"{56: 3, 83: 2, 44: 1, 8: 9}","[8, 44, 56, 83]",89441563832,Ba3Bi2Ru1O9
Ba3InRu2O9,mp-22352,0.0,4.21417213,0.0,"{56: 3, 49: 1, 44: 2, 8: 9}","[8, 44, 49, 56]",89442491563,Ba3In1Ru2O9
Ba3LaRu2O9,mp-558624,0.0,4.07552524,0.0,"{56: 3, 57: 1, 44: 2, 8: 9}","[8, 44, 56, 57]",89442563571,Ba3La1Ru2O9
Ba3CeRu2O9,mp-6301,0.0,4.20634463,0.0,"{56: 3, 58: 1, 44: 2, 8: 9}","[8, 44, 56, 58]",89442563581,Ba3Ce1Ru2O9
Ba3PrRu2O9,mp-16821,0.0,3.59749189,0.0,"{56: 3, 59: 1, 44: 2, 8: 9}","[8, 44, 56, 59]",89442563591,Ba3Pr1Ru2O9
Ba3NdRu2O9,mp-6018,0.0,3.59961522,0.0,"{56: 3, 60: 1, 44: 2, 8: 9}","[8, 44, 56, 60]",89442563601,Ba3Nd1Ru2O9
Ba3SmRu2O9,mp-6077,0.0,3.57854126,0.0,"{56: 3, 62: 1, 44: 2, 8: 9}","[8, 44, 56, 62]",89442563621,Ba3Sm1Ru2O9
Ba3EuRu2O9,mp-556259,0.021500000000000075,3.35224803,0.0,"{56: 3, 63: 1, 44: 2, 8: 9}","[8, 44, 56, 63]",89442563631,Ba3Eu1Ru2O9
Ba3TbRu2O9,mp-6345,0.0,3.66410739,0.0,"{56: 3, 65: 1, 44: 2, 8: 9}","[8, 44, 56, 65]",89442563651,Ba3Tb1Ru2O9
Ba3DyRu2O9,mp-541720,0.0,3.66140045,0.0,"{56: 3, 66: 1, 44: 2, 8: 9}","[8, 44, 56, 66]",89442563661,Ba3Dy1Ru2O9
Ba3HoRu2O9,mp-1214536,0.0,3.69016696,0.0,"{56: 3, 67: 1, 44: 2, 8: 9}","[8, 44, 56, 67]",89442563671,Ba3Ho1Ru2O9
Ba3ErRu2O9,mp-541721,0.0,3.65111565,0.0,"{56: 3, 68: 1, 44: 2, 8: 9}","[8, 44, 56, 68]",89442563681,Ba3Er1Ru2O9
Ba3TmRu2O9,mp-1214484,0.0,3.67457048,0.0,"{56: 3, 69: 1, 44: 2, 8: 9}","[8, 44, 56, 69]",89442563691,Ba3Tm1Ru2O9
Ba3LuRu2O9,mp-555246,0.0,3.63823919,0.0,"{56: 3, 71: 1, 44: 2, 8: 9}","[8, 44, 56, 71]",89442563711,Ba3Lu1Ru2O9
Ba3BiRu2O9,mp-556602,0.0,3.94732952,0.004242800750000164,"{56: 3, 83: 1, 44: 2, 8: 9}","[8, 44, 56, 83]",89442563831,Ba3Bi1Ru2O9
Ba3Ta2CdO9,mp-554669,3.4856,2.08182558,0.0,"{56: 3, 73: 2, 48: 1, 8: 9}","[8, 48, 56, 73]",89481563732,Ba3Ta2Cd1O9
Ba3CdIr2O9,mp-1214618,0.0,3.39944963,0.0,"{56: 3, 48: 1, 77: 2, 8: 9}","[8, 48, 56, 77]",89481563772,Ba3Cd1Ir2O9
Ba3InIr2O9,mp-1214916,0.01639999999999997,4.40466772,0.0,"{56: 3, 49: 1, 77: 2, 8: 9}","[8, 49, 56, 77]",89491563772,Ba3In1Ir2O9
Ba3In2WO9,mp-1228476,2.6734,3.53918996,0.0,"{56: 3, 49: 2, 74: 1, 8: 9}","[8, 49, 56, 74]",89492563741,Ba3In2W1O9
Ba3UIn2O9,mp-1228397,1.5562,3.69613226,0.0,"{56: 3, 92: 1, 49: 2, 8: 9}","[8, 49, 56, 92]",89492563921,Ba3U1In2O9
Ba4Sb2O9,mp-801028,2.8294,5.05709114,0.0,"{56: 4, 51: 2, 8: 9}","[8, 51, 56]",89512564,Ba4Sb2O9
BaTeW2O9,mp-18311,3.4154,1.86968838,0.011390631634611736,"{56: 1, 52: 1, 74: 2, 8: 9}","[8, 52, 56, 74]",89521561742,Ba1Te1W2O9
Ba3Bi2TeO9,mp-556407,2.1188,3.81523855,0.0,"{56: 3, 83: 2, 52: 1, 8: 9}","[8, 52, 56, 83]",89521563832,Ba3Bi2Te1O9
Ba3Te2O9,mp-17009,2.3815999999999997,2.81225126,0.0,"{56: 3, 52: 2, 8: 9}","[8, 52, 56]",89522563,Ba3Te2O9
BaTe4O9,mp-1195016,3.1536,2.96937057,0.0,"{56: 1, 52: 4, 8: 9}","[8, 52, 56]",89524561,Ba1Te4O9
BaTa2Bi2O9,mp-23611,1.9158,3.58030045,0.02987707375000248,"{56: 1, 73: 2, 83: 2, 8: 9}","[8, 56, 73, 83]",89561732832,Ba1Ta2Bi2O9
BaRe2O9,mp-1214641,0.4154,-1.87860609,0.0,"{56: 1, 75: 2, 8: 9}","[8, 56, 75]",89561752,Ba1Re2O9
BaOsO9,mp-1203815,0.40470000000000006,0.56619423,0.5360719748863634,"{56: 1, 76: 1, 8: 9}","[8, 56, 76]",89561761,Ba1Os1O9
Ba2(IrO3)3,mp-510508,0.0,3.19863011,0.0,"{56: 2, 77: 3, 8: 9}","[8, 56, 77]",89562773,Ba2Ir3O9
Ba3LaIr2O9,mp-561089,0.0,4.24014595,0.0,"{56: 3, 57: 1, 77: 2, 8: 9}","[8, 56, 57, 77]",89563571772,Ba3La1Ir2O9
Ba3CeIr2O9,mp-1214640,0.0,4.61975584,0.0,"{56: 3, 58: 1, 77: 2, 8: 9}","[8, 56, 58, 77]",89563581772,Ba3Ce1Ir2O9
Ba3PrIr2O9,mp-1214562,0.0,3.71434678,0.0,"{56: 3, 59: 1, 77: 2, 8: 9}","[8, 56, 59, 77]",89563591772,Ba3Pr1Ir2O9
Ba3NdIr2O9,mp-1214535,0.0,3.72365569,0.0,"{56: 3, 60: 1, 77: 2, 8: 9}","[8, 56, 60, 77]",89563601772,Ba3Nd1Ir2O9
Ba3SmIr2O9,mp-1205402,0.0,3.64890681,0.0,"{56: 3, 62: 1, 77: 2, 8: 9}","[8, 56, 62, 77]",89563621772,Ba3Sm1Ir2O9
Ba3Sm2WO9,mp-1228249,1.8952999999999998,2.7365256,0.025358034333331503,"{56: 3, 62: 2, 74: 1, 8: 9}","[8, 56, 62, 74]",89563622741,Ba3Sm2W1O9
Ba3Tb2WO9,mp-1228418,2.3808,2.44972093,0.0,"{56: 3, 65: 2, 74: 1, 8: 9}","[8, 56, 65, 74]",89563652741,Ba3Tb2W1O9
Ba3Dy2WO9,mp-1228348,2.2084,2.62540482,0.0,"{56: 3, 66: 2, 74: 1, 8: 9}","[8, 56, 66, 74]",89563662741,Ba3Dy2W1O9
Ba3Dy4O9,mp-8974,3.2313,1.69430828,0.011114276875002105,"{56: 3, 66: 4, 8: 9}","[8, 56, 66]",89563664,Ba3Dy4O9
Ba3Ho4O9,mp-14323,3.2565000000000004,1.60216593,0.00685688187500233,"{56: 3, 67: 4, 8: 9}","[8, 56, 67]",89563674,Ba3Ho4O9
Ba3Er4O9,mp-14853,3.2746,1.67010747,0.002354400625002029,"{56: 3, 68: 4, 8: 9}","[8, 56, 68]",89563684,Ba3Er4O9
Ba3Tm4O9,mp-14322,3.2767,1.62048048,0.0,"{56: 3, 69: 4, 8: 9}","[8, 56, 69]",89563694,Ba3Tm4O9
Ba3LuIr2O9,mp-556674,0.0,3.76093146,0.0,"{56: 3, 71: 1, 77: 2, 8: 9}","[8, 56, 71, 77]",89563711772,Ba3Lu1Ir2O9
Ba3Lu4O9,mp-542832,3.1681000000000004,1.77462383,0.0,"{56: 3, 71: 4, 8: 9}","[8, 56, 71]",89563714,Ba3Lu4O9
Ba3W2O9,mp-18867,3.3742,1.79780307,0.004683444464275155,"{56: 3, 74: 2, 8: 9}","[8, 56, 74]",89563742,Ba3W2O9
Ba3Re2O9,mp-38972,0.0,4.14073248,0.0,"{56: 3, 75: 2, 8: 9}","[8, 56, 75]",89563752,Ba3Re2O9
Ba3BiIr2O9,mp-1194190,0.0,4.08891821,0.0037184785925727937,"{56: 3, 83: 1, 77: 2, 8: 9}","[8, 56, 77, 83]",89563772831,Ba3Bi1Ir2O9
Ba3Bi2PbO9,mp-1228435,0.0,4.11255065,0.0020712310000021716,"{56: 3, 83: 2, 82: 1, 8: 9}","[8, 56, 82, 83]",89563821832,Ba3Bi2Pb1O9
Ba3BiPb2O9,mp-1228457,0.0,4.06578075,0.0025657226667759048,"{56: 3, 83: 1, 82: 2, 8: 9}","[8, 56, 82, 83]",89563822831,Ba3Bi1Pb2O9
Ba4Ta2O9,mp-1196006,3.9585,1.13215915,0.0,"{56: 4, 73: 2, 8: 9}","[8, 56, 73]",89564732,Ba4Ta2O9
Ba4(PtO3)3,mp-757840,1.5953000000000004,3.32878049,0.0,"{56: 4, 78: 3, 8: 9}","[8, 56, 78]",89564783,Ba4Pt3O9
Ba4TlBiPb2O9,mp-684884,0.0,4.44725615,0.192480400588237,"{56: 4, 81: 1, 83: 1, 82: 2, 8: 9}","[8, 56, 81, 82, 83]",89564811822831,Ba4Tl1Bi1Pb2O9
Ba5Pt2O9,mp-29787,1.9294999999999995,2.89947439,0.0,"{56: 5, 78: 2, 8: 9}","[8, 56, 78]",89565782,Ba5Pt2O9
BaCa3Zr16(PO4)24,mp-1229190,4.178100000000001,0.37992423,0.004214746357140697,"{56: 1, 20: 3, 40: 16, 15: 24, 8: 96}","[8, 15, 20, 40, 56]",89615242034016561,Ba1Ca3Zr16P24O96
Ba32Sb7Pb25O96,mp-686499,0.0,4.25014267,0.0,"{56: 32, 51: 7, 82: 25, 8: 96}","[8, 51, 56, 82]",89651756328225,Ba32Sb7Pb25O96
Ba2NbP2O9F,mp-1228528,2.9846999999999997,0.36005778,0.0,"{56: 2, 41: 1, 15: 2, 8: 9, 9: 1}","[8, 9, 15, 41, 56]",8991152411562,Ba2Nb1P2O9F1
Ba2Ti2Si2O9F2,mp-557968,3.3266,1.6920081,0.0018974984926529714,"{56: 2, 22: 2, 14: 2, 8: 9, 9: 2}","[8, 9, 14, 22, 56]",8992142222562,Ba2Ti2Si2O9F2
Ba2Mg2MnF10,mp-1214672,4.4494,5.155291,0.007781596000001834,"{56: 2, 12: 2, 25: 1, 9: 10}","[9, 12, 25, 56]",910122251562,Ba2Mg2Mn1F10
Ba2Mg3F10,mp-541162,6.8919999999999995,-0.87565526,0.005831869333334794,"{56: 2, 12: 3, 9: 10}","[9, 12, 56]",910123562,Ba2Mg3F10
Ba9In4(SF)10,mp-1204134,2.2436999999999996,2.33199579,0.02838620803030878,"{56: 9, 49: 4, 16: 10, 9: 10}","[9, 16, 49, 56]",9101610494569,Ba9In4S10F10
BaCaDy2F10,mp-1228037,2.8686000000000003,0.73021408,0.43104408749999923,"{56: 1, 20: 1, 66: 2, 9: 10}","[9, 20, 56, 66]",910201561662,Ba1Ca1Dy2F10
BaCaLu2F10,mp-1228137,6.8685,-0.70994438,0.008439147500004296,"{56: 1, 20: 1, 71: 2, 9: 10}","[9, 20, 56, 71]",910201561712,Ba1Ca1Lu2F10
Ba2Fe3F10,mp-28359,3.4795,1.19973158,0.010194267000000146,"{56: 2, 26: 3, 9: 10}","[9, 26, 56]",910263562,Ba2Fe3F10
Ba2Zn3F10,mp-1214592,4.3453,-0.92420928,0.004988330666676255,"{56: 2, 30: 3, 9: 10}","[9, 30, 56]",910303562,Ba2Zn3F10
Ba3ZrF10,mp-1214503,5.7721,-1.48316512,0.0004413008928576545,"{56: 3, 40: 1, 9: 10}","[9, 40, 56]",910401563,Ba3Zr1F10
BaZr2F10,mp-505400,5.756399999999999,-2.40314731,0.0,"{56: 1, 40: 2, 9: 10}","[9, 40, 56]",910402561,Ba1Zr2F10
BaTe2F10,mp-29177,4.8686,-0.054718,0.0,"{56: 1, 52: 2, 9: 10}","[9, 52, 56]",910522561,Ba1Te2F10
Ba2NaMn3F11,mp-1228567,3.6924,3.82242662,0.007692585882354663,"{56: 2, 11: 1, 25: 3, 9: 11}","[9, 11, 25, 56]",911111253562,Ba2Na1Mn3F11
BaNaZr2F11,mp-561234,5.699199999999999,-1.60387743,0.0029706410833529873,"{56: 1, 11: 1, 40: 2, 9: 11}","[9, 11, 40, 56]",911111402561,Ba1Na1Zr2F11
Ba2Ti2AlF11,mp-1044573,0.0,4.85500918,0.11816562717882206,"{56: 2, 22: 2, 13: 1, 9: 11}","[9, 13, 22, 56]",911131222562,Ba2Ti2Al1F11
Ba2AlV2F11,mp-1044800,2.4566,2.62179813,0.04408226335937204,"{56: 2, 13: 1, 23: 2, 9: 11}","[9, 13, 23, 56]",911131232562,Ba2Al1V2F11
Ba2AlCr2F11,mp-1044788,3.1102000000000003,1.61099453,0.011234603567708668,"{56: 2, 13: 1, 24: 2, 9: 11}","[9, 13, 24, 56]",911131242562,Ba2Al1Cr2F11
Ba2Mn2AlF11,mp-1044811,0.06879999999999997,3.57384095,0.03878665856770791,"{56: 2, 25: 2, 13: 1, 9: 11}","[9, 13, 25, 56]",911131252562,Ba2Mn2Al1F11
Ba2AlFe2F11,mp-1044845,3.8605,1.05582797,0.02725936335937451,"{56: 2, 13: 1, 26: 2, 9: 11}","[9, 13, 26, 56]",911131262562,Ba2Al1Fe2F11
Ba2AlCo2F11,mp-1044813,3.0809,0.59122468,0.02852250377604104,"{56: 2, 13: 1, 27: 2, 9: 11}","[9, 13, 27, 56]",911131272562,Ba2Al1Co2F11
Ba2AlCu2F11,mp-561318,0.5741999999999999,0.62386866,0.0,"{56: 2, 13: 1, 29: 2, 9: 11}","[9, 13, 29, 56]",911131292562,Ba2Al1Cu2F11
Ba2AlSn2F11,mp-1044546,4.128699999999999,1.0062246,0.04527379805989984,"{56: 2, 13: 1, 50: 2, 9: 11}","[9, 13, 50, 56]",911131502562,Ba2Al1Sn2F11
Ba2AlW2F11,mp-1044860,1.4024999999999999,2.46591815,0.2749367501875044,"{56: 2, 13: 1, 74: 2, 9: 11}","[9, 13, 56, 74]",911131562742,Ba2Al1W2F11
Ba2YTi2F11,mp-1044611,0.0,4.23128681,0.15233241465277736,"{56: 2, 39: 1, 22: 2, 9: 11}","[9, 22, 39, 56]",911222391562,Ba2Y1Ti2F11
Ba2Ti2F11,mp-1044618,0.0,2.4065986,0.0907150906666665,"{56: 2, 22: 2, 9: 11}","[9, 22, 56]",911222562,Ba2Ti2F11
Ba2YV2F11,mp-1044893,2.4633,2.32122143,0.08110307187499899,"{56: 2, 39: 1, 23: 2, 9: 11}","[9, 23, 39, 56]",911232391562,Ba2Y1V2F11
Ba2V2F11,mp-1040790,0.9068,-0.65803034,0.07305180777777309,"{56: 2, 23: 2, 9: 11}","[9, 23, 56]",911232562,Ba2V2F11
Ba2YCr2F11,mp-1049234,3.1167,1.3695386,0.05867460187500395,"{56: 2, 39: 1, 24: 2, 9: 11}","[9, 24, 39, 56]",911242391562,Ba2Y1Cr2F11
CsBa2Cr2F11,mp-865412,3.2847999999999997,-1.17185393,0.0,"{55: 1, 56: 2, 24: 2, 9: 11}","[9, 24, 55, 56]",911242551562,Cs1Ba2Cr2F11
Ba2Cr2F11,mp-1049253,0.22310000000000008,-1.1965399,0.16043926805555841,"{56: 2, 24: 2, 9: 11}","[9, 24, 56]",911242562,Ba2Cr2F11
Ba2YMn2F11,mp-1049236,3.7117999999999998,0.65371811,0.061984052708332626,"{56: 2, 39: 1, 25: 2, 9: 11}","[9, 25, 39, 56]",911252391562,Ba2Y1Mn2F11
Ba2Mn2F11,mp-1049304,1.6667,-1.35647857,0.00747044172222644,"{56: 2, 25: 2, 9: 11}","[9, 25, 56]",911252562,Ba2Mn2F11
Ba2YFe2F11,mp-1049241,3.7986999999999997,0.76314268,0.06194903604166946,"{56: 2, 39: 1, 26: 2, 9: 11}","[9, 26, 39, 56]",911262391562,Ba2Y1Fe2F11
Ba2YCo2F11,mp-1049278,0.3024,1.59261113,0.06313144208333554,"{56: 2, 39: 1, 27: 2, 9: 11}","[9, 27, 39, 56]",911272391562,Ba2Y1Co2F11
Ba2Co2F11,mp-1041033,0.0,-1.41906807,0.019083336555556052,"{56: 2, 27: 2, 9: 11}","[9, 27, 56]",911272562,Ba2Co2F11
Ba2YCu2F11,mp-1044526,0.8523999999999999,0.30901925,0.051714312541677465,"{56: 2, 39: 1, 29: 2, 9: 11}","[9, 29, 39, 56]",911292391562,Ba2Y1Cu2F11
BaAlGeF,mp-1078453,0.0,4.11265262,0.0,"{56: 1, 13: 1, 32: 1, 9: 1}","[9, 13, 32, 56]",91131321561,Ba1Al1Ge1F1
Ba2YSn2F11,mp-1044569,3.2299999999999995,1.63110055,0.07950732489583334,"{56: 2, 39: 1, 50: 2, 9: 11}","[9, 39, 50, 56]",911391502562,Ba2Y1Sn2F11
Ba2YW2F11,mp-1048842,2.3242,2.56067603,0.2577021562083104,"{56: 2, 39: 1, 74: 2, 9: 11}","[9, 39, 56, 74]",911391562742,Ba2Y1W2F11