formula,material_id,band_gap,efermi,energy_above_hull,comp_atoms,sorted_keys_comp_atoms,comp_number,new_formula
BaLaMgRuO6,mp-39249,0.19810000000000016,5.1396379,0.019925456333338865,"{56: 1, 57: 1, 12: 1, 44: 1, 8: 6}","[8, 12, 44, 56, 57]",86121441561571,Ba1La1Mg1Ru1O6
Ba2PrMgRuO6,mp-2217289,0.0,4.14954792,0.33665583215908956,"{56: 2, 59: 1, 12: 1, 44: 1, 8: 6}","[8, 12, 44, 56, 59]",86121441562591,Ba2Pr1Mg1Ru1O6
Ba2NdMgRuO6,mp-2217822,0.0,4.14470571,0.34066287549999696,"{56: 2, 60: 1, 12: 1, 44: 1, 8: 6}","[8, 12, 44, 56, 60]",86121441562601,Ba2Nd1Mg1Ru1O6
Ba2HoMgRuO6,mp-2215955,0.0,4.07347106,0.36516836090909166,"{56: 2, 67: 1, 12: 1, 44: 1, 8: 6}","[8, 12, 44, 56, 67]",86121441562671,Ba2Ho1Mg1Ru1O6
Ba2ErMgRuO6,mp-2217885,0.0,4.58918595,0.36688414372726985,"{56: 2, 68: 1, 12: 1, 44: 1, 8: 6}","[8, 12, 44, 56, 68]",86121441562681,Ba2Er1Mg1Ru1O6
Ba2TmMgRuO6,mp-2218068,0.0,4.62589115,0.3649486534999973,"{56: 2, 69: 1, 12: 1, 44: 1, 8: 6}","[8, 12, 44, 56, 69]",86121441562691,Ba2Tm1Mg1Ru1O6
Ba2LuMgRuO6,mp-2240300,0.2706999999999997,3.1541673,0.2467234707272734,"{56: 2, 71: 1, 12: 1, 44: 1, 8: 6}","[8, 12, 44, 56, 71]",86121441562711,Ba2Lu1Mg1Ru1O6
Ba2LaMgSbO6,mp-2217548,2.818,3.41136028,0.15369149507576285,"{56: 2, 57: 1, 12: 1, 51: 1, 8: 6}","[8, 12, 51, 56, 57]",86121511562571,Ba2La1Mg1Sb1O6
Ba2PrMgSbO6,mp-2240824,2.7181,2.76590079,0.15165449693181987,"{56: 2, 59: 1, 12: 1, 51: 1, 8: 6}","[8, 12, 51, 56, 59]",86121511562591,Ba2Pr1Mg1Sb1O6
Ba2NdMgSbO6,mp-2239904,2.7145,2.80271308,0.15691023030303164,"{56: 2, 60: 1, 12: 1, 51: 1, 8: 6}","[8, 12, 51, 56, 60]",86121511562601,Ba2Nd1Mg1Sb1O6
Ba2SmMgSbO6,mp-2217779,2.4782000000000006,2.67308283,0.22113349628788104,"{56: 2, 62: 1, 12: 1, 51: 1, 8: 6}","[8, 12, 51, 56, 62]",86121511562621,Ba2Sm1Mg1Sb1O6
Ba2EuMgSbO6,mp-2217343,0.0,4.96498685,0.47628710075757574,"{56: 2, 63: 1, 12: 1, 51: 1, 8: 6}","[8, 12, 51, 56, 63]",86121511562631,Ba2Eu1Mg1Sb1O6
Ba2GdMgSbO6,mp-2217708,1.3108999999999997,2.94585398,0.36884869795455444,"{56: 2, 64: 1, 12: 1, 51: 1, 8: 6}","[8, 12, 51, 56, 64]",86121511562641,Ba2Gd1Mg1Sb1O6
Ba2TbMgSbO6,mp-2217735,2.5178,2.85870356,0.22652720674242577,"{56: 2, 65: 1, 12: 1, 51: 1, 8: 6}","[8, 12, 51, 56, 65]",86121511562651,Ba2Tb1Mg1Sb1O6
Ba2DyMgSbO6,mp-2240337,2.4899,2.89974137,0.22771233662878831,"{56: 2, 66: 1, 12: 1, 51: 1, 8: 6}","[8, 12, 51, 56, 66]",86121511562661,Ba2Dy1Mg1Sb1O6
Ba2HoMgSbO6,mp-2240487,2.5118,2.89892653,0.22868317662878912,"{56: 2, 67: 1, 12: 1, 51: 1, 8: 6}","[8, 12, 51, 56, 67]",86121511562671,Ba2Ho1Mg1Sb1O6
Ba2ErMgSbO6,mp-2241358,2.478,2.96624129,0.22794433700757644,"{56: 2, 68: 1, 12: 1, 51: 1, 8: 6}","[8, 12, 51, 56, 68]",86121511562681,Ba2Er1Mg1Sb1O6
Ba2LuMgSbO6,mp-2227020,2.5078,2.93961742,0.23275850996212277,"{56: 2, 71: 1, 12: 1, 51: 1, 8: 6}","[8, 12, 51, 56, 71]",86121511562711,Ba2Lu1Mg1Sb1O6
Ba2MgBiSbO6,mp-2239985,0.7762000000000002,4.74286398,0.20180311172351395,"{56: 2, 12: 1, 83: 1, 51: 1, 8: 6}","[8, 12, 51, 56, 83]",86121511562831,Ba2Mg1Bi1Sb1O6
BaMg(SbO3)2,mp-2224172,2.7241999999999997,3.85129688,0.1866764175000064,"{56: 1, 12: 1, 51: 2, 8: 6}","[8, 12, 51, 56]",86121512561,Ba1Mg1Sb2O6
BaLaMgTaO6,mp-40251,2.9425,4.17296785,0.0795657015000053,"{56: 1, 57: 1, 12: 1, 73: 1, 8: 6}","[8, 12, 56, 57, 73]",86121561571731,Ba1La1Mg1Ta1O6
BaLaMgBiO6,mp-41414,1.0829000000000004,4.54860199,0.09593164193749804,"{56: 1, 57: 1, 12: 1, 83: 1, 8: 6}","[8, 12, 56, 57, 83]",86121561571831,Ba1La1Mg1Bi1O6
Ba2LaMgBiO6,mp-2240254,2.4518999999999997,3.71972594,0.2000961531818204,"{56: 2, 57: 1, 12: 1, 83: 1, 8: 6}","[8, 12, 56, 57, 83]",86121562571831,Ba2La1Mg1Bi1O6
Ba2NdMgBiO6,mp-2226695,2.5241000000000002,2.79806124,0.13676687715909264,"{56: 2, 60: 1, 12: 1, 83: 1, 8: 6}","[8, 12, 56, 60, 83]",86121562601831,Ba2Nd1Mg1Bi1O6
Ba2TbMgBiO6,mp-2217916,2.5608999999999997,2.59949765,0.24228459193181795,"{56: 2, 65: 1, 12: 1, 83: 1, 8: 6}","[8, 12, 56, 65, 83]",86121562651831,Ba2Tb1Mg1Bi1O6
Ba2LuMgBiO6,mp-2223089,2.0999999999999996,3.1845801,0.2885783961363648,"{56: 2, 71: 1, 12: 1, 83: 1, 8: 6}","[8, 12, 56, 71, 83]",86121562711831,Ba2Lu1Mg1Bi1O6
Ba2MgWO6,mp-18986,3.2230999999999996,2.65291087,0.0,"{56: 2, 12: 1, 74: 1, 8: 6}","[8, 12, 56, 74]",86121562741,Ba2Mg1W1O6
Ba2MgReO6,mp-22441,0.0,4.67344525,0.0,"{56: 2, 12: 1, 75: 1, 8: 6}","[8, 12, 56, 75]",86121562751,Ba2Mg1Re1O6
Ba2MgOsO6,mp-1206133,0.0,4.02529114,0.0,"{56: 2, 12: 1, 76: 1, 8: 6}","[8, 12, 56, 76]",86121562761,Ba2Mg1Os1O6
Ba2Mg(BiO3)2,mp-2217712,2.3553,3.13970936,0.12706278500000234,"{56: 2, 12: 1, 83: 2, 8: 6}","[8, 12, 56, 83]",86121562832,Ba2Mg1Bi2O6
Ba2MgUO6,mp-13811,2.0536999999999996,3.27151211,0.0,"{56: 2, 12: 1, 92: 1, 8: 6}","[8, 12, 56, 92]",86121562921,Ba2Mg1U1O6
Ba3MgWO6,mp-2217673,0.36929999999999996,3.4723049,0.2887634257575762,"{56: 3, 12: 1, 74: 1, 8: 6}","[8, 12, 56, 74]",86121563741,Ba3Mg1W1O6
BaAl2O6,mp-1251718,0.7308,1.1771013,0.3566837452020213,"{56: 1, 13: 2, 8: 6}","[8, 13, 56]",86132561,Ba1Al2O6
Ba3Al2O6,mp-1196869,3.8611999999999993,1.64161728,0.0,"{56: 3, 13: 2, 8: 6}","[8, 13, 56]",86132563,Ba3Al2O6
BaCu(SiO3)2,mp-1197716,0.6395000000000004,3.43544164,0.010961451874998751,"{56: 1, 29: 1, 14: 2, 8: 6}","[8, 14, 29, 56]",86142291561,Ba1Cu1Si2O6
BaVPO6,mp-18520,2.173,0.91656601,0.0,"{56: 1, 23: 1, 15: 1, 8: 6}","[8, 15, 23, 56]",86151231561,Ba1V1P1O6
Ba(PO3)2,mp-559939,5.4507,0.92593623,0.0,"{56: 1, 15: 2, 8: 6}","[8, 15, 56]",86152561,Ba1P2O6
Ba2YCu3SO6,mp-1214650,0.0,3.50922769,0.34149526413461295,"{56: 2, 39: 1, 29: 3, 16: 1, 8: 6}","[8, 16, 29, 39, 56]",86161293391562,Ba2Y1Cu3S1O6
Ba2GdCu3SO6,mp-1214929,0.0,3.25045522,0.32940042076922715,"{56: 2, 64: 1, 29: 3, 16: 1, 8: 6}","[8, 16, 29, 56, 64]",86161293562641,Ba2Gd1Cu3S1O6
Ba2CoSe2(ClO3)2,mp-562762,1.448,1.75430909,0.0,"{56: 2, 27: 1, 34: 2, 17: 2, 8: 6}","[8, 17, 27, 34, 56]",86172271342562,Ba2Co1Se2Cl2O6
BaCu2Te2(ClO3)2,mp-554401,0.0,3.10993073,0.009159838461543224,"{56: 1, 29: 2, 52: 2, 17: 2, 8: 6}","[8, 17, 29, 52, 56]",86172292522561,Ba1Cu2Te2Cl2O6
Ba(ClO3)2,mp-28512,5.2826,-0.25267373,0.015387531388882714,"{56: 1, 17: 2, 8: 6}","[8, 17, 56]",86172561,Ba1Cl2O6
BaBi4(ClO3)2,mp-560145,0.0,4.25686818,0.12564026611540324,"{56: 1, 83: 4, 17: 2, 8: 6}","[8, 17, 56, 83]",86172561834,Ba1Bi4Cl2O6
KBaLaMnO6,mp-1522815,0.0,2.09237582,0.17568404917514613,"{19: 1, 56: 1, 57: 1, 25: 1, 8: 6}","[8, 19, 25, 56, 57]",86191251561571,K1Ba1La1Mn1O6
KBaCeMnO6,mp-1517646,0.0,2.17607752,0.12000402000000143,"{19: 1, 56: 1, 58: 1, 25: 1, 8: 6}","[8, 19, 25, 56, 58]",86191251561581,K1Ba1Ce1Mn1O6
KBaSmMnO6,mp-1522193,0.0,1.09731389,0.14707067218750058,"{19: 1, 56: 1, 62: 1, 25: 1, 8: 6}","[8, 19, 25, 56, 62]",86191251561621,K1Ba1Sm1Mn1O6
KBaLaSeO6,mp-1521248,1.9313999999999996,3.35049618,0.1123699820416606,"{19: 1, 56: 1, 57: 1, 34: 1, 8: 6}","[8, 19, 34, 56, 57]",86191341561571,K1Ba1La1Se1O6
KBaBiTeO6,mp-1040443,1.5862999999999996,3.28128435,0.0,"{19: 1, 56: 1, 83: 1, 52: 1, 8: 6}","[8, 19, 52, 56, 83]",86191521561831,K1Ba1Bi1Te1O6
KBa2IO6,mp-1205512,2.7790000000000004,2.44263141,0.0,"{19: 1, 56: 2, 53: 1, 8: 6}","[8, 19, 53, 56]",86191531562,K1Ba2I1O6
KBaLaWO6,mp-1519429,2.9056,2.50081885,0.0,"{19: 1, 56: 1, 57: 1, 74: 1, 8: 6}","[8, 19, 56, 57, 74]",86191561571741,K1Ba1La1W1O6
KBaCeWO6,mp-1518107,0.5378000000000003,3.69155993,0.010766387384611775,"{19: 1, 56: 1, 58: 1, 74: 1, 8: 6}","[8, 19, 56, 58, 74]",86191561581741,K1Ba1Ce1W1O6
KBaCeBiO6,mp-1519450,2.1836,2.48216423,0.0,"{19: 1, 56: 1, 58: 1, 83: 1, 8: 6}","[8, 19, 56, 58, 83]",86191561581831,K1Ba1Ce1Bi1O6
KBaPrWO6,mp-1523149,2.8123000000000005,1.60004515,0.0,"{19: 1, 56: 1, 59: 1, 74: 1, 8: 6}","[8, 19, 56, 59, 74]",86191561591741,K1Ba1Pr1W1O6
KBaPrBiO6,mp-1516591,0.0,1.28891907,0.05150695603124866,"{19: 1, 56: 1, 59: 1, 83: 1, 8: 6}","[8, 19, 56, 59, 83]",86191561591831,K1Ba1Pr1Bi1O6
KBaNdWO6,mp-1521867,2.8191000000000006,1.64453054,0.0,"{19: 1, 56: 1, 60: 1, 74: 1, 8: 6}","[8, 19, 56, 60, 74]",86191561601741,K1Ba1Nd1W1O6
KBaEuWO6,mp-1520553,0.0,1.78623345,0.07024298437498544,"{19: 1, 56: 1, 63: 1, 74: 1, 8: 6}","[8, 19, 56, 63, 74]",86191561631741,K1Ba1Eu1W1O6
KBaGdWO6,mp-1523079,2.8167000000000004,1.58451364,0.0,"{19: 1, 56: 1, 64: 1, 74: 1, 8: 6}","[8, 19, 56, 64, 74]",86191561641741,K1Ba1Gd1W1O6
KBaTbBiO6,mp-1518830,0.0,1.36975403,0.04520272928125024,"{19: 1, 56: 1, 65: 1, 83: 1, 8: 6}","[8, 19, 56, 65, 83]",86191561651831,K1Ba1Tb1Bi1O6
KBaBiWO6,mp-1520614,2.4187,3.05851447,0.020003414374994755,"{19: 1, 56: 1, 83: 1, 74: 1, 8: 6}","[8, 19, 56, 74, 83]",86191561741831,K1Ba1Bi1W1O6
BaCaCeTiO6,mp-1521898,2.1876,3.19099899,0.1508858541249971,"{56: 1, 20: 1, 58: 1, 22: 1, 8: 6}","[8, 20, 22, 56, 58]",86201221561581,Ba1Ca1Ce1Ti1O6
BaCaTbTiO6,mp-1521723,0.0,2.0112736,0.17008938287499742,"{56: 1, 20: 1, 65: 1, 22: 1, 8: 6}","[8, 20, 22, 56, 65]",86201221561651,Ba1Ca1Tb1Ti1O6
BaCaYVO6,mp-1517517,1.6202999999999999,2.54192815,0.19511869269939375,"{56: 1, 20: 1, 39: 1, 23: 1, 8: 6}","[8, 20, 23, 39, 56]",86201231391561,Ba1Ca1Y1V1O6
BaCaDyVO6,mp-1519032,1.6048,2.53735399,0.1919750497618944,"{56: 1, 20: 1, 66: 1, 23: 1, 8: 6}","[8, 20, 23, 56, 66]",86201231561661,Ba1Ca1Dy1V1O6
BaCaCrSnO6,mp-1517268,0.0,3.789633,0.19508881125000865,"{56: 1, 20: 1, 24: 1, 50: 1, 8: 6}","[8, 20, 24, 50, 56]",86201241501561,Ba1Ca1Cr1Sn1O6
BaCaCrSbO6,mp-1516519,1.2601,3.99167517,0.1271957108750046,"{56: 1, 20: 1, 24: 1, 51: 1, 8: 6}","[8, 20, 24, 51, 56]",86201241511561,Ba1Ca1Cr1Sb1O6
BaCaCeCrO6,mp-1516242,0.0,3.38190515,0.2083599085625103,"{56: 1, 20: 1, 58: 1, 24: 1, 8: 6}","[8, 20, 24, 56, 58]",86201241561581,Ba1Ca1Ce1Cr1O6
BaCaCrBiO6,mp-1517595,0.18040000000000012,3.53644527,0.2012373439999875,"{56: 1, 20: 1, 24: 1, 83: 1, 8: 6}","[8, 20, 24, 56, 83]",86201241561831,Ba1Ca1Cr1Bi1O6
Ba2CaCrO6,mp-1520172,0.6019999999999999,2.46681506,0.09730034850000191,"{56: 2, 20: 1, 24: 1, 8: 6}","[8, 20, 24, 56]",86201241562,Ba2Ca1Cr1O6
BaCaMnSnO6,mp-1518884,0.0,3.75509994,0.1637451430833341,"{56: 1, 20: 1, 25: 1, 50: 1, 8: 6}","[8, 20, 25, 50, 56]",86201251501561,Ba1Ca1Mn1Sn1O6
BaCaNdMnO6,mp-1517966,0.0,1.97132689,0.20012570608334546,"{56: 1, 20: 1, 60: 1, 25: 1, 8: 6}","[8, 20, 25, 56, 60]",86201251561601,Ba1Ca1Nd1Mn1O6
BaCaSmMnO6,mp-1522001,0.0,1.97719423,0.17870795577084575,"{56: 1, 20: 1, 62: 1, 25: 1, 8: 6}","[8, 20, 25, 56, 62]",86201251561621,Ba1Ca1Sm1Mn1O6
BaCaMnWO6,mp-1516715,1.8851999999999998,3.70474598,0.08915145966667914,"{56: 1, 20: 1, 25: 1, 74: 1, 8: 6}","[8, 20, 25, 56, 74]",86201251561741,Ba1Ca1Mn1W1O6
BaCaCeFeO6,mp-1519944,0.0,3.32987127,0.13591836687500347,"{56: 1, 20: 1, 58: 1, 26: 1, 8: 6}","[8, 20, 26, 56, 58]",86201261561581,Ba1Ca1Ce1Fe1O6
BaCaPrFeO6,mp-1520023,0.21919999999999984,2.39512802,0.18611489910833168,"{56: 1, 20: 1, 59: 1, 26: 1, 8: 6}","[8, 20, 26, 56, 59]",86201261561591,Ba1Ca1Pr1Fe1O6
BaCaNdFeO6,mp-1519220,0.5867,2.95346944,0.16239076391667417,"{56: 1, 20: 1, 60: 1, 26: 1, 8: 6}","[8, 20, 26, 56, 60]",86201261561601,Ba1Ca1Nd1Fe1O6
BaCaSmFeO6,mp-1519954,0.19720000000000004,2.36347219,0.15612454093748163,"{56: 1, 20: 1, 62: 1, 26: 1, 8: 6}","[8, 20, 26, 56, 62]",86201261561621,Ba1Ca1Sm1Fe1O6
BaCaEuFeO6,mp-1519654,0.0,2.30140862,0.2116156893749892,"{56: 1, 20: 1, 63: 1, 26: 1, 8: 6}","[8, 20, 26, 56, 63]",86201261561631,Ba1Ca1Eu1Fe1O6
BaCaTbFeO6,mp-1521829,0.18009999999999993,2.49765787,0.13553242631248885,"{56: 1, 20: 1, 65: 1, 26: 1, 8: 6}","[8, 20, 26, 56, 65]",86201261561651,Ba1Ca1Tb1Fe1O6
BaCaDyFeO6,mp-1517283,0.17230000000000034,2.50150941,0.131158932374988,"{56: 1, 20: 1, 66: 1, 26: 1, 8: 6}","[8, 20, 26, 56, 66]",86201261561661,Ba1Ca1Dy1Fe1O6
BaCaFeWO6,mp-1521698,0.0,5.34930245,0.1576965892500013,"{56: 1, 20: 1, 26: 1, 74: 1, 8: 6}","[8, 20, 26, 56, 74]",86201261561741,Ba1Ca1Fe1W1O6
BaCaFeBiO6,mp-1519427,0.22160000000000002,3.219748,0.09461198099999013,"{56: 1, 20: 1, 26: 1, 83: 1, 8: 6}","[8, 20, 26, 56, 83]",86201261561831,Ba1Ca1Fe1Bi1O6
BaCaCuBiO6,mp-1521412,0.0,3.36060103,0.1801138635208357,"{56: 1, 20: 1, 29: 1, 83: 1, 8: 6}","[8, 20, 29, 56, 83]",86201291561831,Ba1Ca1Cu1Bi1O6
Ba2CaCu(HgO3)2,mp-1214691,0.0,2.3630463,0.27350370722222106,"{56: 2, 20: 1, 29: 1, 80: 2, 8: 6}","[8, 20, 29, 56, 80]",86201291562802,Ba2Ca1Cu1Hg2O6
Ba2CaCu2HgO6,mp-6879,0.0,3.00652513,0.01758676763889344,"{56: 2, 20: 1, 29: 2, 80: 1, 8: 6}","[8, 20, 29, 56, 80]",86201292562801,Ba2Ca1Cu2Hg1O6
BaCaGaBiO6,mp-1519159,0.03730000000000011,3.16155408,0.13448587518749733,"{56: 1, 20: 1, 31: 1, 83: 1, 8: 6}","[8, 20, 31, 56, 83]",86201311561831,Ba1Ca1Ga1Bi1O6
BaCaCeGeO6,mp-1518962,1.9787000000000003,3.26878158,0.18508688433332932,"{56: 1, 20: 1, 58: 1, 32: 1, 8: 6}","[8, 20, 32, 56, 58]",86201321561581,Ba1Ca1Ce1Ge1O6
BaCaEuSeO6,mp-1516685,0.0,5.33499633,0.2279109408750042,"{56: 1, 20: 1, 63: 1, 34: 1, 8: 6}","[8, 20, 34, 56, 63]",86201341561631,Ba1Ca1Eu1Se1O6
Ba2CaSeO6,mp-1520564,2.01,2.97153411,0.0,"{56: 2, 20: 1, 34: 1, 8: 6}","[8, 20, 34, 56]",86201341562,Ba2Ca1Se1O6
BaCaYNbO6,mp-1522202,2.8545,2.07712956,0.13082296156249917,"{56: 1, 20: 1, 39: 1, 41: 1, 8: 6}","[8, 20, 39, 41, 56]",86201391411561,Ba1Ca1Y1Nb1O6
BaCaYSbO6,mp-1520388,3.375,3.16131757,0.08760449196875442,"{56: 1, 20: 1, 39: 1, 51: 1, 8: 6}","[8, 20, 39, 51, 56]",86201391511561,Ba1Ca1Y1Sb1O6
BaCaZrNbO6,mp-1519061,0.0,5.59670892,0.11367458837499456,"{56: 1, 20: 1, 40: 1, 41: 1, 8: 6}","[8, 20, 40, 41, 56]",86201401411561,Ba1Ca1Zr1Nb1O6
BaCaZrSnO6,mp-1519645,3.7375000000000003,3.21781637,0.10206075525000102,"{56: 1, 20: 1, 40: 1, 50: 1, 8: 6}","[8, 20, 40, 50, 56]",86201401501561,Ba1Ca1Zr1Sn1O6
BaCaCeZrO6,mp-1517492,2.1401,2.51933025,0.07503048200000073,"{56: 1, 20: 1, 58: 1, 40: 1, 8: 6}","[8, 20, 40, 56, 58]",86201401561581,Ba1Ca1Ce1Zr1O6
BaCaHfZrO6,mp-1516790,3.3163,2.25526347,0.09499661900000866,"{56: 1, 20: 1, 72: 1, 40: 1, 8: 6}","[8, 20, 40, 56, 72]",86201401561721,Ba1Ca1Hf1Zr1O6
BaCaZrWO6,mp-1519763,0.0,4.78743729,0.19425700158333292,"{56: 1, 20: 1, 40: 1, 74: 1, 8: 6}","[8, 20, 40, 56, 74]",86201401561741,Ba1Ca1Zr1W1O6
BaCaZr2O6,mp-1523158,3.5587,2.12858265,0.03922653324999992,"{56: 1, 20: 1, 40: 2, 8: 6}","[8, 20, 40, 56]",86201402561,Ba1Ca1Zr2O6
BaCaNbInO6,mp-1518821,3.4029,3.08877682,0.10741433012499702,"{56: 1, 20: 1, 41: 1, 49: 1, 8: 6}","[8, 20, 41, 49, 56]",86201411491561,Ba1Ca1Nb1In1O6
BaCaCeNbO6,mp-1516489,0.0,5.75205053,0.11119683806249547,"{56: 1, 20: 1, 58: 1, 41: 1, 8: 6}","[8, 20, 41, 56, 58]",86201411561581,Ba1Ca1Ce1Nb1O6
BaCaNdNbO6,mp-1519641,2.9859,1.93756505,0.07899766575000022,"{56: 1, 20: 1, 60: 1, 41: 1, 8: 6}","[8, 20, 41, 56, 60]",86201411561601,Ba1Ca1Nd1Nb1O6
BaCaSmNbO6,mp-1522556,2.9882,1.96802159,0.06816267143750032,"{56: 1, 20: 1, 62: 1, 41: 1, 8: 6}","[8, 20, 41, 56, 62]",86201411561621,Ba1Ca1Sm1Nb1O6
BaCaEuNbO6,mp-1518007,0.0,2.31915977,0.15026238187500063,"{56: 1, 20: 1, 63: 1, 41: 1, 8: 6}","[8, 20, 41, 56, 63]",86201411561631,Ba1Ca1Eu1Nb1O6
BaCaGdNbO6,mp-1517031,2.8242999999999996,2.08287532,0.058327528625000014,"{56: 1, 20: 1, 64: 1, 41: 1, 8: 6}","[8, 20, 41, 56, 64]",86201411561641,Ba1Ca1Gd1Nb1O6
BaCaTbNbO6,mp-1520770,2.8529999999999998,2.10136385,0.13723627356250034,"{56: 1, 20: 1, 65: 1, 41: 1, 8: 6}","[8, 20, 41, 56, 65]",86201411561651,Ba1Ca1Tb1Nb1O6
BaCaDyNbO6,mp-1516601,2.856,2.02240522,0.1290677146250001,"{56: 1, 20: 1, 66: 1, 41: 1, 8: 6}","[8, 20, 41, 56, 66]",86201411561661,Ba1Ca1Dy1Nb1O6
BaCaHfNbO6,mp-1521804,0.0,5.81282376,0.12107481065624626,"{56: 1, 20: 1, 72: 1, 41: 1, 8: 6}","[8, 20, 41, 56, 72]",86201411561721,Ba1Ca1Hf1Nb1O6
BaCaNbWO6,mp-1519910,0.7630999999999997,4.5306864,0.15826042507954874,"{56: 1, 20: 1, 41: 1, 74: 1, 8: 6}","[8, 20, 41, 56, 74]",86201411561741,Ba1Ca1Nb1W1O6
Ba2CaNbO6,mp-1214679,0.0,1.60544034,0.045699657000000116,"{56: 2, 20: 1, 41: 1, 8: 6}","[8, 20, 41, 56]",86201411562,Ba2Ca1Nb1O6
Ba2CaMoO6,mp-19403,2.258,2.36964069,0.0,"{56: 2, 20: 1, 42: 1, 8: 6}","[8, 20, 42, 56]",86201421562,Ba2Ca1Mo1O6
Ba2Ca(PdO2)3,mp-17380,1.4866000000000001,2.58720544,0.0,"{56: 2, 20: 1, 46: 3, 8: 6}","[8, 20, 46, 56]",86201463562,Ba2Ca1Pd3O6
BaCaInSbO6,mp-1520258,0.9295,4.13542359,0.11587727616666754,"{56: 1, 20: 1, 49: 1, 51: 1, 8: 6}","[8, 20, 49, 51, 56]",86201491511561,Ba1Ca1In1Sb1O6
BaCaInBiO6,mp-1518025,0.8218999999999999,3.12858667,0.02391420029166902,"{56: 1, 20: 1, 49: 1, 83: 1, 8: 6}","[8, 20, 49, 56, 83]",86201491561831,Ba1Ca1In1Bi1O6
BaCaCeSnO6,mp-1521220,2.0629,3.44997393,0.06462551675000228,"{56: 1, 20: 1, 58: 1, 50: 1, 8: 6}","[8, 20, 50, 56, 58]",86201501561581,Ba1Ca1Ce1Sn1O6
BaCaTbSnO6,mp-1519927,0.0,2.30453136,0.10339768593749721,"{56: 1, 20: 1, 65: 1, 50: 1, 8: 6}","[8, 20, 50, 56, 65]",86201501561651,Ba1Ca1Tb1Sn1O6
BaCaHfSnO6,mp-1520046,3.6181999999999994,3.34650332,0.09742717725000194,"{56: 1, 20: 1, 72: 1, 50: 1, 8: 6}","[8, 20, 50, 56, 72]",86201501561721,Ba1Ca1Hf1Sn1O6
BaCaSnWO6,mp-1518423,1.9315999999999995,3.82289031,0.09478423137499803,"{56: 1, 20: 1, 50: 1, 74: 1, 8: 6}","[8, 20, 50, 56, 74]",86201501561741,Ba1Ca1Sn1W1O6
BaCaLaSbO6,mp-1522764,3.5067000000000004,3.63919696,0.06420970249999947,"{56: 1, 20: 1, 57: 1, 51: 1, 8: 6}","[8, 20, 51, 56, 57]",86201511561571,Ba1Ca1La1Sb1O6
BaCaPrSbO6,mp-1517150,3.1893999999999996,2.90371234,0.05473813849999409,"{56: 1, 20: 1, 59: 1, 51: 1, 8: 6}","[8, 20, 51, 56, 59]",86201511561591,Ba1Ca1Pr1Sb1O6
BaCaNdSbO6,mp-1521785,3.4966,2.76127065,0.05096099483333294,"{56: 1, 20: 1, 60: 1, 51: 1, 8: 6}","[8, 20, 51, 56, 60]",86201511561601,Ba1Ca1Nd1Sb1O6
BaCaSmSbO6,mp-1517996,3.3996999999999997,2.88181961,0.03834469591666956,"{56: 1, 20: 1, 62: 1, 51: 1, 8: 6}","[8, 20, 51, 56, 62]",86201511561621,Ba1Ca1Sm1Sb1O6
BaCaEuSbO6,mp-1520835,0.0,2.90105598,0.11177124650000181,"{56: 1, 20: 1, 63: 1, 51: 1, 8: 6}","[8, 20, 51, 56, 63]",86201511561631,Ba1Ca1Eu1Sb1O6
BaCaGdSbO6,mp-1521197,3.3061,2.98598616,0.03711715758333334,"{56: 1, 20: 1, 64: 1, 51: 1, 8: 6}","[8, 20, 51, 56, 64]",86201511561641,Ba1Ca1Gd1Sb1O6
BaCaTbSbO6,mp-1517107,3.3379999999999996,3.05151964,0.09059532500000067,"{56: 1, 20: 1, 65: 1, 51: 1, 8: 6}","[8, 20, 51, 56, 65]",86201511561651,Ba1Ca1Tb1Sb1O6
BaCaDySbO6,mp-1521128,3.3728,3.08757523,0.08522813350000202,"{56: 1, 20: 1, 66: 1, 51: 1, 8: 6}","[8, 20, 51, 56, 66]",86201511561661,Ba1Ca1Dy1Sb1O6
BaCaBiSbO6,mp-1522525,1.9940999999999995,4.14737043,0.05559655033333222,"{56: 1, 20: 1, 83: 1, 51: 1, 8: 6}","[8, 20, 51, 56, 83]",86201511561831,Ba1Ca1Bi1Sb1O6
Ba2CaTeO6,mp-550685,2.9976,3.0895686,0.0,"{56: 2, 20: 1, 52: 1, 8: 6}","[8, 20, 52, 56]",86201521562,Ba2Ca1Te1O6
BaCaLaBiO6,mp-1519241,1.9503999999999997,3.44019674,0.0,"{56: 1, 20: 1, 57: 1, 83: 1, 8: 6}","[8, 20, 56, 57, 83]",86201561571831,Ba1Ca1La1Bi1O6
BaCaCeHfO6,mp-1521543,2.1365000000000003,2.65786973,0.07890859450000143,"{56: 1, 20: 1, 58: 1, 72: 1, 8: 6}","[8, 20, 56, 58, 72]",86201561581721,Ba1Ca1Ce1Hf1O6
BaCaPrBiO6,mp-1523003,1.6029,2.1765874,0.029304279749998052,"{56: 1, 20: 1, 59: 1, 83: 1, 8: 6}","[8, 20, 56, 59, 83]",86201561591831,Ba1Ca1Pr1Bi1O6
BaCaNdBiO6,mp-1522982,1.6265999999999998,2.23661862,0.023599643500000766,"{56: 1, 20: 1, 60: 1, 83: 1, 8: 6}","[8, 20, 56, 60, 83]",86201561601831,Ba1Ca1Nd1Bi1O6
BaCaSmBiO6,mp-1516788,1.6736,2.14826929,0.014279233375011913,"{56: 1, 20: 1, 62: 1, 83: 1, 8: 6}","[8, 20, 56, 62, 83]",86201561621831,Ba1Ca1Sm1Bi1O6
BaCaEuWO6,mp-1520996,0.5857999999999999,4.78694099,0.0,"{56: 1, 20: 1, 63: 1, 74: 1, 8: 6}","[8, 20, 56, 63, 74]",86201561631741,Ba1Ca1Eu1W1O6
BaCaEuBiO6,mp-1516652,0.0,2.60567766,0.08822359991665785,"{56: 1, 20: 1, 63: 1, 83: 1, 8: 6}","[8, 20, 56, 63, 83]",86201561631831,Ba1Ca1Eu1Bi1O6
BaCaGdBiO6,mp-1523201,1.4407,2.31254035,0.0006821848749938297,"{56: 1, 20: 1, 64: 1, 83: 1, 8: 6}","[8, 20, 56, 64, 83]",86201561641831,Ba1Ca1Gd1Bi1O6
BaCaTbBiO6,mp-1518633,1.7212999999999998,2.36942647,0.0049422838437447325,"{56: 1, 20: 1, 65: 1, 83: 1, 8: 6}","[8, 20, 56, 65, 83]",86201561651831,Ba1Ca1Tb1Bi1O6
BaCaDyBiO6,mp-1520670,1.7884000000000002,2.2506655,0.0021097723749967656,"{56: 1, 20: 1, 66: 1, 83: 1, 8: 6}","[8, 20, 56, 66, 83]",86201561661831,Ba1Ca1Dy1Bi1O6