formula,material_id,band_gap,efermi,energy_above_hull,comp_atoms,sorted_keys_comp_atoms,comp_number,new_formula
Ba3Ta5O15,mp-15021,0.0,4.72274881,0.0,"{56: 3, 73: 5, 8: 15}","[8, 56, 73]",815563735,Ba3Ta5O15
Ba5Ta4O15,mp-504554,3.0865,2.08485409,0.0,"{56: 5, 73: 4, 8: 15}","[8, 56, 73]",815565734,Ba5Ta4O15
Ba5BiPb4O15,mp-1228896,0.0,3.86418689,0.0012791717999958152,"{56: 5, 83: 1, 82: 4, 8: 15}","[8, 56, 82, 83]",815565824831,Ba5Bi1Pb4O15
BaO,mp-1342,2.0906000000000002,1.72769767,0.0,"{56: 1, 8: 1}","[8, 56]",81561,Ba1O1
Ba3PbO,mp-29242,0.0,3.69506247,0.0,"{56: 3, 82: 1, 8: 1}","[8, 56, 82]",81563821,Ba3Pb1O1
Ba4Bi2O,mp-1228030,0.3278000000000003,2.95058836,0.0,"{56: 4, 83: 2, 8: 1}","[8, 56, 83]",81564832,Ba4Bi2O1
Ba6NaNd(SiO4)4,mp-1214692,3.6475999999999997,2.24312909,0.014229858244052984,"{56: 6, 11: 1, 60: 1, 14: 4, 8: 16}","[8, 11, 14, 56, 60]",816111144566601,Ba6Na1Nd1Si4O16
BaNa2Al4(SiO4)4,mp-6875,4.7346,1.18274757,0.0,"{56: 1, 11: 2, 13: 4, 14: 4, 8: 16}","[8, 11, 13, 14, 56]",816112134144561,Ba1Na2Al4Si4O16
BaMg14AlO16,mp-1036519,0.0,8.43892385,0.23987998264719046,"{56: 1, 12: 14, 13: 1, 8: 16}","[8, 12, 13, 56]",8161214131561,Ba1Mg14Al1O16
BaMg14SiO16,mp-1034729,0.4681000000000006,6.98375976,0.3374209258203136,"{56: 1, 12: 14, 14: 1, 8: 16}","[8, 12, 14, 56]",8161214141561,Ba1Mg14Si1O16
BaCaMg14O16,mp-1036305,0.8754,5.81943522,0.20123706281250087,"{56: 1, 20: 1, 12: 14, 8: 16}","[8, 12, 20, 56]",8161214201561,Ba1Ca1Mg14O16
BaMg14TiO16,mp-1034142,0.0,8.05913857,0.24678445507102342,"{56: 1, 12: 14, 22: 1, 8: 16}","[8, 12, 22, 56]",8161214221561,Ba1Mg14Ti1O16
BaMg14VO16,mp-1034473,0.8090999999999999,6.06330779,0.19717874910156397,"{56: 1, 12: 14, 23: 1, 8: 16}","[8, 12, 23, 56]",8161214231561,Ba1Mg14V1O16
BaMg14CrO16,mp-1034474,0.0,7.14358621,0.20264407502603898,"{56: 1, 12: 14, 24: 1, 8: 16}","[8, 12, 24, 56]",8161214241561,Ba1Mg14Cr1O16
BaMg14MnO16,mp-1036171,0.7568000000000001,5.9416118,0.18740264417968788,"{56: 1, 12: 14, 25: 1, 8: 16}","[8, 12, 25, 56]",8161214251561,Ba1Mg14Mn1O16
BaMg14FeO16,mp-1035662,0.9022999999999994,5.85183488,0.18761922292410826,"{56: 1, 12: 14, 26: 1, 8: 16}","[8, 12, 26, 56]",8161214261561,Ba1Mg14Fe1O16
BaMg14CoO16,mp-1035119,0.7773999999999992,5.92190585,0.18948429833333424,"{56: 1, 12: 14, 27: 1, 8: 16}","[8, 12, 27, 56]",8161214271561,Ba1Mg14Co1O16
BaMg14CuO16,mp-1035297,0.0,6.08368933,0.19485420453125002,"{56: 1, 12: 14, 29: 1, 8: 16}","[8, 12, 29, 56]",8161214291561,Ba1Mg14Cu1O16
BaMg14ZnO16,mp-1034964,0.9413,5.82246448,0.19067465489583402,"{56: 1, 12: 14, 30: 1, 8: 16}","[8, 12, 30, 56]",8161214301561,Ba1Mg14Zn1O16
BaYMg14O16,mp-1035885,0.0,7.90540195,0.24883081132812546,"{56: 1, 39: 1, 12: 14, 8: 16}","[8, 12, 39, 56]",8161214391561,Ba1Y1Mg14O16
BaMg14NbO16,mp-1034395,0.0,7.77389556,0.29089366924999904,"{56: 1, 12: 14, 41: 1, 8: 16}","[8, 12, 41, 56]",8161214411561,Ba1Mg14Nb1O16
BaMg14CdO16,mp-1033825,0.6337000000000002,5.70130112,0.20439629960937555,"{56: 1, 12: 14, 48: 1, 8: 16}","[8, 12, 48, 56]",8161214481561,Ba1Mg14Cd1O16
BaMg14SnO16,mp-1034311,0.2113000000000005,7.21752439,0.28278212632812494,"{56: 1, 12: 14, 50: 1, 8: 16}","[8, 12, 50, 56]",8161214501561,Ba1Mg14Sn1O16
BaHfMg14O16,mp-1033883,0.0,7.87771298,0.3104198242187506,"{56: 1, 72: 1, 12: 14, 8: 16}","[8, 12, 56, 72]",8161214561721,Ba1Hf1Mg14O16
BaMg14BiO16,mp-1033835,0.0,7.21861695,0.31746461578125107,"{56: 1, 12: 14, 83: 1, 8: 16}","[8, 12, 56, 83]",8161214561831,Ba1Mg14Bi1O16
Ba4MgTl8O16,mp-1234967,0.0,4.93333069,0.07773758287356003,"{56: 4, 12: 1, 81: 8, 8: 16}","[8, 12, 56, 81]",816121564818,Ba4Mg1Tl8O16
KBaAl3Si5O16,mp-677121,4.7151,1.19287945,0.00950291730769326,"{19: 1, 56: 1, 13: 3, 14: 5, 8: 16}","[8, 13, 14, 19, 56]",816133145191561,K1Ba1Al3Si5O16
BaMo4(PO8)2,mp-557147,1.7998000000000003,2.2057961,0.07776971152175882,"{56: 1, 42: 4, 15: 2, 8: 16}","[8, 15, 42, 56]",816152424561,Ba1Mo4P2O16
Ba2Ca(PO4)4,mp-1203389,0.012400000000000022,-0.15198136,0.17422587850544158,"{56: 2, 20: 1, 15: 4, 8: 16}","[8, 15, 20, 56]",816154201562,Ba2Ca1P4O16
BaMo2(PO4)4,mp-555876,2.1075,1.6058691,0.0036338768478323402,"{56: 1, 42: 2, 15: 4, 8: 16}","[8, 15, 42, 56]",816154422561,Ba1Mo2P4O16
Ba3In2(PO4)4,mp-1200796,3.7254,1.88242322,0.0,"{56: 3, 49: 2, 15: 4, 8: 16}","[8, 15, 49, 56]",816154492563,Ba3In2P4O16
Ba3Bi2(PO4)4,mp-555231,3.5656,1.93830896,0.0,"{56: 3, 83: 2, 15: 4, 8: 16}","[8, 15, 56, 83]",816154563832,Ba3Bi2P4O16
BaAu2(SO4)4,mp-1190864,1.7852999999999999,-0.72959665,0.0,"{56: 1, 79: 2, 16: 4, 8: 16}","[8, 16, 56, 79]",816164561792,Ba1Au2S4O16
Ba3Pb(SO4)4,mp-1228136,4.6277,1.42908363,0.0027908593749979005,"{56: 3, 82: 1, 16: 4, 8: 16}","[8, 16, 56, 82]",816164563821,Ba3Pb1S4O16
Ba6Mn4Co2ClO16,mp-1228260,0.26659999999999995,2.73458086,0.00885493636486423,"{56: 6, 25: 4, 27: 2, 17: 1, 8: 16}","[8, 17, 25, 27, 56]",816171254272566,Ba6Mn4Co2Cl1O16
KBa3Y2(Co3O8)2,mp-1223593,0.0,2.88251638,0.16108083867186807,"{19: 1, 56: 3, 39: 2, 27: 6, 8: 16}","[8, 19, 27, 39, 56]",816191276392563,K1Ba3Y2Co6O16
Ba4CaCu6(HgO8)2,mp-1379759,0.0,1.84554905,0.23767907322478,"{56: 4, 20: 1, 29: 6, 80: 2, 8: 16}","[8, 20, 29, 56, 80]",816201296564802,Ba4Ca1Cu6Hg2O16
BaTi8O16,mp-759489,0.0,4.83780785,0.0,"{56: 1, 22: 8, 8: 16}","[8, 22, 56]",816228561,Ba1Ti8O16
Ba3V2(SeO4)4,mp-1200758,2.6965000000000003,0.66916715,0.008125117099998747,"{56: 3, 23: 2, 34: 4, 8: 16}","[8, 23, 34, 56]",816232344563,Ba3V2Se4O16
BaV8O16,mp-756819,0.0,3.19153897,0.018261528850009867,"{56: 1, 23: 8, 8: 16}","[8, 23, 56]",816238561,Ba1V8O16
Ba6Mn5O16,mp-30895,1.2141000000000002,3.35697081,0.002201151172839033,"{56: 6, 25: 5, 8: 16}","[8, 25, 56]",816255566,Ba6Mn5O16
BaMn8O16,mp-1228782,0.7728999999999999,2.32863218,0.0,"{56: 1, 25: 8, 8: 16}","[8, 25, 56]",816258561,Ba1Mn8O16
Ba3Eu3(Fe3O8)2,mp-1229152,0.0,3.40227963,0.07289661858418128,"{56: 3, 63: 3, 26: 6, 8: 16}","[8, 26, 56, 63]",816266563633,Ba3Eu3Fe6O16
Ba3Nd3(Co3O8)2,mp-1228415,0.0,3.62370226,0.04245875866071103,"{56: 3, 60: 3, 27: 6, 8: 16}","[8, 27, 56, 60]",816276563603,Ba3Nd3Co6O16
BaNd2Cu(MoO4)4,mp-1214581,0.03799999999999981,3.8317042,0.045641992916683805,"{56: 1, 60: 2, 29: 1, 42: 4, 8: 16}","[8, 29, 42, 56, 60]",816291424561602,Ba1Nd2Cu1Mo4O16
Ba4PrY(CuO2)8,mp-1228147,0.0,3.13257997,0.018563893000000498,"{56: 4, 59: 1, 39: 1, 29: 8, 8: 16}","[8, 29, 39, 56, 59]",816298391564591,Ba4Pr1Y1Cu8O16
Ba4NdY(CuO2)8,mp-1228248,0.0,3.15373587,0.010192227499999262,"{56: 4, 60: 1, 39: 1, 29: 8, 8: 16}","[8, 29, 39, 56, 60]",816298391564601,Ba4Nd1Y1Cu8O16
Ba5La3(GaO4)4,mp-1228223,0.0,2.50212484,0.033921641339288655,"{56: 5, 57: 3, 31: 4, 8: 16}","[8, 31, 56, 57]",816314565573,Ba5La3Ga4O16
BaY2(MoO4)4,mp-1214357,3.3185,1.11255253,0.04241953750001315,"{56: 1, 39: 2, 42: 4, 8: 16}","[8, 39, 42, 56]",816392424561,Ba1Y2Mo4O16
Ba2Zr7O16,mp-769802,3.7062,2.21135111,0.026829974600001805,"{56: 2, 40: 7, 8: 16}","[8, 40, 56]",816407562,Ba2Zr7O16
BaNbI5O16,mp-1214520,2.8857999999999997,1.84251949,0.0008877290294924123,"{56: 1, 41: 1, 53: 5, 8: 16}","[8, 41, 53, 56]",816411535561,Ba1Nb1I5O16
BaNd2(MoO4)4,mp-622521,3.4405,0.97291428,0.004385510000012971,"{56: 1, 60: 2, 42: 4, 8: 16}","[8, 42, 56, 60]",816424561602,Ba1Nd2Mo4O16
BaSm2(MoO4)4,mp-1214393,3.3785,0.89866784,0.007538363695656969,"{56: 1, 62: 2, 42: 4, 8: 16}","[8, 42, 56, 62]",816424561622,Ba1Sm2Mo4O16
BaTb2(MoO4)4,mp-1214377,3.3313,1.09184558,0.022950297717406087,"{56: 1, 65: 2, 42: 4, 8: 16}","[8, 42, 56, 65]",816424561652,Ba1Tb2Mo4O16
BaTm2(MoO4)4,mp-1214443,3.2386,1.14045976,0.012302561195641104,"{56: 1, 69: 2, 42: 4, 8: 16}","[8, 42, 56, 69]",816424561692,Ba1Tm2Mo4O16
BaBi2(MoO4)4,mp-642792,3.0264000000000006,1.61135115,0.0,"{56: 1, 83: 2, 42: 4, 8: 16}","[8, 42, 56, 83]",816424561832,Ba1Bi2Mo4O16
Ba2SnO16,mp-1182572,0.19340000000000002,-0.12464703,0.36081644355263,"{56: 2, 50: 1, 8: 16}","[8, 50, 56]",816501562,Ba2Sn1O16
BaTa6O16,mp-769349,2.1822,1.86660427,0.0,"{56: 1, 73: 6, 8: 16}","[8, 56, 73]",816561736,Ba1Ta6O16
Ba2Hf7O16,mp-756180,4.0367,2.58700857,0.04468567129999634,"{56: 2, 72: 7, 8: 16}","[8, 56, 72]",816562727,Ba2Hf7O16
Ba5Re3O16,mp-698206,0.5103,0.92435224,0.0,"{56: 5, 75: 3, 8: 16}","[8, 56, 75]",816565753,Ba5Re3O16
Ba6Co6O16F,mp-1228594,0.0,2.3046433,0.027403153060338248,"{56: 6, 27: 6, 8: 16, 9: 1}","[8, 9, 27, 56]",81691276566,Ba6Co6O16F1
Ba6Na2Nb2P2O17,mp-556637,3.0126000000000004,2.21546857,0.0,"{56: 6, 11: 2, 41: 2, 15: 2, 8: 17}","[8, 11, 15, 41, 56]",817112152412566,Ba6Na2Nb2P2O17
Ba6Na2P2Ru2O17,mp-774691,0.0,3.58173345,0.0,"{56: 6, 11: 2, 15: 2, 44: 2, 8: 17}","[8, 11, 15, 44, 56]",817112152442566,Ba6Na2P2Ru2O17
Ba6Na2Nb2V2O17,mp-1228103,2.88,4.5408711,0.0,"{56: 6, 11: 2, 41: 2, 23: 2, 8: 17}","[8, 11, 23, 41, 56]",817112232412566,Ba6Na2Nb2V2O17
Ba6Na2V2Ru2O17,mp-19501,0.41449999999999987,2.70189126,0.0,"{56: 6, 11: 2, 23: 2, 44: 2, 8: 17}","[8, 11, 23, 44, 56]",817112232442566,Ba6Na2V2Ru2O17
Ba6Na2V2Sb2O17,mp-1214658,0.0,5.19106,0.0,"{56: 6, 11: 2, 23: 2, 51: 2, 8: 17}","[8, 11, 23, 51, 56]",817112232512566,Ba6Na2V2Sb2O17
Ba6Na2Ta2V2O17,mp-1214664,0.0,4.57209154,0.0,"{56: 6, 11: 2, 73: 2, 23: 2, 8: 17}","[8, 11, 23, 56, 73]",817112232566732,Ba6Na2Ta2V2O17
Ba6Na2Cr2Ru2O17,mp-559863,0.0,2.79320747,0.004265445328252682,"{56: 6, 11: 2, 24: 2, 44: 2, 8: 17}","[8, 11, 24, 44, 56]",817112242442566,Ba6Na2Cr2Ru2O17
Ba6Na2Mn2Nb2O17,mp-1214806,9.999999999976694e-05,3.2589145,0.0,"{56: 6, 11: 2, 25: 2, 41: 2, 8: 17}","[8, 11, 25, 41, 56]",817112252412566,Ba6Na2Mn2Nb2O17
Ba6Na2Mn2Ru2O17,mp-542399,0.3832,2.6909946,0.0,"{56: 6, 11: 2, 25: 2, 44: 2, 8: 17}","[8, 11, 25, 44, 56]",817112252442566,Ba6Na2Mn2Ru2O17
Ba6Na2Ta2Mn2O17,mp-1214895,0.00010000000000021103,3.31524058,0.0,"{56: 6, 11: 2, 73: 2, 25: 2, 8: 17}","[8, 11, 25, 56, 73]",817112252566732,Ba6Na2Ta2Mn2O17
Ba6Na2As2Ru2O17,mp-554687,0.3530000000000002,2.9014478,0.0,"{56: 6, 11: 2, 33: 2, 44: 2, 8: 17}","[8, 11, 33, 44, 56]",817112332442566,Ba6Na2As2Ru2O17
BaY4Si5O17,mp-1019546,4.8104,1.9329397,0.005184704660495143,"{56: 1, 39: 4, 14: 5, 8: 17}","[8, 14, 39, 56]",817145394561,Ba1Y4Si5O17
BaHo4Si5O17,mp-1195686,4.7703999999999995,1.79039786,0.0,"{56: 1, 67: 4, 14: 5, 8: 17}","[8, 14, 56, 67]",817145561674,Ba1Ho4Si5O17
BaEr4Si5O17,mp-1195598,4.782,1.80241387,0.0,"{56: 1, 68: 4, 14: 5, 8: 17}","[8, 14, 56, 68]",817145561684,Ba1Er4Si5O17
Ba3CaCuSi6O17,mp-1214671,1.1382000000000003,3.48255352,0.011626195148866536,"{56: 3, 20: 1, 29: 1, 14: 6, 8: 17}","[8, 14, 20, 29, 56]",817146201291563,Ba3Ca1Cu1Si6O17
Ba2Sb4P2O17,mp-554481,1.8893,2.18808698,0.002631699066666826,"{56: 2, 51: 4, 15: 2, 8: 17}","[8, 15, 51, 56]",817152514562,Ba2Sb4P2O17
BaTiCu4P4O17,mp-1195143,0.2743000000000002,2.70961239,0.0,"{56: 1, 22: 1, 29: 4, 15: 4, 8: 17}","[8, 15, 22, 29, 56]",817154221294561,Ba1Ti1Cu4P4O17
BaVCu4P4O17,mp-559899,0.005599999999999827,3.18351956,0.0,"{56: 1, 23: 1, 29: 4, 15: 4, 8: 17}","[8, 15, 23, 29, 56]",817154231294561,Ba1V1Cu4P4O17
BaV2P4O17,mp-728140,0.41100000000000003,1.1390961,0.1845060608333311,"{56: 1, 23: 2, 15: 4, 8: 17}","[8, 15, 23, 56]",817154232561,Ba1V2P4O17
Ba2P6O17,mp-772748,5.254700000000001,0.4313108,0.0017133787000265244,"{56: 2, 15: 6, 8: 17}","[8, 15, 56]",817156562,Ba2P6O17
Ba4Ca4Cu6Hg2O17,mp-1228265,0.0,2.75666478,0.06165741833334337,"{56: 4, 20: 4, 29: 6, 80: 2, 8: 17}","[8, 20, 29, 56, 80]",817204296564802,Ba4Ca4Cu6Hg2O17
Ba6Y2Ti4O17,mp-16663,2.6243,2.09923881,0.0,"{56: 6, 39: 2, 22: 4, 8: 17}","[8, 22, 39, 56]",817224392566,Ba6Y2Ti4O17
Ba6Nd2Ti4O17,mp-16662,2.6869000000000005,4.68238422,0.026612052758618887,"{56: 6, 60: 2, 22: 4, 8: 17}","[8, 22, 56, 60]",817224566602,Ba6Nd2Ti4O17
BaV10O17,mp-766481,0.6250999999999998,5.05928675,0.01887554569199068,"{56: 1, 23: 10, 8: 17}","[8, 23, 56]",8172310561,Ba1V10O17
Ba2VI5O17,mp-581324,2.6428999999999996,4.71783311,0.004907434050001491,"{56: 2, 23: 1, 53: 5, 8: 17}","[8, 23, 53, 56]",817231535562,Ba2V1I5O17
Ba4Mn2Ag2As4O17,mp-1228293,0.0,2.97317878,0.06586111020114238,"{56: 4, 25: 2, 47: 2, 33: 4, 8: 17}","[8, 25, 33, 47, 56]",817252334472564,Ba4Mn2Ag2As4O17
Ba3Co10O17,mp-562649,0.0,3.62788155,0.02132254716666715,"{56: 3, 27: 10, 8: 17}","[8, 27, 56]",8172710563,Ba3Co10O17
Ba3Nd3Co6O17,mp-1228468,0.0,3.73135616,0.06229970646551575,"{56: 3, 60: 3, 27: 6, 8: 17}","[8, 27, 56, 60]",817276563603,Ba3Nd3Co6O17
Ba4La4Co8O17,mp-1229302,0.0,5.45857456,0.13453871017676367,"{56: 4, 57: 4, 27: 8, 8: 17}","[8, 27, 56, 57]",817278564574,Ba4La4Co8O17
Ba4Y2Cu4W2O17,mp-741593,0.0,3.46854208,0.1419198356465543,"{56: 4, 39: 2, 29: 4, 74: 2, 8: 17}","[8, 29, 39, 56, 74]",817294392564742,Ba4Y2Cu4W2O17
Ba8Cu4Hg4O17,mp-1228271,0.0,1.87018157,0.050700696515153965,"{56: 8, 29: 4, 80: 4, 8: 17}","[8, 29, 56, 80]",817294568804,Ba8Cu4Hg4O17
Ba10Cu5O17,mp-766417,0.0,2.72562168,0.0056032223437485484,"{56: 10, 29: 5, 8: 17}","[8, 29, 56]",8172955610,Ba10Cu5O17
BaNb6O17,mp-1191444,1.1974,0.85056202,0.08456644836310012,"{56: 1, 41: 6, 8: 17}","[8, 41, 56]",817416561,Ba1Nb6O17
Ba8In6O17,mp-758269,0.7284999999999999,2.82633392,0.07231254274193777,"{56: 8, 49: 6, 8: 17}","[8, 49, 56]",817496568,Ba8In6O17
Ba6Bi6O17,mp-758088,0.0,4.27169176,0.050816186034482236,"{56: 6, 83: 6, 8: 17}","[8, 56, 83]",817566836,Ba6Bi6O17
Ba8Tl2Bi2Pb4O17,mp-677325,0.0,3.82252008,0.09264711227272393,"{56: 8, 81: 2, 83: 2, 82: 4, 8: 17}","[8, 56, 81, 82, 83]",817568812824832,Ba8Tl2Bi2Pb4O17
Ba8Bi4O17,mp-765612,1.0517999999999996,2.61171053,0.00912331333333416,"{56: 8, 83: 4, 8: 17}","[8, 56, 83]",817568834,Ba8Bi4O17
KBaNa2Ti3Fe(Si2O9)2,mp-1223630,2.6506999999999996,1.95165876,0.004915829124986004,"{19: 1, 56: 1, 11: 2, 22: 3, 26: 1, 14: 4, 8: 18}","[8, 11, 14, 19, 22, 26, 56]",818112144191223261561,K1Ba1Na2Ti3Fe1Si4O18
BaNa2(Ge4O9)2,mp-1215058,3.0289,0.89999132,0.01467329764368408,"{56: 1, 11: 2, 32: 8, 8: 18}","[8, 11, 32, 56]",818112328561,Ba1Na2Ge8O18
Ba6MgCo2(Sb2O9)2,mp-1233616,1.2958000000000003,3.8656577,0.13104552733871344,"{56: 6, 12: 1, 27: 2, 51: 4, 8: 18}","[8, 12, 27, 51, 56]",818121272514566,Ba6Mg1Co2Sb4O18
Ba6Pr2Mg(Ru2O9)2,mp-1233334,0.0,3.93532727,0.09902109288979144,"{56: 6, 59: 2, 12: 1, 44: 4, 8: 18}","[8, 12, 44, 56, 59]",818121444566592,Ba6Pr2Mg1Ru4O18
Ba6Mg(IrO3)6,mp-1234911,0.0,4.29236543,0.1288147109475819,"{56: 6, 12: 1, 77: 6, 8: 18}","[8, 12, 56, 77]",818121566776,Ba6Mg1Ir6O18
Ba2Si3Ge5O18,mp-1228626,3.2348,1.29061746,0.018465737410731542,"{56: 2, 14: 3, 32: 5, 8: 18}","[8, 14, 32, 56]",818143325562,Ba2Si3Ge5O18
Ba2CaV2(P2O9)2,mp-1363137,1.9504000000000001,3.03464827,0.01744950384258903,"{56: 2, 20: 1, 23: 2, 15: 4, 8: 18}","[8, 15, 20, 23, 56]",818154201232562,Ba2Ca1V2P4O18
Ba2Fe3(P2O9)2,mp-1196377,0.001000000000000112,1.7346007,0.13612722745370487,"{56: 2, 26: 3, 15: 4, 8: 18}","[8, 15, 26, 56]",818154263562,Ba2Fe3P4O18
Ba3Nb2(P2O9)2,mp-554886,3.1376,0.59764984,0.0005124412384258648,"{56: 3, 41: 2, 15: 4, 8: 18}","[8, 15, 41, 56]",818154412563,Ba3Nb2P4O18
Ba3Mo2(P2O9)2,mp-554339,2.384,1.60079848,0.0,"{56: 3, 42: 2, 15: 4, 8: 18}","[8, 15, 42, 56]",818154422563,Ba3Mo2P4O18
Ba2Cu(PO3)6,mp-558012,1.1062,1.32963239,0.0,"{56: 2, 29: 1, 15: 6, 8: 18}","[8, 15, 29, 56]",818156291562,Ba2Cu1P6O18
Cs4Ba(PO3)6,mp-560944,5.106400000000001,-0.19105236,0.0,"{55: 4, 56: 1, 15: 6, 8: 18}","[8, 15, 55, 56]",818156554561,Cs4Ba1P6O18
Ba4Os6ClO18,mp-561099,0.0,3.48155582,0.0,"{56: 4, 76: 6, 17: 1, 8: 18}","[8, 17, 56, 76]",818171564766,Ba4Os6Cl1O18
Ba10Ru3W(Cl2O9)2,mp-1228911,0.06059999999999999,2.66161768,0.05133475557870515,"{56: 10, 44: 3, 74: 1, 17: 4, 8: 18}","[8, 17, 44, 56, 74]",8181744435610741,Ba10Ru3W1Cl4O18
KBaV5O18,mp-1181733,1.4374,-0.32918509,0.30685995873334715,"{19: 1, 56: 1, 23: 5, 8: 18}","[8, 19, 23, 56]",818191235561,K1Ba1V5O18
K2Ba(Ge4O9)2,mp-662803,3.4758000000000004,0.61644488,0.003954998184859448,"{19: 2, 56: 1, 32: 8, 8: 18}","[8, 19, 32, 56]",818192328561,K2Ba1Ge8O18
K4BaV6O18,mp-1203528,3.0658,1.6576184,0.0014296401724127605,"{19: 4, 56: 1, 23: 6, 8: 18}","[8, 19, 23, 56]",818194236561,K4Ba1V6O18
Ba6Ca2Ir3RuO18,mp-1228306,0.0,3.49216271,0.0,"{56: 6, 20: 2, 77: 3, 44: 1, 8: 18}","[8, 20, 44, 56, 77]",818202441566773,Ba6Ca2Ir3Ru1O18
Ba6Ca2Ta(RuO6)3,mp-1228145,0.0,3.31293366,0.0,"{56: 6, 20: 2, 73: 1, 44: 3, 8: 18}","[8, 20, 44, 56, 73]",818202443566731,Ba6Ca2Ta1Ru3O18
BaCa2Tm10O18,mp-1228990,2.7318999999999996,1.6950581,0.053143472177405116,"{56: 1, 20: 2, 69: 10, 8: 18}","[8, 20, 56, 69]",8182025616910,Ba1Ca2Tm10O18
Ba8Sc3(Pt2O9)2,mp-1214448,0.0,3.20544955,0.0,"{56: 8, 21: 3, 78: 4, 8: 18}","[8, 21, 56, 78]",818213568784,Ba8Sc3Pt4O18
BaLa5TiCr5O18,mp-694922,1.9947,6.1185949,0.02729300025000647,"{56: 1, 57: 5, 22: 1, 24: 5, 8: 18}","[8, 22, 24, 56, 57]",818221245561575,Ba1La5Ti1Cr5O18
Ba4TiNb9O18,mp-1228214,0.0,5.28714328,0.004015047120518034,"{56: 4, 22: 1, 41: 9, 8: 18}","[8, 22, 41, 56]",818221419564,Ba4Ti1Nb9O18
BaTi(IO3)6,mp-1227524,2.7339,4.80102637,0.0,"{56: 1, 22: 1, 53: 6, 8: 18}","[8, 22, 53, 56]",818221536561,Ba1Ti1I6O18
Ba3Ti3Fe3(BiO9)2,mp-1228452,0.0,2.93522558,0.1306128771982733,"{56: 3, 22: 3, 26: 3, 83: 2, 8: 18}","[8, 22, 26, 56, 83]",818223263563832,Ba3Ti3Fe3Bi2O18
Ba4La2Ti3Nb2O18,mp-684815,2.1891000000000003,3.64584786,0.04211580235631729,"{56: 4, 57: 2, 22: 3, 41: 2, 8: 18}","[8, 22, 41, 56, 57]",818223412564572,Ba4La2Ti3Nb2O18
Ba2Ti3Nb4O18,mp-1228588,2.5979,4.18891038,0.002028806018527618,"{56: 2, 22: 3, 41: 4, 8: 18}","[8, 22, 41, 56]",818223414562,Ba2Ti3Nb4O18
Ba3La3Ti4NbO18,mp-677222,2.4082999999999997,4.23323822,0.06611368922413874,"{56: 3, 57: 3, 22: 4, 41: 1, 8: 18}","[8, 22, 41, 56, 57]",818224411563573,Ba3La3Ti4Nb1O18
Ba2La4Ti5O18,mp-1228650,2.3756000000000004,7.3727727,0.08011087965518016,"{56: 2, 57: 4, 22: 5, 8: 18}","[8, 22, 56, 57]",818225562574,Ba2La4Ti5O18
Ba2Ti5(Bi2O9)2,mp-1228482,1.3552999999999997,4.55080684,0.06880080017242562,"{56: 2, 22: 5, 83: 4, 8: 18}","[8, 22, 56, 83]",818225562834,Ba2Ti5Bi4O18
Ba6Ti5PtO18,mp-1228124,2.0101,3.12908118,0.0,"{56: 6, 22: 5, 78: 1, 8: 18}","[8, 22, 56, 78]",818225566781,Ba6Ti5Pt1O18
BaV13O18,mp-510249,0.0,5.45498595,0.04058546113281203,"{56: 1, 23: 13, 8: 18}","[8, 23, 56]",8182313561,Ba1V13O18
Rb4BaV6O18,mp-1196343,3.0652,-1.0956026,0.0,"{37: 4, 56: 1, 23: 6, 8: 18}","[8, 23, 37, 56]",818236374561,Rb4Ba1V6O18
Cs4BaV6O18,mp-1198646,3.0382,-1.05841999,0.0,"{55: 4, 56: 1, 23: 6, 8: 18}","[8, 23, 55, 56]",818236554561,Cs4Ba1V6O18
Ba3La3Mn2(WO6)3,mp-684803,1.4413999999999998,5.42036157,0.11743612172990225,"{56: 3, 57: 3, 25: 2, 74: 3, 8: 18}","[8, 25, 56, 57, 74]",818252563573743,Ba3La3Mn2W3O18
Ba2Mn3(SeO3)6,mp-560955,0.9861,1.50959309,0.0,"{56: 2, 25: 3, 34: 6, 8: 18}","[8, 25, 34, 56]",818253346562,Ba2Mn3Se6O18
Ba2La4Mn5SnO18,mp-743694,0.0,6.06060008,0.16313584141111193,"{56: 2, 57: 4, 25: 5, 50: 1, 8: 18}","[8, 25, 50, 56, 57]",818255501562574,Ba2La4Mn5Sn1O18
Ba3La5Tl2(Cu2O9)2,mp-1228600,0.0,5.65263963,0.0511791485112818,"{56: 3, 57: 5, 81: 2, 29: 4, 8: 18}","[8, 29, 56, 57, 81]",818294563575812,Ba3La5Tl2Cu4O18
Ba4CeEu3Tl2(Cu2O9)2,mp-1228697,0.0,3.25793226,0.03898581660156175,"{56: 4, 58: 1, 63: 3, 81: 2, 29: 4, 8: 18}","[8, 29, 56, 58, 63, 81]",818294564581633812,Ba4Ce1Eu3Tl2Cu4O18
Rb2Ba(Ge4O9)2,mp-1210469,2.9965,0.94899778,0.0014222118965543373,"{37: 2, 56: 1, 32: 8, 8: 18}","[8, 32, 37, 56]",818328372561,Rb2Ba1Ge8O18
Ba8Ta2Ru3(BrO9)2,mp-1228432,0.03799999999999981,3.21180968,0.014514632609397005,"{56: 8, 73: 2, 44: 3, 35: 2, 8: 18}","[8, 35, 44, 56, 73]",818352443568732,Ba8Ta2Ru3Br2O18
Ba6Nd2Y(MoO6)3,mp-1228132,1.1591000000000005,3.37432628,0.0,"{56: 6, 60: 2, 39: 1, 42: 3, 8: 18}","[8, 39, 42, 56, 60]",818391423566602,Ba6Nd2Y1Mo3O18
Ba6Y(ReO6)3,mp-1228593,1.9671,1.91862081,0.0,"{56: 6, 39: 1, 75: 3, 8: 18}","[8, 39, 56, 75]",818391566753,Ba6Y1Re3O18
Ba6Y2Ru3PtO18,mp-1228458,0.0,3.59297061,0.0,"{56: 6, 39: 2, 44: 3, 78: 1, 8: 18}","[8, 39, 44, 56, 78]",818392443566781,Ba6Y2Ru3Pt1O18
Ba4ZrNb9O18,mp-1228044,0.0,5.23552873,0.0016599534374925895,"{56: 4, 40: 1, 41: 9, 8: 18}","[8, 40, 41, 56]",818401419564,Ba4Zr1Nb9O18
Ba6Tb3Nb(SnO9)2,mp-686370,0.0,2.51871244,0.08348206040277173,"{56: 6, 65: 3, 41: 1, 50: 2, 8: 18}","[8, 41, 50, 56, 65]",818411502566653,Ba6Tb3Nb1Sn2O18