formula,material_id,band_gap,efermi,energy_above_hull,comp_atoms,sorted_keys_comp_atoms,comp_number,new_formula
BaCaHfWO6,mp-1521252,0.0,4.83046982,0.18093793074999454,"{56: 1, 20: 1, 72: 1, 74: 1, 8: 6}","[8, 20, 56, 72, 74]",86201561721741,Ba1Ca1Hf1W1O6
Ba2CaWO6,mp-19098,3.2912,2.01791139,0.0,"{56: 2, 20: 1, 74: 1, 8: 6}","[8, 20, 56, 74]",86201562741,Ba2Ca1W1O6
Ba2CaReO6,mp-12417,0.0,4.26474799,0.0,"{56: 2, 20: 1, 75: 1, 8: 6}","[8, 20, 56, 75]",86201562751,Ba2Ca1Re1O6
Ba2CaOsO6,mp-6739,0.0,3.84737387,0.0,"{56: 2, 20: 1, 76: 1, 8: 6}","[8, 20, 56, 76]",86201562761,Ba2Ca1Os1O6
Ba2CaIrO6,mp-20841,0.0,3.11586827,0.0,"{56: 2, 20: 1, 77: 1, 8: 6}","[8, 20, 56, 77]",86201562771,Ba2Ca1Ir1O6
Ba2CaBiO6,mp-1214698,0.0,1.97212292,0.027547720499995876,"{56: 2, 20: 1, 83: 1, 8: 6}","[8, 20, 56, 83]",86201562831,Ba2Ca1Bi1O6
Ba2CaUO6,mp-557448,2.1948,2.66130363,0.0,"{56: 2, 20: 1, 92: 1, 8: 6}","[8, 20, 56, 92]",86201562921,Ba2Ca1U1O6
Ba2ScNbO6,mp-1206644,2.5719,2.56760146,0.0,"{56: 2, 21: 1, 41: 1, 8: 6}","[8, 21, 41, 56]",86211411562,Ba2Sc1Nb1O6
Ba2ScSbO6,mp-20709,0.0,1.48012746,2.1964557034374987,"{56: 2, 21: 1, 51: 1, 8: 6}","[8, 21, 51, 56]",86211511562,Ba2Sc1Sb1O6
Ba2ScTaO6,mp-1205823,3.0173000000000005,2.5924067,0.0,"{56: 2, 21: 1, 73: 1, 8: 6}","[8, 21, 56, 73]",86211562731,Ba2Sc1Ta1O6
Ba2ScReO6,mp-1206861,0.0,4.86792676,0.0,"{56: 2, 21: 1, 75: 1, 8: 6}","[8, 21, 56, 75]",86211562751,Ba2Sc1Re1O6
Ba2ScOsO6,mp-1205674,0.0,4.15776542,0.0,"{56: 2, 21: 1, 76: 1, 8: 6}","[8, 21, 56, 76]",86211562761,Ba2Sc1Os1O6
Ba2ScIrO6,mp-10302,0.0,3.85097397,0.0,"{56: 2, 21: 1, 77: 1, 8: 6}","[8, 21, 56, 77]",86211562771,Ba2Sc1Ir1O6
Ba2ScPaO6,mp-1206567,3.3981000000000003,6.51050472,0.0,"{56: 2, 21: 1, 91: 1, 8: 6}","[8, 21, 56, 91]",86211562911,Ba2Sc1Pa1O6
Ba2ScUO6,mp-1206763,0.8326000000000002,5.51146835,0.0,"{56: 2, 21: 1, 92: 1, 8: 6}","[8, 21, 56, 92]",86211562921,Ba2Sc1U1O6
BaLaTiCrO6,mp-39208,1.2249999999999996,5.2361718,0.04706258599999913,"{56: 1, 57: 1, 22: 1, 24: 1, 8: 6}","[8, 22, 24, 56, 57]",86221241561571,Ba1La1Ti1Cr1O6
BaTiMnNbO6,mp-1516399,0.0,5.26490077,0.19567799840559452,"{56: 1, 22: 1, 25: 1, 41: 1, 8: 6}","[8, 22, 25, 41, 56]",86221251411561,Ba1Ti1Mn1Nb1O6
BaTiMnBiO6,mp-1227378,0.0,5.17913995,0.16815272154998873,"{56: 1, 22: 1, 25: 1, 83: 1, 8: 6}","[8, 22, 25, 56, 83]",86221251561831,Ba1Ti1Mn1Bi1O6
Ba2TiMnO6,mp-1228358,1.1587999999999998,2.69600923,0.019383723583304757,"{56: 2, 22: 1, 25: 1, 8: 6}","[8, 22, 25, 56]",86221251562,Ba2Ti1Mn1O6
BaLaTiFeO6,mp-1227842,1.7837999999999994,4.79361584,0.05997185849999909,"{56: 1, 57: 1, 22: 1, 26: 1, 8: 6}","[8, 22, 26, 56, 57]",86221261561571,Ba1La1Ti1Fe1O6
Ba2TiFeO6,mp-1228536,0.0,2.6110462,0.015144188583328777,"{56: 2, 22: 1, 26: 1, 8: 6}","[8, 22, 26, 56]",86221261562,Ba2Ti1Fe1O6
BaLaTiCuO6,mp-695277,0.0,5.28708766,0.036417570549992284,"{56: 1, 57: 1, 22: 1, 29: 1, 8: 6}","[8, 22, 29, 56, 57]",86221291561571,Ba1La1Ti1Cu1O6
BaTiNbGaO6,mp-1522797,0.6275000000000004,3.3412293,0.14138981532607708,"{56: 1, 22: 1, 41: 1, 31: 1, 8: 6}","[8, 22, 31, 41, 56]",86221311411561,Ba1Ti1Nb1Ga1O6
BaZrTiInO6,mp-1517256,0.0,3.99260354,0.1986048899444448,"{56: 1, 40: 1, 22: 1, 49: 1, 8: 6}","[8, 22, 40, 49, 56]",86221401491561,Ba1Zr1Ti1In1O6
BaZrTiPbO6,mp-1227484,1.5482,4.96315819,0.03234282440625158,"{56: 1, 40: 1, 22: 1, 82: 1, 8: 6}","[8, 22, 40, 56, 82]",86221401561821,Ba1Zr1Ti1Pb1O6
Ba2ZrTiO6,mp-1078457,2.2161,2.67972767,0.004841601999968859,"{56: 2, 40: 1, 22: 1, 8: 6}","[8, 22, 40, 56]",86221401562,Ba2Zr1Ti1O6
BaHfTiInO6,mp-1522487,0.0,4.23760113,0.19047073381944202,"{56: 1, 72: 1, 22: 1, 49: 1, 8: 6}","[8, 22, 49, 56, 72]",86221491561721,Ba1Hf1Ti1In1O6
BaPrDyTiO6,mp-1522037,2.6390000000000002,2.8103538,0.19123257525000703,"{56: 1, 59: 1, 66: 1, 22: 1, 8: 6}","[8, 22, 56, 59, 66]",86221561591661,Ba1Pr1Dy1Ti1O6
BaEuTiBiO6,mp-1518512,0.0,4.02830078,0.18684523150000132,"{56: 1, 63: 1, 22: 1, 83: 1, 8: 6}","[8, 22, 56, 63, 83]",86221561631831,Ba1Eu1Ti1Bi1O6
BaUTiO6,mp-560110,1.6853000000000002,2.08057416,0.0,"{56: 1, 92: 1, 22: 1, 8: 6}","[8, 22, 56, 92]",86221561921,Ba1U1Ti1O6
Ba2PrTiO6,mp-1520146,0.0,1.95949806,0.10926502009376637,"{56: 2, 59: 1, 22: 1, 8: 6}","[8, 22, 56, 59]",86221562591,Ba2Pr1Ti1O6
Ba2UTiO6,mp-1205557,0.0,6.29791965,0.0,"{56: 2, 92: 1, 22: 1, 8: 6}","[8, 22, 56, 92]",86221562921,Ba2U1Ti1O6
Ba2PuTiO6,mp-1206179,0.2333999999999996,5.74414864,0.02554991049999522,"{56: 2, 94: 1, 22: 1, 8: 6}","[8, 22, 56, 94]",86221562941,Ba2Pu1Ti1O6
BaTi2TlO6,mp-1048072,0.0,3.85124667,0.4073681948125163,"{56: 1, 22: 2, 81: 1, 8: 6}","[8, 22, 56, 81]",86222561811,Ba1Ti2Tl1O6
Ba2VFeO6,mp-1096782,1.0389,2.87050678,0.10079025249999063,"{56: 2, 23: 1, 26: 1, 8: 6}","[8, 23, 26, 56]",86231261562,Ba2V1Fe1O6
BaVAsO6,mp-17264,2.6697,0.50343832,0.0,"{56: 1, 23: 1, 33: 1, 8: 6}","[8, 23, 33, 56]",86231331561,Ba1V1As1O6
BaEuYVO6,mp-1521291,0.06920000000000037,4.0924625,0.17235300703976186,"{56: 1, 63: 1, 39: 1, 23: 1, 8: 6}","[8, 23, 39, 56, 63]",86231391561631,Ba1Eu1Y1V1O6
Ba2NbVO6,mp-1078969,0.0,4.04535521,0.0,"{56: 2, 41: 1, 23: 1, 8: 6}","[8, 23, 41, 56]",86231411562,Ba2Nb1V1O6
Ba2VMoO6,mp-1079477,0.40029999999999966,4.26350089,0.08307170624999927,"{56: 2, 23: 1, 42: 1, 8: 6}","[8, 23, 42, 56]",86231421562,Ba2V1Mo1O6
BaVInWO6,mp-1518364,0.0,4.73265616,0.16324198947321378,"{56: 1, 23: 1, 49: 1, 74: 1, 8: 6}","[8, 23, 49, 56, 74]",86231491561741,Ba1V1In1W1O6
BaEuVSnO6,mp-1522177,0.0,5.14490468,0.1495800206041693,"{56: 1, 63: 1, 23: 1, 50: 1, 8: 6}","[8, 23, 50, 56, 63]",86231501561631,Ba1Eu1V1Sn1O6
BaNdEuVO6,mp-1522737,0.0,3.70375746,0.18711275897498858,"{56: 1, 60: 1, 63: 1, 23: 1, 8: 6}","[8, 23, 56, 60, 63]",86231561601631,Ba1Nd1Eu1V1O6
BaSmEuVO6,mp-1516301,0.0,3.25558038,0.19804937288750324,"{56: 1, 62: 1, 63: 1, 23: 1, 8: 6}","[8, 23, 56, 62, 63]",86231561621631,Ba1Sm1Eu1V1O6
BaTbEuVO6,mp-1520472,0.03279999999999994,4.04236224,0.17722723576703459,"{56: 1, 65: 1, 63: 1, 23: 1, 8: 6}","[8, 23, 56, 63, 65]",86231561631651,Ba1Tb1Eu1V1O6
BaEuDyVO6,mp-1516727,0.0907,3.41436751,0.2002126984545356,"{56: 1, 63: 1, 66: 1, 23: 1, 8: 6}","[8, 23, 56, 63, 66]",86231561631661,Ba1Eu1Dy1V1O6
BaEuVBiO6,mp-1521044,0.1335999999999995,5.03888605,0.2489167191875028,"{56: 1, 63: 1, 23: 1, 83: 1, 8: 6}","[8, 23, 56, 63, 83]",86231561631831,Ba1Eu1V1Bi1O6
Ba2LaVO6,mp-1517555,1.7140000000000004,3.32597726,0.13147416925000055,"{56: 2, 57: 1, 23: 1, 8: 6}","[8, 23, 56, 57]",86231562571,Ba2La1V1O6
Ba2CeVO6,mp-1517324,0.0,4.65443213,0.07855742436668223,"{56: 2, 58: 1, 23: 1, 8: 6}","[8, 23, 56, 58]",86231562581,Ba2Ce1V1O6
Ba2PrVO6,mp-1519938,1.6605000000000003,2.42179151,0.11908922850000092,"{56: 2, 59: 1, 23: 1, 8: 6}","[8, 23, 56, 59]",86231562591,Ba2Pr1V1O6
Ba2NdVO6,mp-1520908,1.6381000000000001,2.34848587,0.11058782862500127,"{56: 2, 60: 1, 23: 1, 8: 6}","[8, 23, 56, 60]",86231562601,Ba2Nd1V1O6
Ba2SmVO6,mp-1517570,1.6332,2.36698151,0.09727686237499977,"{56: 2, 62: 1, 23: 1, 8: 6}","[8, 23, 56, 62]",86231562621,Ba2Sm1V1O6
Ba2EuVO6,mp-1519613,0.0,2.59119692,0.17086800350000075,"{56: 2, 63: 1, 23: 1, 8: 6}","[8, 23, 56, 63]",86231562631,Ba2Eu1V1O6
Ba2VBiO6,mp-1522771,1.1225,3.89477265,0.13424026537500477,"{56: 2, 23: 1, 83: 1, 8: 6}","[8, 23, 56, 83]",86231562831,Ba2V1Bi1O6
BaV2O6,mp-18929,2.6466000000000003,-0.53980682,0.0,"{56: 1, 23: 2, 8: 6}","[8, 23, 56]",86232561,Ba1V2O6
BaTlV2O6,mp-1046784,0.0,2.90465335,0.485369097250004,"{56: 1, 81: 1, 23: 2, 8: 6}","[8, 23, 56, 81]",86232561811,Ba1Tl1V2O6
BaGdCrFeO6,mp-1518724,0.0,0.75992357,0.0,"{56: 1, 64: 1, 24: 1, 26: 1, 8: 6}","[8, 24, 26, 56, 64]",86241261561641,Ba1Gd1Cr1Fe1O6
BaEuYCrO6,mp-1517793,0.0,2.78065776,0.2677953502500028,"{56: 1, 63: 1, 39: 1, 24: 1, 8: 6}","[8, 24, 39, 56, 63]",86241391561631,Ba1Eu1Y1Cr1O6
BaLaNbCrO6,mp-1227851,0.0,7.2634017,0.12702526201667652,"{56: 1, 57: 1, 41: 1, 24: 1, 8: 6}","[8, 24, 41, 56, 57]",86241411561571,Ba1La1Nb1Cr1O6
Ba2NbCrO6,mp-31627,1.5823999999999998,3.08043571,0.0,"{56: 2, 41: 1, 24: 1, 8: 6}","[8, 24, 41, 56]",86241411562,Ba2Nb1Cr1O6
BaNb2CrO6,mp-1519828,0.0,4.71783707,0.17137399124996833,"{56: 1, 41: 2, 24: 1, 8: 6}","[8, 24, 41, 56]",86241412561,Ba1Nb2Cr1O6
BaLaCrMoO6,mp-1229299,0.0,6.18096498,0.1362500902857171,"{56: 1, 57: 1, 24: 1, 42: 1, 8: 6}","[8, 24, 42, 56, 57]",86241421561571,Ba1La1Cr1Mo1O6
Ba2CrMoO6,mp-1079901,0.0,4.55503504,0.0,"{56: 2, 24: 1, 42: 1, 8: 6}","[8, 24, 42, 56]",86241421562,Ba2Cr1Mo1O6
BaCrInWO6,mp-1519687,0.18240000000000034,5.28768886,0.17029399758334485,"{56: 1, 24: 1, 49: 1, 74: 1, 8: 6}","[8, 24, 49, 56, 74]",86241491561741,Ba1Cr1In1W1O6
BaNdCrSnO6,mp-1517440,1.9219999999999997,4.31656726,0.15402848275000203,"{56: 1, 60: 1, 24: 1, 50: 1, 8: 6}","[8, 24, 50, 56, 60]",86241501561601,Ba1Nd1Cr1Sn1O6
BaSmCrSnO6,mp-1517794,1.9596999999999998,4.36634321,0.19115278975000116,"{56: 1, 62: 1, 24: 1, 50: 1, 8: 6}","[8, 24, 50, 56, 62]",86241501561621,Ba1Sm1Cr1Sn1O6
BaEuCrSnO6,mp-1522613,0.0,3.6882733,0.17858592450000188,"{56: 1, 63: 1, 24: 1, 50: 1, 8: 6}","[8, 24, 50, 56, 63]",86241501561631,Ba1Eu1Cr1Sn1O6
BaCrSnBiO6,mp-1518013,0.9540999999999995,4.96239806,0.16322083350000494,"{56: 1, 24: 1, 50: 1, 83: 1, 8: 6}","[8, 24, 50, 56, 83]",86241501561831,Ba1Cr1Sn1Bi1O6
Ba2CrSnO6,mp-1521461,0.0,3.45938813,0.10044754731251082,"{56: 2, 24: 1, 50: 1, 8: 6}","[8, 24, 50, 56]",86241501562,Ba2Cr1Sn1O6
BaCeEuCrO6,mp-1517518,0.0,3.61366111,0.23218546762500125,"{56: 1, 58: 1, 63: 1, 24: 1, 8: 6}","[8, 24, 56, 58, 63]",86241561581631,Ba1Ce1Eu1Cr1O6
BaEuCrBiO6,mp-1522588,0.0,4.22877134,0.23790122431250182,"{56: 1, 63: 1, 24: 1, 83: 1, 8: 6}","[8, 24, 56, 63, 83]",86241561631831,Ba1Eu1Cr1Bi1O6
Ba2LaCrO6,mp-1522286,0.47829999999999995,3.38007449,0.14334909900000437,"{56: 2, 57: 1, 24: 1, 8: 6}","[8, 24, 56, 57]",86241562571,Ba2La1Cr1O6
Ba2CeCrO6,mp-1519270,0.0,3.19060571,0.0764544283124966,"{56: 2, 58: 1, 24: 1, 8: 6}","[8, 24, 56, 58]",86241562581,Ba2Ce1Cr1O6
Ba2SmCrO6,mp-1523051,0.0,2.42744721,0.13243274687500328,"{56: 2, 62: 1, 24: 1, 8: 6}","[8, 24, 56, 62]",86241562621,Ba2Sm1Cr1O6
Ba2EuCrO6,mp-1522649,0.0,2.37857725,0.1721946902499898,"{56: 2, 63: 1, 24: 1, 8: 6}","[8, 24, 56, 63]",86241562631,Ba2Eu1Cr1O6
Ba2TaCrO6,mp-31630,0.5778000000000008,4.59687222,0.0,"{56: 2, 73: 1, 24: 1, 8: 6}","[8, 24, 56, 73]",86241562731,Ba2Ta1Cr1O6
Ba2CrBiO6,mp-1519532,0.03929999999999989,3.11613353,0.08904648387500824,"{56: 2, 24: 1, 83: 1, 8: 6}","[8, 24, 56, 83]",86241562831,Ba2Cr1Bi1O6
Ba2UCrO6,mp-1205611,0.9356999999999998,5.55244755,0.0,"{56: 2, 92: 1, 24: 1, 8: 6}","[8, 24, 56, 92]",86241562921,Ba2U1Cr1O6
BaNdMnCoO6,mp-1227874,0.0,3.37419788,0.06748134914997017,"{56: 1, 60: 1, 25: 1, 27: 1, 8: 6}","[8, 25, 27, 56, 60]",86251271561601,Ba1Nd1Mn1Co1O6
Ba2MnNbO6,mp-1272179,1.1627999999999998,2.67334604,0.0045535961666640645,"{56: 2, 25: 1, 41: 1, 8: 6}","[8, 25, 41, 56]",86251411562,Ba2Mn1Nb1O6
BaMnNb2O6,mp-1523372,0.0,5.10002396,0.1957848394959445,"{56: 1, 25: 1, 41: 2, 8: 6}","[8, 25, 41, 56]",86251412561,Ba1Mn1Nb2O6
BaLaMnMoO6,mp-40356,0.38239999999999963,6.40696852,0.1936459758288276,"{56: 1, 57: 1, 25: 1, 42: 1, 8: 6}","[8, 25, 42, 56, 57]",86251421561571,Ba1La1Mn1Mo1O6
Ba2MnMoO6,mp-20399,1.2653999999999996,3.64419988,0.0,"{56: 2, 25: 1, 42: 1, 8: 6}","[8, 25, 42, 56]",86251421562,Ba2Mn1Mo1O6
BaLaMnRuO6,mp-1272796,0.32099999999999973,5.13726501,0.12358909646665417,"{56: 1, 57: 1, 25: 1, 44: 1, 8: 6}","[8, 25, 44, 56, 57]",86251441561571,Ba1La1Mn1Ru1O6
Ba2MnRuO6,mp-1228678,0.0,3.30837144,0.022915608583330638,"{56: 2, 25: 1, 44: 1, 8: 6}","[8, 25, 44, 56]",86251441562,Ba2Mn1Ru1O6
BaLaMnInO6,mp-697820,0.0,4.44441813,0.11997581169166427,"{56: 1, 57: 1, 25: 1, 49: 1, 8: 6}","[8, 25, 49, 56, 57]",86251491561571,Ba1La1Mn1In1O6
BaMnInWO6,mp-1523111,0.0,3.92463576,0.1948055922500025,"{56: 1, 25: 1, 49: 1, 74: 1, 8: 6}","[8, 25, 49, 56, 74]",86251491561741,Ba1Mn1In1W1O6
BaLaMnSnO6,mp-1227906,0.0,5.93986101,0.12444327091665208,"{56: 1, 57: 1, 25: 1, 50: 1, 8: 6}","[8, 25, 50, 56, 57]",86251501561571,Ba1La1Mn1Sn1O6
BaNdMnSnO6,mp-1521256,0.0,5.24127553,0.17004564699999847,"{56: 1, 60: 1, 25: 1, 50: 1, 8: 6}","[8, 25, 50, 56, 60]",86251501561601,Ba1Nd1Mn1Sn1O6
BaMnSnWO6,mp-1518034,1.6954000000000002,4.41275509,0.10770591549999864,"{56: 1, 25: 1, 50: 1, 74: 1, 8: 6}","[8, 25, 50, 56, 74]",86251501561741,Ba1Mn1Sn1W1O6
Ba2MnSnO6,mp-1520156,0.0,3.46374711,0.08436976383331629,"{56: 2, 25: 1, 50: 1, 8: 6}","[8, 25, 50, 56]",86251501562,Ba2Mn1Sn1O6
BaLaMnSbO6,mp-1227869,1.5110999999999999,5.70803155,0.07908887931348829,"{56: 1, 57: 1, 25: 1, 51: 1, 8: 6}","[8, 25, 51, 56, 57]",86251511561571,Ba1La1Mn1Sb1O6
Ba2MnTeO6,mp-18992,0.9485999999999999,3.84469454,0.0,"{56: 2, 25: 1, 52: 1, 8: 6}","[8, 25, 52, 56]",86251521562,Ba2Mn1Te1O6
BaLaTaMnO6,mp-41283,1.0025000000000004,5.40848969,0.12389897849999798,"{56: 1, 57: 1, 73: 1, 25: 1, 8: 6}","[8, 25, 56, 57, 73]",86251561571731,Ba1La1Ta1Mn1O6
BaNdDyMnO6,mp-1518593,2.0617,2.84187711,0.17210343570832443,"{56: 1, 60: 1, 66: 1, 25: 1, 8: 6}","[8, 25, 56, 60, 66]",86251561601661,Ba1Nd1Dy1Mn1O6
BaSmEuMnO6,mp-1517753,0.0,2.21871696,0.25866611739582623,"{56: 1, 62: 1, 63: 1, 25: 1, 8: 6}","[8, 25, 56, 62, 63]",86251561621631,Ba1Sm1Eu1Mn1O6
BaEuDyMnO6,mp-1520404,0.0,2.33002914,0.2192045228333317,"{56: 1, 63: 1, 66: 1, 25: 1, 8: 6}","[8, 25, 56, 63, 66]",86251561631661,Ba1Eu1Dy1Mn1O6
Ba2SmMnO6,mp-1519192,0.0,1.90982566,0.04530151812501426,"{56: 2, 62: 1, 25: 1, 8: 6}","[8, 25, 56, 62]",86251562621,Ba2Sm1Mn1O6
Ba2TaMnO6,mp-1309882,1.1694,2.63933247,0.006158234416668407,"{56: 2, 73: 1, 25: 1, 8: 6}","[8, 25, 56, 73]",86251562731,Ba2Ta1Mn1O6
Ba2MnWO6,mp-19085,2.2267,3.25729028,0.0,"{56: 2, 25: 1, 74: 1, 8: 6}","[8, 25, 56, 74]",86251562741,Ba2Mn1W1O6
Ba2MnReO6,mp-20813,0.0,4.4680543,0.0,"{56: 2, 25: 1, 75: 1, 8: 6}","[8, 25, 56, 75]",86251562751,Ba2Mn1Re1O6
Ba2UMnO6,mp-19852,0.06130000000000013,4.90025296,0.0,"{56: 2, 92: 1, 25: 1, 8: 6}","[8, 25, 56, 92]",86251562921,Ba2U1Mn1O6
Ba2PuMnO6,mp-1205598,0.0,5.07032155,0.0,"{56: 2, 94: 1, 25: 1, 8: 6}","[8, 25, 56, 94]",86251562941,Ba2Pu1Mn1O6
BaYMn2O6,mp-555455,0.0,3.54295398,0.07894763000000182,"{56: 1, 39: 1, 25: 2, 8: 6}","[8, 25, 39, 56]",86252391561,Ba1Y1Mn2O6
BaLaMn2O6,mp-19245,0.0,4.86372051,0.10992280026669476,"{56: 1, 57: 1, 25: 2, 8: 6}","[8, 25, 56, 57]",86252561571,Ba1La1Mn2O6
BaPrMn2O6,mp-19274,0.0,3.73197544,0.02935811233333574,"{56: 1, 59: 1, 25: 2, 8: 6}","[8, 25, 56, 59]",86252561591,Ba1Pr1Mn2O6
BaNdMn2O6,mp-22571,0.0,3.73064196,0.035667856500001704,"{56: 1, 60: 1, 25: 2, 8: 6}","[8, 25, 56, 60]",86252561601,Ba1Nd1Mn2O6
BaTbMn2O6,mp-558858,0.0,3.3574028,0.06708744658333998,"{56: 1, 65: 1, 25: 2, 8: 6}","[8, 25, 56, 65]",86252561651,Ba1Tb1Mn2O6
BaMn2TlO6,mp-1046464,0.0,1.86229232,0.37045324442705585,"{56: 1, 25: 2, 81: 1, 8: 6}","[8, 25, 56, 81]",86252561811,Ba1Mn2Tl1O6
BaMn3O6,mp-30153,0.0,2.95763434,0.05566252852080744,"{56: 1, 25: 3, 8: 6}","[8, 25, 56]",86253561,Ba1Mn3O6
BaNdFeCoO6,mp-1227838,0.0,3.35778813,0.07845126550000003,"{56: 1, 60: 1, 26: 1, 27: 1, 8: 6}","[8, 26, 27, 56, 60]",86261271561601,Ba1Nd1Fe1Co1O6
Ba2NbFeO6,mp-1021504,1.5316,2.69969661,0.0,"{56: 2, 41: 1, 26: 1, 8: 6}","[8, 26, 41, 56]",86261411562,Ba2Nb1Fe1O6
Ba2FeMoO6,mp-1288978,0.9037000000000002,3.8448601,0.0,"{56: 2, 26: 1, 42: 1, 8: 6}","[8, 26, 42, 56]",86261421562,Ba2Fe1Mo1O6
BaInFeWO6,mp-1522067,0.0,4.88861795,0.19482216450000056,"{56: 1, 49: 1, 26: 1, 74: 1, 8: 6}","[8, 26, 49, 56, 74]",86261491561741,Ba1In1Fe1W1O6
BaPrFeSnO6,mp-1520852,2.0747999999999998,4.27612745,0.10693407399999977,"{56: 1, 59: 1, 26: 1, 50: 1, 8: 6}","[8, 26, 50, 56, 59]",86261501561591,Ba1Pr1Fe1Sn1O6
BaNdFeSnO6,mp-1519858,2.0832000000000006,4.27295246,0.1269120000000008,"{56: 1, 60: 1, 26: 1, 50: 1, 8: 6}","[8, 26, 50, 56, 60]",86261501561601,Ba1Nd1Fe1Sn1O6
BaSmFeSnO6,mp-1519243,2.1068999999999996,4.22301512,0.16355822175000068,"{56: 1, 62: 1, 26: 1, 50: 1, 8: 6}","[8, 26, 50, 56, 62]",86261501561621,Ba1Sm1Fe1Sn1O6
BaEuFeSnO6,mp-1521180,0.0,4.44493312,0.20687439649999995,"{56: 1, 63: 1, 26: 1, 50: 1, 8: 6}","[8, 26, 50, 56, 63]",86261501561631,Ba1Eu1Fe1Sn1O6
BaPrEuFeO6,mp-1520444,0.0,3.27216491,0.23364104210416592,"{56: 1, 59: 1, 63: 1, 26: 1, 8: 6}","[8, 26, 56, 59, 63]",86261561591631,Ba1Pr1Eu1Fe1O6
BaNdEuFeO6,mp-1517804,0.0,2.70893945,0.27035883654166604,"{56: 1, 60: 1, 63: 1, 26: 1, 8: 6}","[8, 26, 56, 60, 63]",86261561601631,Ba1Nd1Eu1Fe1O6
BaTbNdFeO6,mp-1517069,0.0,3.1259324,0.201848536479166,"{56: 1, 65: 1, 60: 1, 26: 1, 8: 6}","[8, 26, 56, 60, 65]",86261561601651,Ba1Tb1Nd1Fe1O6
BaNdDyFeO6,mp-1519745,0.0,3.11101677,0.19199220354166435,"{56: 1, 60: 1, 66: 1, 26: 1, 8: 6}","[8, 26, 56, 60, 66]",86261561601661,Ba1Nd1Dy1Fe1O6
BaSmEuFeO6,mp-1517521,0.0,2.53367491,0.2506407052291646,"{56: 1, 62: 1, 63: 1, 26: 1, 8: 6}","[8, 26, 56, 62, 63]",86261561621631,Ba1Sm1Eu1Fe1O6
BaEuFeBiO6,mp-1517846,0.0,4.12730554,0.19008421649999185,"{56: 1, 63: 1, 26: 1, 83: 1, 8: 6}","[8, 26, 56, 63, 83]",86261561631831,Ba1Eu1Fe1Bi1O6
Ba2SmFeO6,mp-1520435,0.0,2.13777935,0.026252295145845927,"{56: 2, 62: 1, 26: 1, 8: 6}","[8, 26, 56, 62]",86261562621,Ba2Sm1Fe1O6
Ba2TaFeO6,mp-1205671,1.8622999999999998,2.79451208,0.0,"{56: 2, 73: 1, 26: 1, 8: 6}","[8, 26, 56, 73]",86261562731,Ba2Ta1Fe1O6
Ba2FeWO6,mp-18845,0.0,5.04216014,0.0,"{56: 2, 26: 1, 74: 1, 8: 6}","[8, 26, 56, 74]",86261562741,Ba2Fe1W1O6
Ba2FeReO6,mp-31756,0.0,4.86820802,0.0030492895000069353,"{56: 2, 26: 1, 75: 1, 8: 6}","[8, 26, 56, 75]",86261562751,Ba2Fe1Re1O6
Ba2UFeO6,mp-504699,0.5156000000000001,5.54092258,0.0,"{56: 2, 92: 1, 26: 1, 8: 6}","[8, 26, 56, 92]",86261562921,Ba2U1Fe1O6
BaLa(FeO3)2,mp-1227910,0.0,4.80524027,0.04223181666666509,"{56: 1, 57: 1, 26: 2, 8: 6}","[8, 26, 56, 57]",86262561571,Ba1La1Fe2O6
BaNd(FeO3)2,mp-1227836,0.0,3.63413467,0.06509484566666579,"{56: 1, 60: 1, 26: 2, 8: 6}","[8, 26, 56, 60]",86262561601,Ba1Nd1Fe2O6
BaSmCoCuO6,mp-1227751,0.0,3.28712674,0.1006159347499942,"{56: 1, 62: 1, 27: 1, 29: 1, 8: 6}","[8, 27, 29, 56, 62]",86271291561621,Ba1Sm1Co1Cu1O6
BaCo(SeO3)2,mp-567548,2.9010000000000002,4.70676513,0.0023101780625003343,"{56: 1, 27: 1, 34: 2, 8: 6}","[8, 27, 34, 56]",86271342561,Ba1Co1Se2O6
BaPrNbCoO6,mp-1227832,0.0,4.45458953,0.20597457512500306,"{56: 1, 59: 1, 41: 1, 27: 1, 8: 6}","[8, 27, 41, 56, 59]",86271411561591,Ba1Pr1Nb1Co1O6
Ba2NbCoO6,mp-1228382,1.5345999999999997,2.73712533,0.06609619024999436,"{56: 2, 41: 1, 27: 1, 8: 6}","[8, 27, 41, 56]",86271411562,Ba2Nb1Co1O6
Ba2CoMoO6,mp-18967,0.0,3.72736372,0.0,"{56: 2, 27: 1, 42: 1, 8: 6}","[8, 27, 42, 56]",86271421562,Ba2Co1Mo1O6
Ba2CoRuO6,mp-1228653,0.0,3.34113458,0.019201509583334442,"{56: 2, 27: 1, 44: 1, 8: 6}","[8, 27, 44, 56]",86271441562,Ba2Co1Ru1O6
BaLaCoSbO6,mp-1227876,0.0,6.34049123,0.12035205964999829,"{56: 1, 57: 1, 27: 1, 51: 1, 8: 6}","[8, 27, 51, 56, 57]",86271511561571,Ba1La1Co1Sb1O6
BaLaCoIrO6,mp-1228112,0.0,5.56942421,0.07727460045834,"{56: 1, 57: 1, 27: 1, 77: 1, 8: 6}","[8, 27, 56, 57, 77]",86271561571771,Ba1La1Co1Ir1O6
BaPrTaCoO6,mp-1227898,1.6852999999999998,4.92402114,0.12118249999999975,"{56: 1, 59: 1, 73: 1, 27: 1, 8: 6}","[8, 27, 56, 59, 73]",86271561591731,Ba1Pr1Ta1Co1O6
Ba2TaCoO6,mp-1228308,1.5327999999999995,2.68944344,0.07329586524999065,"{56: 2, 73: 1, 27: 1, 8: 6}","[8, 27, 56, 73]",86271562731,Ba2Ta1Co1O6
Ba2CoWO6,mp-22112,0.0,3.53353647,0.0,"{56: 2, 27: 1, 74: 1, 8: 6}","[8, 27, 56, 74]",86271562741,Ba2Co1W1O6
Ba2CoReO6,mp-545792,0.19819999999999993,4.422401,0.04870363224999874,"{56: 2, 27: 1, 75: 1, 8: 6}","[8, 27, 56, 75]",86271562751,Ba2Co1Re1O6
Ba2UCoO6,mp-20966,0.0,4.33451756,0.02708348641666447,"{56: 2, 92: 1, 27: 1, 8: 6}","[8, 27, 56, 92]",86271562921,Ba2U1Co1O6
BaLa(CoO3)2,mp-20477,0.0,4.97005183,0.0977113755000012,"{56: 1, 57: 1, 27: 2, 8: 6}","[8, 27, 56, 57]",86272561571,Ba1La1Co2O6
BaPr(CoO3)2,mp-2222270,0.0,3.49219376,0.08142278250000157,"{56: 1, 59: 1, 27: 2, 8: 6}","[8, 27, 56, 59]",86272561591,Ba1Pr1Co2O6
BaNd(CoO3)2,mp-555635,0.0,3.29538219,0.09025289150001381,"{56: 1, 60: 1, 27: 2, 8: 6}","[8, 27, 56, 60]",86272561601,Ba1Nd1Co2O6