formula,material_id,band_gap,efermi,energy_above_hull,comp_atoms,sorted_keys_comp_atoms,comp_number,new_formula
Ba3Al2O12,mp-1204798,0.8126000000000001,-1.39974443,0.41306385510695076,"{56: 3, 13: 2, 8: 12}","[8, 13, 56]",812132563,Ba3Al2O12
BaAl4(SbO6)2,mp-1196877,3.3158000000000003,4.4841502,0.0,"{56: 1, 13: 4, 51: 2, 8: 12}","[8, 13, 51, 56]",812134512561,Ba1Al4Sb2O12
BaSm4Si3SeO12,mp-39866,2.5404,4.16247494,0.050200984880959254,"{56: 1, 62: 4, 14: 3, 34: 1, 8: 12}","[8, 14, 34, 56, 62]",812143341561624,Ba1Sm4Si3Se1O12
Ba2Sm3Si3SeO12,mp-1214802,0.0,2.81547773,0.08928650988094944,"{56: 2, 62: 3, 14: 3, 34: 1, 8: 12}","[8, 14, 34, 56, 62]",812143341562623,Ba2Sm3Si3Se1O12
Ba2Zr2(SiO4)3,mp-1214740,4.2351,1.60531689,0.028410998157898604,"{56: 2, 40: 2, 14: 3, 8: 12}","[8, 14, 40, 56]",812143402562,Ba2Zr2Si3O12
BaMo2(PO6)2,mp-555338,3.0078,0.80952015,0.0,"{56: 1, 42: 2, 15: 2, 8: 12}","[8, 15, 42, 56]",812152422561,Ba1Mo2P2O12
Ba5P3ClO12,mp-558349,5.0449,1.28264822,0.0,"{56: 5, 15: 3, 17: 1, 8: 12}","[8, 15, 17, 56]",812153171565,Ba5P3Cl1O12
KBaCr2(PO4)3,mp-1223640,3.2965,1.80043825,0.0,"{19: 1, 56: 1, 24: 2, 15: 3, 8: 12}","[8, 15, 19, 24, 56]",812153191242561,K1Ba1Cr2P3O12
KBaFe2(PO4)3,mp-725402,2.5398000000000005,1.52513889,0.2838699790789434,"{19: 1, 56: 1, 26: 2, 15: 3, 8: 12}","[8, 15, 19, 26, 56]",812153191262561,K1Ba1Fe2P3O12
KBaIn2(PO4)3,mp-695157,3.4534999999999996,1.98130853,0.0029519489473699423,"{19: 1, 56: 1, 49: 2, 15: 3, 8: 12}","[8, 15, 19, 49, 56]",812153191492561,K1Ba1In2P3O12
BaMn3(PO4)3,mp-1204296,0.0,2.52085041,0.0,"{56: 1, 25: 3, 15: 3, 8: 12}","[8, 15, 25, 56]",812153253561,Ba1Mn3P3O12
BaFe3(PO4)3,mp-1194498,1.1157,1.75152092,0.0,"{56: 1, 26: 3, 15: 3, 8: 12}","[8, 15, 26, 56]",812153263561,Ba1Fe3P3O12
Ba5P3BrO12,mp-561125,4.963699999999999,1.2697275,0.0,"{56: 5, 15: 3, 35: 1, 8: 12}","[8, 15, 35, 56]",812153351565,Ba5P3Br1O12
BaMo2(PO4)3,mp-541255,0.0,2.11160392,0.013788926249997502,"{56: 1, 42: 2, 15: 3, 8: 12}","[8, 15, 42, 56]",812153422561,Ba1Mo2P3O12
CsBaIn2(PO4)3,mp-532541,3.5777000000000005,2.10277889,0.004744096798249053,"{55: 1, 56: 1, 49: 2, 15: 3, 8: 12}","[8, 15, 49, 55, 56]",812153492551561,Cs1Ba1In2P3O12
Ba2In2(PO4)3,mp-1215000,0.0,4.99282534,0.08707930204678682,"{56: 2, 49: 2, 15: 3, 8: 12}","[8, 15, 49, 56]",812153492562,Ba2In2P3O12
BaCa(PO3)4,mp-556122,5.7468,0.41082451,0.0,"{56: 1, 20: 1, 15: 4, 8: 12}","[8, 15, 20, 56]",812154201561,Ba1Ca1P4O12
BaCd(PO3)4,mp-540736,4.400399999999999,0.41167473,0.0,"{56: 1, 48: 1, 15: 4, 8: 12}","[8, 15, 48, 56]",812154481561,Ba1Cd1P4O12
K2Ba(SO)12,mp-540627,2.6279,0.36309769,0.04289927967592444,"{19: 2, 56: 1, 16: 12, 8: 12}","[8, 16, 19, 56]",8121612192561,K2Ba1S12O12
Ba5As3SO12,mp-1214545,0.0,1.10577951,0.04666834370535611,"{56: 5, 33: 3, 16: 1, 8: 12}","[8, 16, 33, 56]",812161333565,Ba5As3S1O12
Ba5As2(SO6)2,mp-1228464,2.4145,2.43046967,0.023756693809520613,"{56: 5, 33: 2, 16: 2, 8: 12}","[8, 16, 33, 56]",812162332565,Ba5As2S2O12
BaPb2(SO4)3,mp-1228616,4.1233,2.21478626,0.0,"{56: 1, 82: 2, 16: 3, 8: 12}","[8, 16, 56, 82]",812163561822,Ba1Pb2S3O12
Ba2Pb(SO4)3,mp-1229061,4.2393,1.55708654,0.0021347118055521364,"{56: 2, 82: 1, 16: 3, 8: 12}","[8, 16, 56, 82]",812163562821,Ba2Pb1S3O12
Ba5V3ClO12,mp-23094,4.0709,0.32948324,0.0,"{56: 5, 23: 3, 17: 1, 8: 12}","[8, 17, 23, 56]",812171233565,Ba5V3Cl1O12
Ba5Cr3ClO12,mp-1214675,1.0844000000000003,2.53876942,0.0,"{56: 5, 24: 3, 17: 1, 8: 12}","[8, 17, 24, 56]",812171243565,Ba5Cr3Cl1O12
Ba5Mn3ClO12,mp-560883,1.7299,1.26066574,0.0,"{56: 5, 25: 3, 17: 1, 8: 12}","[8, 17, 25, 56]",812171253565,Ba5Mn3Cl1O12
Ba5As3ClO12,mp-556761,3.9959999999999996,0.58812825,0.0,"{56: 5, 33: 3, 17: 1, 8: 12}","[8, 17, 33, 56]",812171333565,Ba5As3Cl1O12
Ba6CaNb2Ir(ClO6)2,mp-1234974,0.021099999999999675,2.65599034,0.12906933354166927,"{56: 6, 20: 1, 41: 2, 77: 1, 17: 2, 8: 12}","[8, 17, 20, 41, 56, 77]",812172201412566771,Ba6Ca1Nb2Ir1Cl2O12
Ba6Nb2Ir(ClO6)2,mp-558113,0.0,2.47196547,0.005020945724657722,"{56: 6, 41: 2, 77: 1, 17: 2, 8: 12}","[8, 17, 41, 56, 77]",812172412566771,Ba6Nb2Ir1Cl2O12
Ba6Ru2Pt(ClO6)2,mp-554949,0.1227999999999998,2.62336231,0.0,"{56: 6, 44: 2, 78: 1, 17: 2, 8: 12}","[8, 17, 44, 56, 78]",812172442566781,Ba6Ru2Pt1Cl2O12
Ba6Ru3(ClO6)2,mp-558595,0.0,2.4699992,0.0,"{56: 6, 44: 3, 17: 2, 8: 12}","[8, 17, 44, 56]",812172443566,Ba6Ru3Cl2O12
KBaGd(MoO4)3,mp-1223587,2.9552,0.38481929,0.005513432638899474,"{19: 1, 56: 1, 64: 1, 42: 3, 8: 12}","[8, 19, 42, 56, 64]",812191423561641,K1Ba1Gd1Mo3O12
KBa3(BiO3)4,mp-1223500,0.0,3.59370248,0.0,"{19: 1, 56: 3, 83: 4, 8: 12}","[8, 19, 56, 83]",812191563834,K1Ba3Bi4O12
K4BaU3O12,mp-1223997,2.0698999999999996,3.9388159,0.014591295375002034,"{19: 4, 56: 1, 92: 3, 8: 12}","[8, 19, 56, 92]",812194561923,K4Ba1U3O12
BaCaTi4O12,mp-1523145,0.0,1.11508999,0.19513737377775975,"{56: 1, 20: 1, 22: 4, 8: 12}","[8, 20, 22, 56]",812201224561,Ba1Ca1Ti4O12
BaCaCr4O12,mp-1518431,0.0,1.93611933,0.4167134886111157,"{56: 1, 20: 1, 24: 4, 8: 12}","[8, 20, 24, 56]",812201244561,Ba1Ca1Cr4O12
Ba4CaMn2MoO12,mp-1228205,0.0,3.16222018,0.017886993833325704,"{56: 4, 20: 1, 25: 2, 42: 1, 8: 12}","[8, 20, 25, 42, 56]",812201252421564,Ba4Ca1Mn2Mo1O12
BaCaMn4O12,mp-1522423,0.0,1.00112976,0.34189565293320356,"{56: 1, 20: 1, 25: 4, 8: 12}","[8, 20, 25, 56]",812201254561,Ba1Ca1Mn4O12
BaCa(FeO3)4,mp-1519251,0.0,0.79201763,0.250324416354168,"{56: 1, 20: 1, 26: 4, 8: 12}","[8, 20, 26, 56]",812201264561,Ba1Ca1Fe4O12
BaCa(CoO3)4,mp-1521211,0.0,1.4548229,0.31111206997222585,"{56: 1, 20: 1, 27: 4, 8: 12}","[8, 20, 27, 56]",812201274561,Ba1Ca1Co4O12
Ba2CaTl2(CuO3)4,mp-1806359,0.0,2.94595933,0.2014972365476302,"{56: 2, 20: 1, 81: 2, 29: 4, 8: 12}","[8, 20, 29, 56, 81]",812201294562812,Ba2Ca1Tl2Cu4O12
BaCaZr4O12,mp-1523340,0.0,0.16311501,0.22496778930555195,"{56: 1, 20: 1, 40: 4, 8: 12}","[8, 20, 40, 56]",812201404561,Ba1Ca1Zr4O12
BaCaNb4O12,mp-1521580,1.3465000000000003,1.22154137,0.09951485222222445,"{56: 1, 20: 1, 41: 4, 8: 12}","[8, 20, 41, 56]",812201414561,Ba1Ca1Nb4O12
Ba4Ca(RhO3)4,mp-1233683,0.0,3.52477535,0.13657152920635252,"{56: 4, 20: 1, 45: 4, 8: 12}","[8, 20, 45, 56]",812201454564,Ba4Ca1Rh4O12
BaCa(SnO3)4,mp-1523289,0.0,2.25361515,0.27836480597221147,"{56: 1, 20: 1, 50: 4, 8: 12}","[8, 20, 50, 56]",812201504561,Ba1Ca1Sn4O12
BaCaHf4O12,mp-1518468,0.0,0.35242295,0.21064458277777476,"{56: 1, 20: 1, 72: 4, 8: 12}","[8, 20, 56, 72]",812201561724,Ba1Ca1Hf4O12
Ba4Ca(BiO4)3,mp-1147549,0.0,3.82652838,0.00972471499999994,"{56: 4, 20: 1, 83: 3, 8: 12}","[8, 20, 56, 83]",812201564833,Ba4Ca1Bi3O12
Ba2Ca2NdTi2(CuO6)2,mp-1214747,0.0,3.09849248,0.04328578162698449,"{56: 2, 20: 2, 60: 1, 22: 2, 29: 2, 8: 12}","[8, 20, 22, 29, 56, 60]",812202222292562601,Ba2Ca2Nd1Ti2Cu2O12
BaCa2Y6O12,mp-1228139,2.8906,4.86914859,0.04468178964286018,"{56: 1, 20: 2, 39: 6, 8: 12}","[8, 20, 39, 56]",812202396561,Ba1Ca2Y6O12
BaCa2In6O12,mp-1228325,1.9489,4.36012016,0.007244894642866484,"{56: 1, 20: 2, 49: 6, 8: 12}","[8, 20, 49, 56]",812202496561,Ba1Ca2In6O12
Ba2Ca3Ti4Tl2O12,mp-1047819,0.0,5.11702272,0.2895462548912908,"{56: 2, 20: 3, 22: 4, 81: 2, 8: 12}","[8, 20, 22, 56, 81]",812203224562812,Ba2Ca3Ti4Tl2O12
Ba2Ca3Tl2V4O12,mp-1048633,0.0,4.36613298,0.32635938240777573,"{56: 2, 20: 3, 81: 2, 23: 4, 8: 12}","[8, 20, 23, 56, 81]",812203234562812,Ba2Ca3Tl2V4O12
Ba2Ca3Tl2Cr4O12,mp-1838903,0.0,3.39196288,0.2409161081702864,"{56: 2, 20: 3, 81: 2, 24: 4, 8: 12}","[8, 20, 24, 56, 81]",812203244562812,Ba2Ca3Tl2Cr4O12
Ba2Ca3Mn4Tl2O12,mp-1048549,0.0,3.59786447,0.14865866876814327,"{56: 2, 20: 3, 25: 4, 81: 2, 8: 12}","[8, 20, 25, 56, 81]",812203254562812,Ba2Ca3Mn4Tl2O12
Ba2Ca3Tl2(FeO3)4,mp-1841520,0.0,4.04174751,0.15808509622670996,"{56: 2, 20: 3, 81: 2, 26: 4, 8: 12}","[8, 20, 26, 56, 81]",812203264562812,Ba2Ca3Tl2Fe4O12
Ba2Ca3Tl2(CoO3)4,mp-1807035,0.0,4.53664879,0.1735372235326107,"{56: 2, 20: 3, 81: 2, 27: 4, 8: 12}","[8, 20, 27, 56, 81]",812203274562812,Ba2Ca3Tl2Co4O12
Ba2Ca3Tl2(CuO3)4,mp-556733,0.0,4.26772101,0.007442393333334962,"{56: 2, 20: 3, 81: 2, 29: 4, 8: 12}","[8, 20, 29, 56, 81]",812203294562812,Ba2Ca3Tl2Cu4O12
Ba2Ca3Tl2(SnO3)4,mp-1048012,0.0,4.58881608,0.3318046648188284,"{56: 2, 20: 3, 81: 2, 50: 4, 8: 12}","[8, 20, 50, 56, 81]",812203504562812,Ba2Ca3Tl2Sn4O12
Ba2Ca3Tl2(WO3)4,mp-1843918,0.0,4.49799876,0.5384723501086954,"{56: 2, 20: 3, 81: 2, 74: 4, 8: 12}","[8, 20, 56, 74, 81]",812203562744812,Ba2Ca3Tl2W4O12
Ba4ScReWO12,mp-1228167,1.8841,4.09797734,0.0,"{56: 4, 21: 1, 75: 1, 74: 1, 8: 12}","[8, 21, 56, 74, 75]",812211564741751,Ba4Sc1Re1W1O12
Ba3Sc3In(CuO4)3,mp-1228709,0.5278999999999998,3.6340421,0.008412865437493977,"{56: 3, 21: 3, 49: 1, 29: 3, 8: 12}","[8, 21, 29, 49, 56]",812213293491563,Ba3Sc3In1Cu3O12
BaLa3TiCr3O12,mp-699403,1.8926999999999996,5.88346625,0.028179253624999845,"{56: 1, 57: 3, 22: 1, 24: 3, 8: 12}","[8, 22, 24, 56, 57]",812221243561573,Ba1La3Ti1Cr3O12
BaTiFe3(BiO4)3,mp-1227513,2.0642999999999994,6.13686155,0.035925644249986455,"{56: 1, 22: 1, 26: 3, 83: 3, 8: 12}","[8, 22, 26, 56, 83]",812221263561833,Ba1Ti1Fe3Bi3O12
Ba4Ta2TiZnO12,mp-676665,2.2354,2.76316523,0.009007812749999289,"{56: 4, 73: 2, 22: 1, 30: 1, 8: 12}","[8, 22, 30, 56, 73]",812221301564732,Ba4Ta2Ti1Zn1O12
Ba4Zr3TiO12,mp-1228038,1.7076000000000002,3.99001994,0.015201847499991317,"{56: 4, 40: 3, 22: 1, 8: 12}","[8, 22, 40, 56]",812221403564,Ba4Zr3Ti1O12
Ba2Ti2Fe2As4O,mp-1103080,0.0,4.30904055,0.2098722631818175,"{56: 2, 22: 2, 26: 2, 33: 4, 8: 1}","[8, 22, 26, 33, 56]",81222262334562,Ba2Ti2Fe2As4O1
BaTi2As2O,mp-1018735,0.0,5.0146804,0.0,"{56: 1, 22: 2, 33: 2, 8: 1}","[8, 22, 33, 56]",81222332561,Ba1Ti2As2O1
Ba4Ti3PtO12,mp-1228478,0.9918000000000005,4.65654576,0.0035076338333439594,"{56: 4, 22: 3, 78: 1, 8: 12}","[8, 22, 56, 78]",812223564781,Ba4Ti3Pt1O12
Ba2Ti4Tl2Zn3O12,mp-1047851,0.0,4.75256779,0.4967895549275312,"{56: 2, 22: 4, 81: 2, 30: 3, 8: 12}","[8, 22, 30, 56, 81]",812224303562812,Ba2Ti4Tl2Zn3O12
BaTi4SnO12,mp-1521740,0.0,1.97825362,0.3721463244097283,"{56: 1, 22: 4, 50: 1, 8: 12}","[8, 22, 50, 56]",812224501561,Ba1Ti4Sn1O12
BaNdTi4O12,mp-1518631,0.0,1.52999252,0.1594896490971749,"{56: 1, 60: 1, 22: 4, 8: 12}","[8, 22, 56, 60]",812224561601,Ba1Nd1Ti4O12
BaSmTi4O12,mp-1517119,0.0,1.5056553,0.1668522914236128,"{56: 1, 62: 1, 22: 4, 8: 12}","[8, 22, 56, 62]",812224561621,Ba1Sm1Ti4O12
BaEuTi4O12,mp-1518538,0.0,0.33043994,0.335098411979164,"{56: 1, 63: 1, 22: 4, 8: 12}","[8, 22, 56, 63]",812224561631,Ba1Eu1Ti4O12
BaDyTi4O12,mp-1517360,0.0,1.51251181,0.19777863408329566,"{56: 1, 66: 1, 22: 4, 8: 12}","[8, 22, 56, 66]",812224561661,Ba1Dy1Ti4O12
BaTi2Sb2O,mp-1070806,0.0,5.89177632,0.0,"{56: 1, 22: 2, 51: 2, 8: 1}","[8, 22, 51, 56]",81222512561,Ba1Ti2Sb2O1
BaTi2Bi2O,mp-1070808,0.0,5.46808546,0.020335864120376357,"{56: 1, 22: 2, 83: 2, 8: 1}","[8, 22, 56, 83]",81222561832,Ba1Ti2Bi2O1
BaTi6O12,mp-757206,0.0,5.23016005,0.002625614254851527,"{56: 1, 22: 6, 8: 12}","[8, 22, 56]",812226561,Ba1Ti6O12
BaU2V2O12,mp-1227825,1.9806999999999997,2.47151628,0.0,"{56: 1, 92: 2, 23: 2, 8: 12}","[8, 23, 56, 92]",812232561922,Ba1U2V2O12
Ba3LaV3O12,mp-1228930,3.2286,4.4394747,0.054847628421049066,"{56: 3, 57: 1, 23: 3, 8: 12}","[8, 23, 56, 57]",812233563571,Ba3La1V3O12
Ba3NdV3O12,mp-1228766,3.2481999999999998,3.98800262,0.0691733263157932,"{56: 3, 60: 1, 23: 3, 8: 12}","[8, 23, 56, 60]",812233563601,Ba3Nd1V3O12
BaNdV4O12,mp-1522854,0.0,2.9153419,0.22801102629629,"{56: 1, 60: 1, 23: 4, 8: 12}","[8, 23, 56, 60]",812234561601,Ba1Nd1V4O12
BaSmV4O12,mp-1521047,0.0,2.91047061,0.2352542696296247,"{56: 1, 62: 1, 23: 4, 8: 12}","[8, 23, 56, 62]",812234561621,Ba1Sm1V4O12
BaEuV4O12,mp-1521286,0.0,2.73039428,0.1980682046296227,"{56: 1, 63: 1, 23: 4, 8: 12}","[8, 23, 56, 63]",812234561631,Ba1Eu1V4O12
BaDyV4O12,mp-1520124,0.0,2.91719158,0.25349806240740946,"{56: 1, 66: 1, 23: 4, 8: 12}","[8, 23, 56, 66]",812234561661,Ba1Dy1V4O12
BaNb4CrO12,mp-1519975,1.4187999999999998,1.51143387,0.14579078859000383,"{56: 1, 41: 4, 24: 1, 8: 12}","[8, 24, 41, 56]",812241414561,Ba1Nb4Cr1O12
Ba4Cr2MoWO12,mp-1228199,0.0,4.66493837,0.003933856218740317,"{56: 4, 24: 2, 42: 1, 74: 1, 8: 12}","[8, 24, 42, 56, 74]",812242421564741,Ba4Cr2Mo1W1O12
BaCr2(RuO3)4,mp-1214892,0.0,3.79979249,0.03746089763158267,"{56: 1, 24: 2, 44: 4, 8: 12}","[8, 24, 44, 56]",812242444561,Ba1Cr2Ru4O12
Ba2Tl2Zn3Cr4O12,mp-1807788,0.0,3.34698349,0.4002302951630412,"{56: 2, 81: 2, 30: 3, 24: 4, 8: 12}","[8, 24, 30, 56, 81]",812244303562812,Ba2Tl2Zn3Cr4O12
BaNdCr4O12,mp-1517084,0.0,2.09603284,0.35227995305555826,"{56: 1, 60: 1, 24: 4, 8: 12}","[8, 24, 56, 60]",812244561601,Ba1Nd1Cr4O12
BaSmCr4O12,mp-1520355,0.0,2.02235598,0.35562808694444925,"{56: 1, 62: 1, 24: 4, 8: 12}","[8, 24, 56, 62]",812244561621,Ba1Sm1Cr4O12
BaEuCr4O12,mp-1522661,0.0,0.13854746,0.9003811216666691,"{56: 1, 63: 1, 24: 4, 8: 12}","[8, 24, 56, 63]",812244561631,Ba1Eu1Cr4O12
BaDyCr4O12,mp-1517741,0.0,2.00862913,0.37017653777778836,"{56: 1, 66: 1, 24: 4, 8: 12}","[8, 24, 56, 66]",812244561661,Ba1Dy1Cr4O12
BaMnNb4O12,mp-1523208,1.8824,1.18230489,0.12505744847223887,"{56: 1, 25: 1, 41: 4, 8: 12}","[8, 25, 41, 56]",812251414561,Ba1Mn1Nb4O12
Ba2La2Mn(WO6)2,mp-560825,1.5055000000000005,5.8360866,0.07353498315790219,"{56: 2, 57: 2, 25: 1, 74: 2, 8: 12}","[8, 25, 56, 57, 74]",812251562572742,Ba2La2Mn1W2O12
Ba2Eu3Mn2(CuO6)2,mp-557447,0.0,3.35015926,0.10016308246031258,"{56: 2, 63: 3, 25: 2, 29: 2, 8: 12}","[8, 25, 29, 56, 63]",812252292562633,Ba2Eu3Mn2Cu2O12
Ba4CeMn3O12,mp-561553,1.9704000000000002,2.6661035,0.0,"{56: 4, 58: 1, 25: 3, 8: 12}","[8, 25, 56, 58]",812253564581,Ba4Ce1Mn3O12
Ba4PrMn3O12,mp-556632,0.0,2.67965295,0.02403040092711084,"{56: 4, 59: 1, 25: 3, 8: 12}","[8, 25, 56, 59]",812253564591,Ba4Pr1Mn3O12
Ba4NdMn3O12,mp-555245,0.0,2.70522916,0.019793697145866318,"{56: 4, 60: 1, 25: 3, 8: 12}","[8, 25, 56, 60]",812253564601,Ba4Nd1Mn3O12
Ba2Mn4Tl2Zn3O12,mp-1048574,0.0,2.93804209,0.29273274615942313,"{56: 2, 25: 4, 81: 2, 30: 3, 8: 12}","[8, 25, 30, 56, 81]",812254303562812,Ba2Mn4Tl2Zn3O12
BaLa3Mn4O12,mp-1228047,0.0,6.05466321,0.14663309292749815,"{56: 1, 57: 3, 25: 4, 8: 12}","[8, 25, 56, 57]",812254561573,Ba1La3Mn4O12
BaNdMn4O12,mp-1517187,0.0,1.33972137,0.27320153234127353,"{56: 1, 60: 1, 25: 4, 8: 12}","[8, 25, 56, 60]",812254561601,Ba1Nd1Mn4O12
BaSmMn4O12,mp-1521849,0.0,1.33104114,0.2922371617857218,"{56: 1, 62: 1, 25: 4, 8: 12}","[8, 25, 56, 62]",812254561621,Ba1Sm1Mn4O12
BaDyMn4O12,mp-1517693,0.0,1.42458471,0.30663113040014434,"{56: 1, 66: 1, 25: 4, 8: 12}","[8, 25, 56, 66]",812254561661,Ba1Dy1Mn4O12
Ba3Mn4PtO12,mp-1228618,0.06820000000000004,2.01989347,0.1938775933645882,"{56: 3, 25: 4, 78: 1, 8: 12}","[8, 25, 56, 78]",812254563781,Ba3Mn4Pt1O12
BaMn6O12,mp-1228093,0.0,3.22936748,0.0005605105833428325,"{56: 1, 25: 6, 8: 12}","[8, 25, 56]",812256561,Ba1Mn6O12
Ba2Nd2Fe(CoO4)3,mp-1228516,0.0,3.57544477,0.08160542400000104,"{56: 2, 60: 2, 26: 1, 27: 3, 8: 12}","[8, 26, 27, 56, 60]",812261273562602,Ba2Nd2Fe1Co3O12
Ba2Ho2Fe(CoO4)3,mp-1228474,0.0,3.68493027,0.16467978546875006,"{56: 2, 67: 2, 26: 1, 27: 3, 8: 12}","[8, 26, 27, 56, 67]",812261273562672,Ba2Ho2Fe1Co3O12
BaFe2(SeO3)4,mp-561035,1.8294000000000001,0.8531783,0.0,"{56: 1, 26: 2, 34: 4, 8: 12}","[8, 26, 34, 56]",812262344561,Ba1Fe2Se4O12
Ba4Fe2MoWO12,mp-1228108,1.2805999999999997,2.93316096,0.2662769252499997,"{56: 4, 26: 2, 42: 1, 74: 1, 8: 12}","[8, 26, 42, 56, 74]",812262421564741,Ba4Fe2Mo1W1O12
Ba2Nd2Fe3CoO12,mp-1228604,0.0,3.38181995,0.09610234458333267,"{56: 2, 60: 2, 26: 3, 27: 1, 8: 12}","[8, 26, 27, 56, 60]",812263271562602,Ba2Nd2Fe3Co1O12
Ba2Tl2Zn3(FeO3)4,mp-1048584,0.0,4.14338016,0.3325483541614913,"{56: 2, 81: 2, 30: 3, 26: 4, 8: 12}","[8, 26, 30, 56, 81]",812264303562812,Ba2Tl2Zn3Fe4O12
BaNb2(FeO3)4,mp-1021950,1.7345000000000002,2.92894152,0.10346740328946602,"{56: 1, 41: 2, 26: 4, 8: 12}","[8, 26, 41, 56]",812264412561,Ba1Nb2Fe4O12
BaNd(FeO3)4,mp-1522481,0.0,1.14002962,0.2050360203819448,"{56: 1, 60: 1, 26: 4, 8: 12}","[8, 26, 56, 60]",812264561601,Ba1Nd1Fe4O12
BaSm(FeO3)4,mp-1523135,0.0,1.10998793,0.2151757869097226,"{56: 1, 62: 1, 26: 4, 8: 12}","[8, 26, 56, 62]",812264561621,Ba1Sm1Fe4O12
BaEu(FeO3)4,mp-1518402,0.0,1.05208063,0.2647781767708359,"{56: 1, 63: 1, 26: 4, 8: 12}","[8, 26, 56, 63]",812264561631,Ba1Eu1Fe4O12
BaDy(FeO3)4,mp-1522063,0.0,1.18457397,0.23861029510416554,"{56: 1, 66: 1, 26: 4, 8: 12}","[8, 26, 56, 66]",812264561661,Ba1Dy1Fe4O12
BaCo(SeO3)4,mp-1521599,0.0,2.73233042,0.6567182241666742,"{56: 1, 27: 1, 34: 4, 8: 12}","[8, 27, 34, 56]",812271344561,Ba1Co1Se4O12
Ba4Co(ReO6)2,mp-1106249,1.536,2.51590114,0.0,"{56: 4, 27: 1, 75: 2, 8: 12}","[8, 27, 56, 75]",812271564752,Ba4Co1Re2O12
Ba4NbCo2MoO12,mp-1228169,0.0,3.31606433,0.02691310212500042,"{56: 4, 41: 1, 27: 2, 42: 1, 8: 12}","[8, 27, 41, 42, 56]",812272411421564,Ba4Nb1Co2Mo1O12
Ba2Tl2Zn3(CoO3)4,mp-1048339,0.0,4.22227332,0.3111176906385955,"{56: 2, 81: 2, 30: 3, 27: 4, 8: 12}","[8, 27, 30, 56, 81]",812274303562812,Ba2Tl2Zn3Co4O12
BaLa3(CoO3)4,mp-1227929,0.0,5.17065787,0.10419803724999976,"{56: 1, 57: 3, 27: 4, 8: 12}","[8, 27, 56, 57]",812274561573,Ba1La3Co4O12
BaNd(CoO3)4,mp-1523095,0.0,1.69816804,0.2602042945833336,"{56: 1, 60: 1, 27: 4, 8: 12}","[8, 27, 56, 60]",812274561601,Ba1Nd1Co4O12
BaNd3(CoO3)4,mp-1227932,0.0,3.93560848,0.038701489750000206,"{56: 1, 60: 3, 27: 4, 8: 12}","[8, 27, 56, 60]",812274561603,Ba1Nd3Co4O12
BaSm(CoO3)4,mp-1516805,0.0,1.70668217,0.2698311677430567,"{56: 1, 62: 1, 27: 4, 8: 12}","[8, 27, 56, 62]",812274561621,Ba1Sm1Co4O12
BaEu(CoO3)4,mp-1518091,0.0,1.3873946,0.6183818552083391,"{56: 1, 63: 1, 27: 4, 8: 12}","[8, 27, 56, 63]",812274561631,Ba1Eu1Co4O12
BaDy(CoO3)4,mp-1521027,0.0,1.73596541,0.2946328157638938,"{56: 1, 66: 1, 27: 4, 8: 12}","[8, 27, 56, 66]",812274561661,Ba1Dy1Co4O12
BaCu(SeO3)4,mp-1521783,0.0,2.72136443,0.6234704488888978,"{56: 1, 29: 1, 34: 4, 8: 12}","[8, 29, 34, 56]",812291344561,Ba1Cu1Se4O12
Ba4YCu(WO6)2,mp-1228051,0.3197000000000001,5.02576678,0.023916539968751316,"{56: 4, 39: 1, 29: 1, 74: 2, 8: 12}","[8, 29, 39, 56, 74]",812291391564742,Ba4Y1Cu1W2O12
Ba4Cu3SeO12,mp-1147525,0.0,2.57924376,0.1562207381249996,"{56: 4, 29: 3, 34: 1, 8: 12}","[8, 29, 34, 56]",812293341564,Ba4Cu3Se1O12
Ba4Cu3MoO12,mp-1232318,0.0,2.75232342,0.1140548705000004,"{56: 4, 29: 3, 42: 1, 8: 12}","[8, 29, 42, 56]",812293421564,Ba4Cu3Mo1O12
Ba3In4(CuO4)3,mp-679985,0.0,4.55861518,0.03481992681816681,"{56: 3, 49: 4, 29: 3, 8: 12}","[8, 29, 49, 56]",812293494563,Ba3In4Cu3O12
Ba4Cu3IO12,mp-1147524,0.001100000000000101,3.07013848,0.11233022660156067,"{56: 4, 29: 3, 53: 1, 8: 12}","[8, 29, 53, 56]",812293531564,Ba4Cu3I1O12
Ba4Cu3ReO12,mp-1147523,0.0,2.69748738,0.10714756800000025,"{56: 4, 29: 3, 75: 1, 8: 12}","[8, 29, 56, 75]",812293564751,Ba4Cu3Re1O12
Ba2Tl2Zn3(CuO3)4,mp-1371798,0.0,4.31021364,0.19018272253623092,"{56: 2, 81: 2, 30: 3, 29: 4, 8: 12}","[8, 29, 30, 56, 81]",812294303562812,Ba2Tl2Zn3Cu4O12
BaLa4Cu5O12,mp-558557,0.0,6.7315208,0.030217943977256745,"{56: 1, 57: 4, 29: 5, 8: 12}","[8, 29, 56, 57]",812295561574,Ba1La4Cu5O12
BaZn(SeO3)4,mp-1521692,0.0,2.95752022,0.6101922729166755,"{56: 1, 30: 1, 34: 4, 8: 12}","[8, 30, 34, 56]",812301344561,Ba1Zn1Se4O12
Ba2La2Zn(WO6)2,mp-41236,2.7794,4.02252233,0.10778037710526434,"{56: 2, 57: 2, 30: 1, 74: 2, 8: 12}","[8, 30, 56, 57, 74]",812301562572742,Ba2La2Zn1W2O12
Ba3LaZnReWO12,mp-684996,2.0437999999999996,3.00622808,0.06119062703945666,"{56: 3, 57: 1, 30: 1, 75: 1, 74: 1, 8: 12}","[8, 30, 56, 57, 74, 75]",812301563571741751,Ba3La1Zn1Re1W1O12
Ba2Tl2Zn3(SnO3)4,mp-1353217,0.0,4.21954659,0.4280729651992816,"{56: 2, 81: 2, 30: 3, 50: 4, 8: 12}","[8, 30, 50, 56, 81]",812303504562812,Ba2Tl2Zn3Sn4O12
Ba2Tl2Zn3(WO3)4,mp-1842679,0.0,4.92354285,0.706034232862315,"{56: 2, 81: 2, 30: 3, 74: 4, 8: 12}","[8, 30, 56, 74, 81]",812303562744812,Ba2Tl2Zn3W4O12
BaEu(GeO3)4,mp-1517779,0.0,-0.91364456,1.3932928623379626,"{56: 1, 63: 1, 32: 4, 8: 12}","[8, 32, 56, 63]",812324561631,Ba1Eu1Ge4O12
Ba3ZrNb5O12,mp-1228321,0.0,5.47289363,0.005887498571436112,"{56: 3, 40: 1, 41: 5, 8: 12}","[8, 40, 41, 56]",812401415563,Ba3Zr1Nb5O12