formula,material_id,band_gap,efermi,energy_above_hull,comp_atoms,sorted_keys_comp_atoms,comp_number,new_formula
Ba2CuIO2,mp-561179,1.9891999999999999,1.80491268,0.0,"{56: 2, 29: 1, 53: 1, 8: 2}","[8, 29, 53, 56]",82291531562,Ba2Cu1I1O2
BaCuO2,mp-997034,0.0,3.03882728,0.0,"{56: 1, 29: 1, 8: 2}","[8, 29, 56]",82291561,Ba1Cu1O2
Ba(CuO)2,mp-7374,1.3862999999999999,3.15895037,0.0,"{56: 1, 29: 2, 8: 2}","[8, 29, 56]",82292561,Ba1Cu2O2
Ba2ZnAg2(SeO)2,mp-622268,1.6140999999999996,2.53177491,0.017617856296299195,"{56: 2, 30: 1, 47: 2, 34: 2, 8: 2}","[8, 30, 34, 47, 56]",82301342472562,Ba2Zn1Ag2Se2O2
BaZnO2,mp-4236,2.2724,1.16992688,0.0,"{56: 1, 30: 1, 8: 2}","[8, 30, 56]",82301561,Ba1Zn1O2
Ba2Zn3(AsO)2,mp-14769,0.11760000000000037,3.29485266,0.012264126018521004,"{56: 2, 30: 3, 33: 2, 8: 2}","[8, 30, 33, 56]",82303332562,Ba2Zn3As2O2
Ba3NaMn4Si6O23,mp-1215159,0.11629999999999985,2.13676255,0.15998971141890816,"{56: 3, 11: 1, 25: 4, 14: 6, 8: 23}","[8, 11, 14, 25, 56]",823111146254563,Ba3Na1Mn4Si6O23
Ba2Na2Zr2Si6O23,mp-1229309,0.008899999999999963,0.29259272,0.2483833986428543,"{56: 2, 11: 2, 40: 2, 14: 6, 8: 23}","[8, 11, 14, 40, 56]",823112146402562,Ba2Na2Zr2Si6O23
Ba3Ta6Si4O23,mp-559929,0.0,4.23265059,0.17775709381560212,"{56: 3, 73: 6, 14: 4, 8: 23}","[8, 14, 56, 73]",823144563736,Ba3Ta6Si4O23
Ba8Mn8O23,mp-760130,0.7296,2.57670535,0.007028340128204746,"{56: 8, 25: 8, 8: 23}","[8, 25, 56]",823258568,Ba8Mn8O23
BaFe15O23,mp-705834,0.7532000000000001,3.56434773,0.2161108350000065,"{56: 1, 26: 15, 8: 23}","[8, 26, 56]",8232615561,Ba1Fe15O23
Ba4La4Co8O23,mp-1228530,0.0,4.42375598,0.05219876583332006,"{56: 4, 57: 4, 27: 8, 8: 23}","[8, 27, 56, 57]",823278564574,Ba4La4Co8O23
Ba4Pr4Co8O23,mp-1228513,0.0,3.44481077,0.06541994679486862,"{56: 4, 59: 4, 27: 8, 8: 23}","[8, 27, 56, 59]",823278564594,Ba4Pr4Co8O23
Ba4Nb14O23,mp-4564,0.0,5.31403718,0.0,"{56: 4, 41: 14, 8: 23}","[8, 41, 56]",8234114564,Ba4Nb14O23
Ba3Nb16O23,mp-5360,0.0,5.32325479,0.0,"{56: 3, 41: 16, 8: 23}","[8, 41, 56]",8234116563,Ba3Nb16O23
Ba2Bi2Se3O2,mp-1104988,1.4192999999999998,4.02676481,0.0,"{56: 2, 83: 2, 34: 3, 8: 2}","[8, 34, 56, 83]",82343562832,Ba2Bi2Se3O2
BaBiBrO2,mp-1206552,3.0690999999999997,1.82984872,0.0,"{56: 1, 83: 1, 35: 1, 8: 2}","[8, 35, 56, 83]",82351561831,Ba1Bi1Br1O2
Ba(BrO)2,mp-1079338,0.0,-0.26979233,0.9137193753333355,"{56: 1, 35: 2, 8: 2}","[8, 35, 56]",82352561,Ba1Br2O2
BaBi2(BrO)2,mp-1227974,0.0,1.75660513,0.48921049714285925,"{56: 1, 83: 2, 35: 2, 8: 2}","[8, 35, 56, 83]",82352561832,Ba1Bi2Br2O2
Ba3(BrO)2,mp-752648,2.2886,1.10334957,0.03527644285714171,"{56: 3, 35: 2, 8: 2}","[8, 35, 56]",82352563,Ba3Br2O2
Ba11W4O23,mp-1247867,1.3523,3.07629086,0.046415821776313315,"{56: 11, 74: 4, 8: 23}","[8, 56, 74]",8235611744,Ba11W4O23
Ba10MgAs6(ClO12)2,mp-1234135,2.475,2.08551713,0.049617504670544044,"{56: 10, 12: 1, 33: 6, 17: 2, 8: 24}","[8, 12, 17, 33, 56]",8241211723365610,Ba10Mg1As6Cl2O24
Ba2La6Mg4Ti3WO24,mp-744094,1.9881000000000002,4.67297455,0.06878224356250051,"{56: 2, 57: 6, 12: 4, 22: 3, 74: 1, 8: 24}","[8, 12, 22, 56, 57, 74]",824124223562576741,Ba2La6Mg4Ti3W1O24
BaLa7Mg5Nb3O24,mp-695250,3.0726000000000004,5.11430726,0.039381979020834734,"{56: 1, 57: 7, 12: 5, 41: 3, 8: 24}","[8, 12, 41, 56, 57]",824125413561577,Ba1La7Mg5Nb3O24
Ba9Sc2(SiO4)6,mp-558428,4.3057,2.00943045,0.006846130518284532,"{56: 9, 21: 2, 14: 6, 8: 24}","[8, 14, 21, 56]",824146212569,Ba9Sc2Si6O24
Ba6ZnCo5(SiO4)6,mp-1120751,3.061,1.91121418,0.015704878988102244,"{56: 6, 30: 1, 27: 5, 14: 6, 8: 24}","[8, 14, 27, 30, 56]",824146275301566,Ba6Zn1Co5Si6O24
Ba9Y2(SiO4)6,mp-1019533,4.5047,1.74921149,0.005350299786576862,"{56: 9, 39: 2, 14: 6, 8: 24}","[8, 14, 39, 56]",824146392569,Ba9Y2Si6O24
Ba2V5(PO6)4,mp-560918,1.0383,0.81431528,0.0031348901428618348,"{56: 2, 23: 5, 15: 4, 8: 24}","[8, 15, 23, 56]",824154235562,Ba2V5P4O24
Ba10P6SO24,mp-16990,3.188,2.10550176,0.0,"{56: 10, 15: 6, 16: 1, 8: 24}","[8, 15, 16, 56]",8241561615610,Ba10P6S1O24
Ba3V4(PO4)6,mp-1228744,2.0378999999999996,2.37714016,0.0,"{56: 3, 23: 4, 15: 6, 8: 24}","[8, 15, 23, 56]",824156234563,Ba3V4P6O24
BaNb2Fe2(PO4)6,mp-705895,2.4457999999999998,0.59844762,0.0,"{56: 1, 41: 2, 26: 2, 15: 6, 8: 24}","[8, 15, 26, 41, 56]",824156262412561,Ba1Nb2Fe2P6O24
BaZr4(PO4)6,mp-560308,4.0386,-0.05201981,0.0,"{56: 1, 40: 4, 15: 6, 8: 24}","[8, 15, 40, 56]",824156404561,Ba1Zr4P6O24
BaMn5(SO4)6,mp-1215056,4.3486,1.38667516,0.0,"{56: 1, 25: 5, 16: 6, 8: 24}","[8, 16, 25, 56]",824166255561,Ba1Mn5S6O24
Ba12MnRu5(ClO6)4,mp-1228797,0.0043000000000001926,2.6708686,0.03980373955315386,"{56: 12, 25: 1, 44: 5, 17: 4, 8: 24}","[8, 17, 25, 44, 56]",8241742514455612,Ba12Mn1Ru5Cl4O24
K6Ba2CaU6O24,mp-1224235,2.0426,3.98666482,0.018441113205144077,"{19: 6, 56: 2, 20: 1, 92: 6, 8: 24}","[8, 19, 20, 56, 92]",824196201562926,K6Ba2Ca1U6O24
Ba8CaY3(CuO2)12,mp-1228323,0.0,3.25251716,0.010950198098955255,"{56: 8, 20: 1, 39: 3, 29: 12, 8: 24}","[8, 20, 29, 39, 56]",8242012912393568,Ba8Ca1Y3Cu12O24
Ba8CaY2U4O24,mp-667498,1.9746000000000001,2.76397372,0.0,"{56: 8, 20: 1, 39: 2, 92: 4, 8: 24}","[8, 20, 39, 56, 92]",824201392568924,Ba8Ca1Y2U4O24
Ba8Ca3Nb5O24,mp-1228256,0.0,1.861901,0.023017569500000334,"{56: 8, 20: 3, 41: 5, 8: 24}","[8, 20, 41, 56]",824203415568,Ba8Ca3Nb5O24
BaMoO2,mp-1214454,0.4629000000000003,3.49385487,0.4313489699999975,"{56: 1, 42: 1, 8: 2}","[8, 42, 56]",82421561,Ba1Mo1O2
Ba2Ti11O24,mp-768357,2.3419999999999996,2.06114883,0.034360011925677725,"{56: 2, 22: 11, 8: 24}","[8, 22, 56]",8242211562,Ba2Ti11O24
Ba6Nd3TiCu6(MoO12)2,mp-1228694,0.0,4.09784342,0.02276322892857152,"{56: 6, 60: 3, 22: 1, 29: 6, 42: 2, 8: 24}","[8, 22, 29, 42, 56, 60]",824221296422566603,Ba6Nd3Ti1Cu6Mo2O24
Ba8Ti3Nb4O24,mp-1228557,1.9693,4.28357871,0.01846190538463155,"{56: 8, 22: 3, 41: 4, 8: 24}","[8, 22, 41, 56]",824223414568,Ba8Ti3Nb4O24
Ba8Nb6CoO24,mp-562226,0.0,3.3974543,0.003443171282047075,"{56: 8, 41: 6, 27: 1, 8: 24}","[8, 27, 41, 56]",824271416568,Ba8Nb6Co1O24
Ba6Pr2Y(CuO2)12,mp-1228680,0.0,3.23727402,0.010641616666666742,"{56: 6, 59: 2, 39: 1, 29: 12, 8: 24}","[8, 29, 39, 56, 59]",8242912391566592,Ba6Pr2Y1Cu12O24
Ba6Nd2Y(CuO2)12,mp-1228560,0.0,3.22833918,0.0,"{56: 6, 60: 2, 39: 1, 29: 12, 8: 24}","[8, 29, 39, 56, 60]",8242912391566602,Ba6Nd2Y1Cu12O24
Ba8Y4Cu(WO8)3,mp-1228285,0.15850000000000009,4.06108677,0.010817920456251073,"{56: 8, 39: 4, 29: 1, 74: 3, 8: 24}","[8, 29, 39, 56, 74]",824291394568743,Ba8Y4Cu1W3O24
Ba2Cu7(AsO4)6,mp-560007,0.23980000000000024,2.3044911,0.013767637307675606,"{56: 2, 29: 7, 33: 6, 8: 24}","[8, 29, 33, 56]",824297336562,Ba2Cu7As6O24
Ba8Zr3(SbO6)4,mp-667372,2.8434000000000004,2.95059265,0.0,"{56: 8, 40: 3, 51: 4, 8: 24}","[8, 40, 51, 56]",824403514568,Ba8Zr3Sb4O24
Ba8Nb7O24,mp-780569,0.0,4.42050689,0.030161239487220826,"{56: 8, 41: 7, 8: 24}","[8, 41, 56]",824417568,Ba8Nb7O24
Ba9(RhO3)8,mp-554262,0.0,3.06583231,0.0,"{56: 9, 45: 8, 8: 24}","[8, 45, 56]",824458569,Ba9Rh8O24
Ba8Ce3(SbO6)4,mp-561045,1.8772000000000006,3.15066021,0.0,"{56: 8, 58: 3, 51: 4, 8: 24}","[8, 51, 56, 58]",824514568583,Ba8Ce3Sb4O24
Ba11(OsO6)4,mp-559484,0.0,3.31914987,0.0,"{56: 11, 76: 4, 8: 24}","[8, 56, 76]",8245611764,Ba11Os4O24
Ba7Pb17O24,mp-758059,2.1197000000000004,3.17098349,0.009378800520833508,"{56: 7, 82: 17, 8: 24}","[8, 56, 82]",8245678217,Ba7Pb17O24
Ba7U7O24,mp-685632,0.34160000000000057,5.62384933,0.044205615921052654,"{56: 7, 92: 7, 8: 24}","[8, 56, 92]",824567927,Ba7U7O24
Ba8Ta7O24,mp-773073,0.0,5.06860496,0.04219422357950364,"{56: 8, 73: 7, 8: 24}","[8, 56, 73]",824568737,Ba8Ta7O24
Ba8Re2(WO8)3,mp-581446,0.0,2.9308259,0.047705244408781766,"{56: 8, 75: 2, 74: 3, 8: 24}","[8, 56, 74, 75]",824568743752,Ba8Re2W3O24
BaAgO2,mp-996990,0.0,1.64758652,0.0,"{56: 1, 47: 1, 8: 2}","[8, 47, 56]",82471561,Ba1Ag1O2
Ba(AgO)2,mp-1096838,1.7273,1.453641,0.0016923506666781662,"{56: 1, 47: 2, 8: 2}","[8, 47, 56]",82472561,Ba1Ag2O2
BaCdO2,mp-7899,0.9746999999999999,1.79066562,0.0,"{56: 1, 48: 1, 8: 2}","[8, 48, 56]",82481561,Ba1Cd1O2
Ba5Cd2(Sb2O)2,mp-1104876,0.0,3.70520734,0.0,"{56: 5, 48: 2, 51: 4, 8: 2}","[8, 48, 51, 56]",82482514565,Ba5Cd2Sb4O2
Ba4Na3Nd3P6(O12F)2,mp-720230,4.8457,1.45061661,0.006394664119038218,"{56: 4, 11: 3, 60: 3, 15: 6, 8: 24, 9: 2}","[8, 9, 11, 15, 56, 60]",82492113156564603,Ba4Na3Nd3P6O24F2
Ba10MgMn6(O12F)2,mp-1233725,1.0333,1.45222274,0.09066686527131385,"{56: 10, 12: 1, 25: 6, 8: 24, 9: 2}","[8, 9, 12, 25, 56]",824921212565610,Ba10Mg1Mn6O24F2
BaNa5Ca7P6(O8F)3,mp-693753,4.816800000000001,1.67336383,0.0,"{56: 1, 11: 5, 20: 7, 15: 6, 8: 24, 9: 3}","[8, 9, 11, 15, 20, 56]",82493115156207561,Ba1Na5Ca7P6O24F3
Ba4Ti6Si4O25,mp-1214645,0.0,1.81263075,0.059445059551279655,"{56: 4, 22: 6, 14: 4, 8: 25}","[8, 14, 22, 56]",825144226564,Ba4Ti6Si4O25
Ba10Fe8Pt2Cl2O25,mp-1228981,0.0,2.51214696,0.024698000035433765,"{56: 10, 26: 8, 78: 2, 17: 2, 8: 25}","[8, 17, 26, 56, 78]",8251722685610782,Ba10Fe8Pt2Cl2O25
Ba8Ca4Cu8Hg4O25,mp-1228371,0.0,2.57270122,0.030428928061227545,"{56: 8, 20: 4, 29: 8, 80: 4, 8: 25}","[8, 20, 29, 56, 80]",825204298568804,Ba8Ca4Cu8Hg4O25
Ba6Ca6Cu9Hg3O25,mp-1228760,0.0,2.73604794,0.03218667394558761,"{56: 6, 20: 6, 29: 9, 80: 3, 8: 25}","[8, 20, 29, 56, 80]",825206299566803,Ba6Ca6Cu9Hg3O25
BaBiIO2,mp-551243,2.7204,2.32863226,0.0,"{56: 1, 83: 1, 53: 1, 8: 2}","[8, 53, 56, 83]",82531561831,Ba1Bi1I1O2
BaBi2(IO)2,mp-1228023,0.0,2.18558819,0.4821751674999959,"{56: 1, 83: 2, 53: 2, 8: 2}","[8, 53, 56, 83]",82532561832,Ba1Bi2I2O2
Ba6Te10Br2O25,mp-1197646,3.0219000000000005,2.34900241,0.0,"{56: 6, 52: 10, 35: 2, 8: 25}","[8, 35, 52, 56]",8253525210566,Ba6Te10Br2O25
BaMo6I2O25,mp-1201115,0.0,0.41016168,0.058933862352936295,"{56: 1, 42: 6, 53: 2, 8: 25}","[8, 42, 53, 56]",825426532561,Ba1Mo6I2O25
Cs2BaO2,mp-755217,1.4555,1.98764304,0.05264612100000399,"{55: 2, 56: 1, 8: 2}","[8, 55, 56]",82552561,Cs2Ba1O2
BaO2,mp-1105,2.2352,2.22834475,0.0,"{56: 1, 8: 2}","[8, 56]",82561,Ba1O2
BaEuO2,mp-754392,0.0,4.127833,0.029847104999999985,"{56: 1, 63: 1, 8: 2}","[8, 56, 63]",82561631,Ba1Eu1O2
BaWO2,mp-1214266,0.0,3.60431146,0.8339715039583346,"{56: 1, 74: 1, 8: 2}","[8, 56, 74]",82561741,Ba1W1O2
BaOsO2,mp-1214372,0.0,4.25327413,0.7781120142788476,"{56: 1, 76: 1, 8: 2}","[8, 56, 76]",82561761,Ba1Os1O2
BaAuO2,mp-997009,0.9856000000000003,2.19428852,0.029478256302081896,"{56: 1, 79: 1, 8: 2}","[8, 56, 79]",82561791,Ba1Au1O2
BaHgO2,mp-3915,2.2727,-0.14778873,0.0,"{56: 1, 80: 1, 8: 2}","[8, 56, 80]",82561801,Ba1Hg1O2
Ba4Na2CaTi3Si4(SO13)2,mp-561052,2.1206000000000005,2.73062453,0.020343354761898524,"{56: 4, 11: 2, 20: 1, 22: 3, 14: 4, 16: 2, 8: 26}","[8, 11, 14, 16, 20, 22, 56]",826112144162201223564,Ba4Na2Ca1Ti3Si4S2O26
BaMg2V6(Cu4O13)2,mp-1228514,0.0,2.16902725,0.0370318130232592,"{56: 1, 12: 2, 23: 6, 29: 8, 8: 26}","[8, 12, 23, 29, 56]",826122236298561,Ba1Mg2V6Cu8O26
K4BaTa6(Si2O13)2,mp-677011,2.8469999999999995,1.47942252,0.0014952201625977324,"{19: 4, 56: 1, 73: 6, 14: 4, 8: 26}","[8, 14, 19, 56, 73]",826144194561736,K4Ba1Ta6Si4O26
Ba3Nb6(Si2O13)2,mp-6101,2.281,1.00711561,0.0,"{56: 3, 41: 6, 14: 4, 8: 26}","[8, 14, 41, 56]",826144416563,Ba3Nb6Si4O26
Ba3Ta6(Si2O13)2,mp-6169,3.0288000000000004,1.26013209,0.0,"{56: 3, 73: 6, 14: 4, 8: 26}","[8, 14, 56, 73]",826144563736,Ba3Ta6Si4O26
BaLa8Co(Si3O13)2,mp-1228420,2.6382000000000003,7.01700716,0.019957081934522947,"{56: 1, 57: 8, 27: 1, 14: 6, 8: 26}","[8, 14, 27, 56, 57]",826146271561578,Ba1La8Co1Si6O26
Ba2Ce2Ti2Fe(Si4O13)2,mp-1229035,0.2190000000000003,3.45768999,0.025105135447146765,"{56: 2, 58: 2, 22: 2, 26: 1, 14: 8, 8: 26}","[8, 14, 22, 26, 56, 58]",826148222261562582,Ba2Ce2Ti2Fe1Si8O26
Ba3(P3O13)2,mp-729070,0.14229999999999998,-0.72476861,0.5746466520714337,"{56: 3, 15: 6, 8: 26}","[8, 15, 56]",826156563,Ba3P6O26
Ba4Ti11O26,mp-1228496,2.5309,1.82348871,0.022327045073190277,"{56: 4, 22: 11, 8: 26}","[8, 22, 56]",8262211564,Ba4Ti11O26
BaMn9V6O26,mp-1196033,0.006200000000000205,2.43009643,0.04291442624999853,"{56: 1, 25: 9, 23: 6, 8: 26}","[8, 23, 25, 56]",826236259561,Ba1Mn9V6O26
Ba5Eu5(Fe5O13)2,mp-1228898,0.03849999999999998,3.79663758,0.048403323066786186,"{56: 5, 63: 5, 26: 10, 8: 26}","[8, 26, 56, 63]",8262610565635,Ba5Eu5Fe10O26
Ba6Ga2Co11O26,mp-562771,0.0,3.18713152,0.07410870561110983,"{56: 6, 31: 2, 27: 11, 8: 26}","[8, 27, 31, 56]",8262711312566,Ba6Ga2Co11O26
Ba4Ti12O27,mp-15761,0.0,5.06480222,0.002849577488314381,"{56: 4, 22: 12, 8: 27}","[8, 22, 56]",8272212564,Ba4Ti12O27
Ba(Fe2O3)9,mp-566548,0.049599999999999866,4.44905584,0.07429387739131954,"{56: 1, 26: 18, 8: 27}","[8, 26, 56]",8272618561,Ba1Fe18O27
Ba8Y4(Cu4O9)3,mp-1228425,0.0,3.28753704,0.026429910367645526,"{56: 8, 39: 4, 29: 12, 8: 27}","[8, 29, 39, 56]",8272912394568,Ba8Y4Cu12O27
Ba8Gd4(Cu4O9)3,mp-1229327,0.0,3.28151355,0.027508978921563454,"{56: 8, 64: 4, 29: 12, 8: 27}","[8, 29, 56, 64]",8272912568644,Ba8Gd4Cu12O27
BaNb6Bi6Pb2O27,mp-1228615,0.9104000000000001,4.38580395,0.04136480599999803,"{56: 1, 41: 6, 83: 6, 82: 2, 8: 27}","[8, 41, 56, 82, 83]",827416561822836,Ba1Nb6Bi6Pb2O27
Ba9Rh8O27,mp-772389,0.0,2.78414633,0.0,"{56: 9, 45: 8, 8: 27}","[8, 45, 56]",827458569,Ba9Rh8O27
Ba8Bi10O27,mp-761784,0.0,4.46939997,0.08231576733333679,"{56: 8, 83: 10, 8: 27}","[8, 56, 83]",8275688310,Ba8Bi10O27
K3Ba7Ti10(O9F)3,mp-39699,0.2909999999999999,3.9479468,0.06345999294999949,"{19: 3, 56: 7, 22: 10, 8: 27, 9: 3}","[8, 9, 19, 22, 56]",827931932210567,K3Ba7Ti10O27F3
K2BaNa2Ti4Si8(WO7)4,mp-1212630,0.10389999999999944,4.75792237,0.41188955663265325,"{19: 2, 56: 1, 11: 2, 22: 4, 14: 8, 74: 4, 8: 28}","[8, 11, 14, 19, 22, 56, 74]",828112148192224561744,K2Ba1Na2Ti4Si8W4O28
Ba4MgMn4(P2O7)4,mp-1234981,1.3304999999999998,4.18302597,0.10667593592065039,"{56: 4, 12: 1, 25: 4, 15: 8, 8: 28}","[8, 12, 15, 25, 56]",828121158254564,Ba4Mg1Mn4P8O28
Ba2MgMo4(P2O7)4,mp-1233692,2.9006,2.80431266,0.08789843015238041,"{56: 2, 12: 1, 42: 4, 15: 8, 8: 28}","[8, 12, 15, 42, 56]",828121158424562,Ba2Mg1Mo4P8O28
Ba10MgMn3V8(Cl3O7)4,mp-1228946,2.4433,1.21846717,0.006281798185449716,"{56: 10, 12: 1, 25: 3, 23: 8, 17: 12, 8: 28}","[8, 12, 17, 23, 25, 56]",82812117122382535610,Ba10Mg1Mn3V8Cl12O28
Ba2Zn(P3O14)2,mp-1182747,0.9096000000000001,-1.18024918,0.30855106574321933,"{56: 2, 30: 1, 15: 6, 8: 28}","[8, 15, 30, 56]",828156301562,Ba2Zn1P6O28
Ba3Fe4P8PbO28,mp-1228512,4.0495,1.88641276,0.0,"{56: 3, 26: 4, 15: 8, 82: 1, 8: 28}","[8, 15, 26, 56, 82]",828158264563821,Ba3Fe4P8Pb1O28
KBa3Ca4V7Cu3O28,mp-557801,0.0,1.63996083,0.021059016847817524,"{19: 1, 56: 3, 20: 4, 23: 7, 29: 3, 8: 28}","[8, 19, 20, 23, 29, 56]",828191204237293563,K1Ba3Ca4V7Cu3O28
BaTi14O28,mp-773131,0.0,4.17857536,0.03376963872092986,"{56: 1, 22: 14, 8: 28}","[8, 22, 56]",8282214561,Ba1Ti14O28
Ba4Cr13O28,mp-1228860,0.0,2.89206887,0.1112580937222365,"{56: 4, 24: 13, 8: 28}","[8, 24, 56]",8282413564,Ba4Cr13O28
Ba8PrY3(Cu3O7)4,mp-1228958,0.0,3.30045068,0.03299764554487172,"{56: 8, 59: 1, 39: 3, 29: 12, 8: 28}","[8, 29, 39, 56, 59]",8282912393568591,Ba8Pr1Y3Cu12O28
Ba3(Mo9O14)2,mp-530107,0.7694000000000001,4.20198494,0.3824004576530644,"{56: 3, 42: 18, 8: 28}","[8, 42, 56]",8284218563,Ba3Mo18O28
Ba3(RhO2)14,mp-758025,0.0,5.4587667,0.0,"{56: 3, 45: 14, 8: 28}","[8, 45, 56]",8284514563,Ba3Rh14O28
BaScO2F,mp-1227813,2.9861999999999997,3.15721125,0.09043433516666433,"{56: 1, 21: 1, 8: 2, 9: 1}","[8, 9, 21, 56]",8291211561,Ba1Sc1O2F1
BaFeO2F,mp-1227945,0.4455,3.71523463,0.12902368499999817,"{56: 1, 26: 1, 8: 2, 9: 1}","[8, 9, 26, 56]",8291261561,Ba1Fe1O2F1
Ba6Ca6Tl5Cu9O29,mp-680433,0.0,3.93233435,0.02378713050000325,"{56: 6, 20: 6, 81: 5, 29: 9, 8: 29}","[8, 20, 29, 56, 81]",829206299566815,Ba6Ca6Tl5Cu9O29
Ba10V10O29,mp-766994,0.7658000000000005,3.60318905,0.15582743693874157,"{56: 10, 23: 10, 8: 29}","[8, 23, 56]",82923105610,Ba10V10O29
Ba2Pd(OF)2,mp-6123,0.0,1.52567126,0.05180292250000029,"{56: 2, 46: 1, 8: 2, 9: 2}","[8, 9, 46, 56]",8292461562,Ba2Pd1O2F2
Ba11Cu4Bi9O29,mp-1229289,0.0,3.72655753,0.10826923877359818,"{56: 11, 29: 4, 83: 9, 8: 29}","[8, 29, 56, 83]",8292945611839,Ba11Cu4Bi9O29
Ba11Cu5Bi8O29,mp-1215097,0.0,3.24598878,0.1299084860377473,"{56: 11, 29: 5, 83: 8, 8: 29}","[8, 29, 56, 83]",8292955611838,Ba11Cu5Bi8O29
Ba7Fe6(OF16)2,mp-821363,0.8217000000000001,-1.68897395,0.11018407659574336,"{56: 7, 26: 6, 8: 2, 9: 32}","[8, 9, 26, 56]",82932266567,Ba7Fe6O2F32
Ba7Na3Ti7Nb3O30,mp-695409,1.1139999999999999,2.75263637,0.027278752799990258,"{56: 7, 11: 3, 22: 7, 41: 3, 8: 30}","[8, 11, 22, 41, 56]",830113227413567,Ba7Na3Ti7Nb3O30
BaNa4Ti2(Si2O5)6,mp-1214578,0.0,6.32249787,0.04184719068451237,"{56: 1, 11: 4, 22: 2, 14: 12, 8: 30}","[8, 11, 14, 22, 56]",8301141412222561,Ba1Na4Ti2Si12O30
Ba3Na7Ti3Nb7O30,mp-676975,1.1087000000000002,2.28716428,0.03956628299999032,"{56: 3, 11: 7, 22: 3, 41: 7, 8: 30}","[8, 11, 22, 41, 56]",830117223417563,Ba3Na7Ti3Nb7O30
Ba4MgTa10O30,mp-1228584,2.4682000000000004,1.81436181,0.0,"{56: 4, 12: 1, 73: 10, 8: 30}","[8, 12, 56, 73]",8301215647310,Ba4Mg1Ta10O30
BaMg2Al6(Si3O10)3,mp-694056,3.8653,2.06177198,0.028005826944449197,"{56: 1, 12: 2, 13: 6, 14: 9, 8: 30}","[8, 12, 13, 14, 56]",830122136149561,Ba1Mg2Al6Si9O30
Ba10Mg3ZrTa6O30,mp-686330,0.0,3.80134835,0.11160870730000205,"{56: 10, 12: 3, 40: 1, 73: 6, 8: 30}","[8, 12, 40, 56, 73]",8301234015610736,Ba10Mg3Zr1Ta6O30
Ba12Sm4Al3(CoO6)5,mp-1229173,0.6442999999999999,3.42112898,0.0174548938580239,"{56: 12, 62: 4, 13: 3, 27: 5, 8: 30}","[8, 13, 27, 56, 62]",8301332755612624,Ba12Sm4Al3Co5O30
K2Ba5(Si2O5)6,mp-1223764,4.71,5.47637062,0.0004005509693740805,"{19: 2, 56: 5, 14: 12, 8: 30}","[8, 14, 19, 56]",8301412192565,K2Ba5Si12O30
Ba2Zn3(PO3)10,mp-555980,4.5931,0.28294667,0.006208655611095182,"{56: 2, 30: 3, 15: 10, 8: 30}","[8, 15, 30, 56]",8301510303562,Ba2Zn3P10O30
Ba9Ca3La4(Fe4O15)2,mp-1228537,2.4090999999999996,5.45709962,0.0,"{56: 9, 20: 3, 57: 4, 26: 8, 8: 30}","[8, 20, 26, 56, 57]",830203268569574,Ba9Ca3La4Fe8O30
Ba4Ti13O30,mp-29298,2.5294999999999996,1.8890187,0.0,"{56: 4, 22: 13, 8: 30}","[8, 22, 56]",8302213564,Ba4Ti13O30
Ba3La7Ti3Cr7O30,mp-697840,1.5262000000000002,7.43735947,0.029514669550007255,"{56: 3, 57: 7, 22: 3, 24: 7, 8: 30}","[8, 22, 24, 56, 57]",830223247563577,Ba3La7Ti3Cr7O30
Ba3La7Mn(Co3O10)3,mp-704461,0.0,5.7886648,0.14774153959997083,"{56: 3, 57: 7, 25: 1, 27: 9, 8: 30}","[8, 25, 27, 56, 57]",830251279563577,Ba3La7Mn1Co9O30
Ba4La6Mn(Co3O10)3,mp-720103,0.0,5.38045276,0.1650313596999915,"{56: 4, 57: 6, 25: 1, 27: 9, 8: 30}","[8, 25, 27, 56, 57]",830251279564576,Ba4La6Mn1Co9O30
Ba3La7Mn2(Co4O15)2,mp-694945,0.0,5.83127926,0.22498916250000445,"{56: 3, 57: 7, 25: 2, 27: 8, 8: 30}","[8, 25, 27, 56, 57]",830252278563577,Ba3La7Mn2Co8O30
Ba4La6Mn5In5O30,mp-720201,0.0,5.08702284,0.12618555714167012,"{56: 4, 57: 6, 25: 5, 49: 5, 8: 30}","[8, 25, 49, 56, 57]",830255495564576,Ba4La6Mn5In5O30
Ba4Ta10FeO30,mp-1228547,2.0406999999999997,2.25247668,0.0,"{56: 4, 73: 10, 26: 1, 8: 30}","[8, 26, 56, 73]",8302615647310,Ba4Ta10Fe1O30
Ba6Nb9CoO30,mp-1228527,0.0,3.37306125,0.040262772237305455,"{56: 6, 41: 9, 27: 1, 8: 30}","[8, 27, 41, 56]",830271419566,Ba6Nb9Co1O30
Ba4Ta10CoO30,mp-1228585,2.4312000000000005,1.90207924,0.0,"{56: 4, 73: 10, 27: 1, 8: 30}","[8, 27, 56, 73]",8302715647310,Ba4Ta10Co1O30
Ba10Co7(IrO10)3,mp-1229198,0.0,2.90177722,0.06942733620000396,"{56: 10, 27: 7, 77: 3, 8: 30}","[8, 27, 56, 77]",8302775610773,Ba10Co7Ir3O30
Ba10Zn4Cu(WO6)5,mp-1229016,0.0,3.07059983,0.013276601250001185,"{56: 10, 30: 4, 29: 1, 74: 5, 8: 30}","[8, 29, 30, 56, 74]",8302913045610745,Ba10Zn4Cu1W5O30
Ba10Nd4Y(MoO6)5,mp-1228897,0.0,4.5116165,0.0,"{56: 10, 60: 4, 39: 1, 42: 5, 8: 30}","[8, 39, 42, 56, 60]",8303914255610604,Ba10Nd4Y1Mo5O30
Ba9Nb10O30,mp-33581,0.0,4.97598431,0.0,"{56: 9, 41: 10, 8: 30}","[8, 41, 56]",8304110569,Ba9Nb10O30
Ba10Pr5Nb(Sn2O15)2,mp-691043,0.0,2.12753111,0.046159872096881216,"{56: 10, 59: 5, 41: 1, 50: 4, 8: 30}","[8, 41, 50, 56, 59]",8304115045610595,Ba10Pr5Nb1Sn4O30
Ba10Pr5Nb2(SnO10)3,mp-1229129,0.0,2.01539191,0.033753985990622404,"{56: 10, 59: 5, 41: 2, 50: 3, 8: 30}","[8, 41, 50, 56, 59]",8304125035610595,Ba10Pr5Nb2Sn3O30