formula,material_id,band_gap,efermi,energy_above_hull,comp_atoms,sorted_keys_comp_atoms,comp_number,new_formula
BaAlCrCuO5,mp-1042497,0.0,4.62680141,0.9613345087500154,"{56: 1, 13: 1, 24: 1, 29: 1, 8: 5}","[8, 13, 24, 29, 56]",85131241291561,Ba1Al1Cr1Cu1O5
BaMnAlCuO5,mp-1042474,0.0,4.31035324,0.3980793011574093,"{56: 1, 25: 1, 13: 1, 29: 1, 8: 5}","[8, 13, 25, 29, 56]",85131251291561,Ba1Mn1Al1Cu1O5
BaAlFeCuO5,mp-1042464,0.0,4.44866964,0.35799235708334276,"{56: 1, 13: 1, 26: 1, 29: 1, 8: 5}","[8, 13, 26, 29, 56]",85131261291561,Ba1Al1Fe1Cu1O5
BaAlCoCuO5,mp-1042494,0.0,4.22810715,0.3691646738628567,"{56: 1, 13: 1, 27: 1, 29: 1, 8: 5}","[8, 13, 27, 29, 56]",85131271291561,Ba1Al1Co1Cu1O5
BaAlCuMoO5,mp-1042504,0.0,5.94860836,0.654299614305554,"{56: 1, 13: 1, 29: 1, 42: 1, 8: 5}","[8, 13, 29, 42, 56]",85131291421561,Ba1Al1Cu1Mo1O5
BaAlCuAgO5,mp-1268088,0.0,2.51339304,0.2498656542508355,"{56: 1, 13: 1, 29: 1, 47: 1, 8: 5}","[8, 13, 29, 47, 56]",85131291471561,Ba1Al1Cu1Ag1O5
BaAlCuSnO5,mp-1042199,0.0,6.703201,0.5443008776388893,"{56: 1, 13: 1, 29: 1, 50: 1, 8: 5}","[8, 13, 29, 50, 56]",85131291501561,Ba1Al1Cu1Sn1O5
BaAlCuSbO5,mp-1266326,0.0,4.8696704,0.6400197020833351,"{56: 1, 13: 1, 29: 1, 51: 1, 8: 5}","[8, 13, 29, 51, 56]",85131291511561,Ba1Al1Cu1Sb1O5
BaAlCuWO5,mp-1044976,0.0,3.944424,0.6556418059314844,"{56: 1, 13: 1, 29: 1, 74: 1, 8: 5}","[8, 13, 29, 56, 74]",85131291561741,Ba1Al1Cu1W1O5
BaAlCuBiO5,mp-1042180,0.0,4.7733489,0.45737773576388996,"{56: 1, 13: 1, 29: 1, 83: 1, 8: 5}","[8, 13, 29, 56, 83]",85131291561831,Ba1Al1Cu1Bi1O5
BaAlCu2O5,mp-1042186,0.0,4.54511375,0.37168098423202967,"{56: 1, 13: 1, 29: 2, 8: 5}","[8, 13, 29, 56]",85131292561,Ba1Al1Cu2O5
Ba2AlInO5,mp-556282,2.0183,3.03224632,0.005472766504630577,"{56: 2, 13: 1, 49: 1, 8: 5}","[8, 13, 49, 56]",85131491562,Ba2Al1In1O5
BaAlO5,mp-727209,0.9823999999999999,-0.88643875,0.4562665463798714,"{56: 1, 13: 1, 8: 5}","[8, 13, 56]",85131561,Ba1Al1O5
Ba2NdAlO5,mp-555284,3.4133000000000004,1.87247387,0.012793212291665412,"{56: 2, 60: 1, 13: 1, 8: 5}","[8, 13, 56, 60]",85131562601,Ba2Nd1Al1O5
Ba3SiO5,mp-7765,3.5341,2.74264082,0.004116449722221915,"{56: 3, 14: 1, 8: 5}","[8, 14, 56]",85141563,Ba3Si1O5
BaSi2O5,mp-3031,4.7582,1.06638033,0.0,"{56: 1, 14: 2, 8: 5}","[8, 14, 56]",85142561,Ba1Si2O5
Ba21Si2O5,mp-563032,0.0,2.50133864,0.06838188348214214,"{56: 21, 14: 2, 8: 5}","[8, 14, 56]",851425621,Ba21Si2O5
BaP2O5,mp-1214387,0.7808999999999999,2.02854018,0.4377952785803645,"{56: 1, 15: 2, 8: 5}","[8, 15, 56]",85152561,Ba1P2O5
Ba6V4S11O5,mp-556461,1.9141000000000001,3.51013861,0.09427639135989008,"{56: 6, 23: 4, 16: 11, 8: 5}","[8, 16, 23, 56]",851611234566,Ba6V4S11O5
BaFeCuPb2ClO5,mp-1228046,0.0,4.27343403,0.031806408124997354,"{56: 1, 26: 1, 29: 1, 82: 2, 17: 1, 8: 5}","[8, 17, 26, 29, 56, 82]",85171261291561822,Ba1Fe1Cu1Pb2Cl1O5
Ba3Fe2Cl2O5,mp-560330,2.4471,1.12701499,0.0,"{56: 3, 26: 2, 17: 2, 8: 5}","[8, 17, 26, 56]",85172262563,Ba3Fe2Cl2O5
Ba3In2Cl2O5,mp-559933,1.4236000000000004,2.93125275,0.004979269166671685,"{56: 3, 49: 2, 17: 2, 8: 5}","[8, 17, 49, 56]",85172492563,Ba3In2Cl2O5
Ba3WCl2O5,mp-553883,3.9374,0.87689781,0.0,"{56: 3, 74: 1, 17: 2, 8: 5}","[8, 17, 56, 74]",85172563741,Ba3W1Cl2O5
Ba3Tl2Cl2O5,mp-557692,0.0,2.91052698,0.023147248263875042,"{56: 3, 81: 2, 17: 2, 8: 5}","[8, 17, 56, 81]",85172563812,Ba3Tl2Cl2O5
BaCa2Cu3O5,mp-1214453,0.0,3.95112094,0.19563922378788057,"{56: 1, 20: 2, 29: 3, 8: 5}","[8, 20, 29, 56]",85202293561,Ba1Ca2Cu3O5
Ba2Sc2O5,mp-755950,2.7100000000000004,2.22048198,0.0,"{56: 2, 21: 2, 8: 5}","[8, 21, 56]",85212562,Ba2Sc2O5
K6Ba3Ta12(Si2O13)4,mp-677080,2.9397,1.36111524,0.0014268892592497195,"{19: 6, 56: 3, 73: 12, 14: 8, 8: 52}","[8, 14, 19, 56, 73]",8521481965637312,K6Ba3Ta12Si8O52
BaYTiCuO5,mp-1389826,0.0,5.56523584,0.1604235393749942,"{56: 1, 39: 1, 22: 1, 29: 1, 8: 5}","[8, 22, 29, 39, 56]",85221291391561,Ba1Y1Ti1Cu1O5
Ba3TiO5,mp-1214495,2.5342000000000002,2.61155525,0.008088311666664794,"{56: 3, 22: 1, 8: 5}","[8, 22, 56]",85221563,Ba3Ti1O5
BaTi2O5,mp-558159,2.8033,1.65799044,0.0,"{56: 1, 22: 2, 8: 5}","[8, 22, 56]",85222561,Ba1Ti2O5
Ba2Ti2O5,mp-1076521,0.0,4.99663094,0.08413104500000834,"{56: 2, 22: 2, 8: 5}","[8, 22, 56]",85222562,Ba2Ti2O5
BaYVCuO5,mp-1042482,0.0,4.89362607,0.23684295736110172,"{56: 1, 39: 1, 23: 1, 29: 1, 8: 5}","[8, 23, 29, 39, 56]",85231291391561,Ba1Y1V1Cu1O5
Ba3VO5,mp-1214496,1.2467000000000001,4.51391411,0.012888804722228642,"{56: 3, 23: 1, 8: 5}","[8, 23, 56]",85231563,Ba3V1O5
Ba2V2O5,mp-1304744,0.02120000000000033,3.82160363,0.08176952843750218,"{56: 2, 23: 2, 8: 5}","[8, 23, 56]",85232562,Ba2V2O5
BaYCrCuO5,mp-1042475,0.0,3.69096136,0.5715797513194527,"{56: 1, 39: 1, 24: 1, 29: 1, 8: 5}","[8, 24, 29, 39, 56]",85241291391561,Ba1Y1Cr1Cu1O5
Ba3CrO5,mp-19197,1.5029000000000003,2.55374941,0.0019641088888793234,"{56: 3, 24: 1, 8: 5}","[8, 24, 56]",85241563,Ba3Cr1O5
BaYMnCoO5,mp-1277516,0.1871000000000005,4.04872077,0.032196354131949434,"{56: 1, 39: 1, 25: 1, 27: 1, 8: 5}","[8, 25, 27, 39, 56]",85251271391561,Ba1Y1Mn1Co1O5
BaNdMnCoO5,mp-1227840,0.0,3.467074,0.025431837333330876,"{56: 1, 60: 1, 25: 1, 27: 1, 8: 5}","[8, 25, 27, 56, 60]",85251271561601,Ba1Nd1Mn1Co1O5
BaYMnCuO5,mp-1308658,0.0,3.73986698,0.05512282696759385,"{56: 1, 39: 1, 25: 1, 29: 1, 8: 5}","[8, 25, 29, 39, 56]",85251291391561,Ba1Y1Mn1Cu1O5
BaDy2MnO5,mp-541007,1.6966999999999999,4.00213594,0.022204593055567656,"{56: 1, 66: 2, 25: 1, 8: 5}","[8, 25, 56, 66]",85251561662,Ba1Dy2Mn1O5
Ba3MnO5,mp-1214549,0.8176000000000001,2.69238567,0.038863360370368305,"{56: 3, 25: 1, 8: 5}","[8, 25, 56]",85251563,Ba3Mn1O5
BaYMn2O5,mp-18850,0.0,4.02725529,0.005809454180539575,"{56: 1, 39: 1, 25: 2, 8: 5}","[8, 25, 39, 56]",85252391561,Ba1Y1Mn2O5
BaMn2O5,mp-1095090,0.0,2.79401249,0.18659185183036708,"{56: 1, 25: 2, 8: 5}","[8, 25, 56]",85252561,Ba1Mn2O5
BaPrMn2O5,mp-549776,0.0,3.73111624,0.0,"{56: 1, 59: 1, 25: 2, 8: 5}","[8, 25, 56, 59]",85252561591,Ba1Pr1Mn2O5
BaNdMn2O5,mp-546665,0.0,3.71622238,0.0,"{56: 1, 60: 1, 25: 2, 8: 5}","[8, 25, 56, 60]",85252561601,Ba1Nd1Mn2O5
BaTbMn2O5,mp-1106241,0.04380000000000006,3.9108901,0.0065095427916865845,"{56: 1, 65: 1, 25: 2, 8: 5}","[8, 25, 56, 65]",85252561651,Ba1Tb1Mn2O5
BaErMn2O5,mp-1188765,0.0,3.92303116,0.023223234999981912,"{56: 1, 68: 1, 25: 2, 8: 5}","[8, 25, 56, 68]",85252561681,Ba1Er1Mn2O5
Ba2Mn2O5,mp-1099904,0.0,2.47298546,0.027291398277777823,"{56: 2, 25: 2, 8: 5}","[8, 25, 56]",85252562,Ba2Mn2O5
BaFeCoPbO5,mp-1201579,0.0,3.76604692,0.04027455133680036,"{56: 1, 26: 1, 27: 1, 82: 1, 8: 5}","[8, 26, 27, 56, 82]",85261271561821,Ba1Fe1Co1Pb1O5
BaYFeCuO5,mp-505589,0.0,3.04340238,0.010360387458321796,"{56: 1, 39: 1, 26: 1, 29: 1, 8: 5}","[8, 26, 29, 39, 56]",85261291391561,Ba1Y1Fe1Cu1O5
BaPrFeCuO5,mp-1206136,0.0,3.06423546,0.0020511947242134454,"{56: 1, 59: 1, 26: 1, 29: 1, 8: 5}","[8, 26, 29, 56, 59]",85261291561591,Ba1Pr1Fe1Cu1O5
BaSmFeCuO5,mp-1214324,0.0,2.85314535,0.0,"{56: 1, 62: 1, 26: 1, 29: 1, 8: 5}","[8, 26, 29, 56, 62]",85261291561621,Ba1Sm1Fe1Cu1O5
BaEuFeCuO5,mp-1228144,0.0,3.06504645,0.06019286057936668,"{56: 1, 63: 1, 26: 1, 29: 1, 8: 5}","[8, 26, 29, 56, 63]",85261291561631,Ba1Eu1Fe1Cu1O5
BaGdFeCuO5,mp-1206575,0.0,3.780013,0.5838277068055548,"{56: 1, 64: 1, 26: 1, 29: 1, 8: 5}","[8, 26, 29, 56, 64]",85261291561641,Ba1Gd1Fe1Cu1O5
BaDyFeCuO5,mp-1207068,0.0,2.9870342,0.0,"{56: 1, 66: 1, 26: 1, 29: 1, 8: 5}","[8, 26, 29, 56, 66]",85261291561661,Ba1Dy1Fe1Cu1O5
BaTmFeCuO5,mp-1205946,0.0,3.42254656,0.009060075127001355,"{56: 1, 69: 1, 26: 1, 29: 1, 8: 5}","[8, 26, 29, 56, 69]",85261291561691,Ba1Tm1Fe1Cu1O5
BaLuFeCuO5,mp-611378,0.0,3.43070886,0.017298287593254358,"{56: 1, 71: 1, 26: 1, 29: 1, 8: 5}","[8, 26, 29, 56, 71]",85261291561711,Ba1Lu1Fe1Cu1O5
Ba2YFeO5,mp-1204162,2.8847000000000005,1.67107105,0.0,"{56: 2, 39: 1, 26: 1, 8: 5}","[8, 26, 39, 56]",85261391562,Ba2Y1Fe1O5
Ba3FeO5,mp-30093,0.0,1.75233431,0.004177689444455623,"{56: 3, 26: 1, 8: 5}","[8, 26, 56]",85261563,Ba3Fe1O5
Ba3Fe2BrO5,mp-1147585,0.0,4.16487547,0.10018963396103597,"{56: 3, 26: 2, 35: 1, 8: 5}","[8, 26, 35, 56]",85262351563,Ba3Fe2Br1O5
Ba3Fe2Br2O5,mp-556428,2.4063,1.35982121,0.0,"{56: 3, 26: 2, 35: 2, 8: 5}","[8, 26, 35, 56]",85262352563,Ba3Fe2Br2O5
BaYFe2O5,mp-542205,0.46599999999999975,3.41355824,0.04563654541672335,"{56: 1, 39: 1, 26: 2, 8: 5}","[8, 26, 39, 56]",85262391561,Ba1Y1Fe2O5
Ba3Fe2TeO5,mp-1147669,0.0,3.6806658,0.03680393188311459,"{56: 3, 26: 2, 52: 1, 8: 5}","[8, 26, 52, 56]",85262521563,Ba3Fe2Te1O5
BaNdFe2O5,mp-1182187,0.0,2.92945576,0.0076474863425950446,"{56: 1, 60: 1, 26: 2, 8: 5}","[8, 26, 56, 60]",85262561601,Ba1Nd1Fe2O5
BaEuFe2O5,mp-656144,0.0,3.76248086,0.05074002337301309,"{56: 1, 63: 1, 26: 2, 8: 5}","[8, 26, 56, 63]",85262561631,Ba1Eu1Fe2O5
BaGdFe2O5,mp-20989,0.0,4.11483639,0.02646033953703686,"{56: 1, 64: 1, 26: 2, 8: 5}","[8, 26, 56, 64]",85262561641,Ba1Gd1Fe2O5
BaTbFe2O5,mp-1227304,0.0,4.30457311,0.030213968859124307,"{56: 1, 65: 1, 26: 2, 8: 5}","[8, 26, 56, 65]",85262561651,Ba1Tb1Fe2O5
BaDyFe2O5,mp-24971,0.0,3.25614536,0.027687585039681828,"{56: 1, 66: 1, 26: 2, 8: 5}","[8, 26, 56, 66]",85262561661,Ba1Dy1Fe2O5
BaFe2PbO5,mp-1215009,1.3233000000000001,5.21297608,0.0,"{56: 1, 26: 2, 82: 1, 8: 5}","[8, 26, 56, 82]",85262561821,Ba1Fe2Pb1O5
Ba2Fe2O5,mp-1196071,0.0,3.61658072,0.0,"{56: 2, 26: 2, 8: 5}","[8, 26, 56]",85262562,Ba2Fe2O5
BaYCoCuO5,mp-1227472,0.38759999999999994,3.52262872,0.02932877134080769,"{56: 1, 39: 1, 27: 1, 29: 1, 8: 5}","[8, 27, 29, 39, 56]",85271291391561,Ba1Y1Co1Cu1O5
Ba2YCoO5,mp-1205054,1.5617000000000003,3.43731181,0.0,"{56: 2, 39: 1, 27: 1, 8: 5}","[8, 27, 39, 56]",85271391562,Ba2Y1Co1O5
BaY2CoO5,mp-541574,1.6802999999999995,3.45311257,0.061825094791663204,"{56: 1, 39: 2, 27: 1, 8: 5}","[8, 27, 39, 56]",85271392561,Ba1Y2Co1O5
BaNd2CoO5,mp-19118,1.4058999999999995,3.78416953,0.0,"{56: 1, 60: 2, 27: 1, 8: 5}","[8, 27, 56, 60]",85271561602,Ba1Nd2Co1O5
BaSm2CoO5,mp-19248,1.4676,3.79069283,0.0,"{56: 1, 62: 2, 27: 1, 8: 5}","[8, 27, 56, 62]",85271561622,Ba1Sm2Co1O5
BaEu2CoO5,mp-541429,0.0,2.77744163,0.13841534740740613,"{56: 1, 63: 2, 27: 1, 8: 5}","[8, 27, 56, 63]",85271561632,Ba1Eu2Co1O5
BaGd2CoO5,mp-505313,0.0,3.86585172,0.0007154727777773928,"{56: 1, 64: 2, 27: 1, 8: 5}","[8, 27, 56, 64]",85271561642,Ba1Gd2Co1O5
BaDy2CoO5,mp-19164,1.3935000000000004,4.05054685,0.003662197407404477,"{56: 1, 66: 2, 27: 1, 8: 5}","[8, 27, 56, 66]",85271561662,Ba1Dy2Co1O5
BaHo2CoO5,mp-505037,1.2706999999999997,3.26714112,0.07185309449074317,"{56: 1, 67: 2, 27: 1, 8: 5}","[8, 27, 56, 67]",85271561672,Ba1Ho2Co1O5
BaEr2CoO5,mp-18746,1.3642999999999996,3.87150865,0.013427264074073797,"{56: 1, 68: 2, 27: 1, 8: 5}","[8, 27, 56, 68]",85271561682,Ba1Er2Co1O5
BaTm2CoO5,mp-505193,1.3129999999999997,3.1602002,0.07588413212962752,"{56: 1, 69: 2, 27: 1, 8: 5}","[8, 27, 56, 69]",85271561692,Ba1Tm2Co1O5
BaLu2CoO5,mp-17736,1.3091999999999997,4.45053318,0.08421695310184774,"{56: 1, 71: 2, 27: 1, 8: 5}","[8, 27, 56, 71]",85271561712,Ba1Lu2Co1O5
Ba3CoO5,mp-1214566,0.4220999999999999,2.26629469,0.00015869138889534895,"{56: 3, 27: 1, 8: 5}","[8, 27, 56]",85271563,Ba3Co1O5
BaYCo2O5,mp-1182125,0.0,3.87106834,0.06959584418403075,"{56: 1, 39: 1, 27: 2, 8: 5}","[8, 27, 39, 56]",85272391561,Ba1Y1Co2O5
BaLaCo2O5,mp-1206732,0.0,4.53652757,0.05610329527777225,"{56: 1, 57: 1, 27: 2, 8: 5}","[8, 27, 56, 57]",85272561571,Ba1La1Co2O5
BaNdCo2O5,mp-24853,0.0,3.33230607,0.054205683333327315,"{56: 1, 60: 1, 27: 2, 8: 5}","[8, 27, 56, 60]",85272561601,Ba1Nd1Co2O5
BaGdCo2O5,mp-1079551,0.0,3.32145777,0.07227212263888383,"{56: 1, 64: 1, 27: 2, 8: 5}","[8, 27, 56, 64]",85272561641,Ba1Gd1Co2O5
Ba2Co2O5,mp-1076439,0.0,2.0245098,0.03949835194445228,"{56: 2, 27: 2, 8: 5}","[8, 27, 56]",85272562,Ba2Co2O5
BaYCuMoO5,mp-1042500,0.0,5.02456697,0.2774416976388867,"{56: 1, 39: 1, 29: 1, 42: 1, 8: 5}","[8, 29, 39, 42, 56]",85291391421561,Ba1Y1Cu1Mo1O5
BaYCuAgO5,mp-1042153,0.0,2.96600277,0.11090498645833335,"{56: 1, 39: 1, 29: 1, 47: 1, 8: 5}","[8, 29, 39, 47, 56]",85291391471561,Ba1Y1Cu1Ag1O5
BaYCuSnO5,mp-1042137,0.0,5.86643657,0.15498684048611544,"{56: 1, 39: 1, 29: 1, 50: 1, 8: 5}","[8, 29, 39, 50, 56]",85291391501561,Ba1Y1Cu1Sn1O5
BaYCuSbO5,mp-1042151,0.0,6.11596024,0.2989939533333352,"{56: 1, 39: 1, 29: 1, 51: 1, 8: 5}","[8, 29, 39, 51, 56]",85291391511561,Ba1Y1Cu1Sb1O5
BaYCuWO5,mp-1042479,0.0,5.20360226,0.3996534073148199,"{56: 1, 39: 1, 29: 1, 74: 1, 8: 5}","[8, 29, 39, 56, 74]",85291391561741,Ba1Y1Cu1W1O5
BaYCuBiO5,mp-1042214,0.0,3.93981705,0.08515867887732398,"{56: 1, 39: 1, 29: 1, 83: 1, 8: 5}","[8, 29, 39, 56, 83]",85291391561831,Ba1Y1Cu1Bi1O5
Ba2YCuO5,mp-1214594,0.0,2.94916937,0.17896168347221675,"{56: 2, 39: 1, 29: 1, 8: 5}","[8, 29, 39, 56]",85291391562,Ba2Y1Cu1O5
BaY2CuO5,mp-542733,0.0,3.83411945,0.034352681527773044,"{56: 1, 39: 2, 29: 1, 8: 5}","[8, 29, 39, 56]",85291392561,Ba1Y2Cu1O5
BaCuSbO5,mp-1042217,0.0,1.94704049,0.3455081218554703,"{56: 1, 29: 1, 51: 1, 8: 5}","[8, 29, 51, 56]",85291511561,Ba1Cu1Sb1O5
BaLaSmCuO5,mp-1229306,0.5899000000000001,4.83871507,0.0337576296528006,"{56: 1, 57: 1, 62: 1, 29: 1, 8: 5}","[8, 29, 56, 57, 62]",85291561571621,Ba1La1Sm1Cu1O5
BaPr2CuO5,mp-20212,0.4272,2.84051157,0.02047031986110248,"{56: 1, 59: 2, 29: 1, 8: 5}","[8, 29, 56, 59]",85291561592,Ba1Pr2Cu1O5
BaNd2CuO5,mp-6704,0.5842,3.96196531,0.021025534722223682,"{56: 1, 60: 2, 29: 1, 8: 5}","[8, 29, 56, 60]",85291561602,Ba1Nd2Cu1O5
BaSm2CuO5,mp-21568,0.0,3.60051354,0.02519919013889016,"{56: 1, 62: 2, 29: 1, 8: 5}","[8, 29, 56, 62]",85291561622,Ba1Sm2Cu1O5
BaEu2CuO5,mp-1214737,0.0,3.01847686,0.17005171583332057,"{56: 1, 63: 2, 29: 1, 8: 5}","[8, 29, 56, 63]",85291561632,Ba1Eu2Cu1O5
BaGd2CuO5,mp-1182677,0.37729999999999997,3.20677901,0.025897405277778063,"{56: 1, 64: 2, 29: 1, 8: 5}","[8, 29, 56, 64]",85291561642,Ba1Gd2Cu1O5
BaDy2CuO5,mp-22550,0.0,3.77462378,0.027284643055556224,"{56: 1, 66: 2, 29: 1, 8: 5}","[8, 29, 56, 66]",85291561662,Ba1Dy2Cu1O5
BaHo2CuO5,mp-17878,0.0,3.63892264,0.0295317029166684,"{56: 1, 67: 2, 29: 1, 8: 5}","[8, 29, 56, 67]",85291561672,Ba1Ho2Cu1O5
BaEr2CuO5,mp-505808,0.0,3.66275493,0.030774783611109413,"{56: 1, 68: 2, 29: 1, 8: 5}","[8, 29, 56, 68]",85291561682,Ba1Er2Cu1O5
BaTm2CuO5,mp-22202,0.0,3.65919057,0.03518314749999707,"{56: 1, 69: 2, 29: 1, 8: 5}","[8, 29, 56, 69]",85291561692,Ba1Tm2Cu1O5
BaLu2CuO5,mp-505268,0.0,3.78251745,0.04368997291665622,"{56: 1, 71: 2, 29: 1, 8: 5}","[8, 29, 56, 71]",85291561712,Ba1Lu2Cu1O5
BaTaCuO5,mp-1042208,0.0,0.98961491,0.21963831007812384,"{56: 1, 73: 1, 29: 1, 8: 5}","[8, 29, 56, 73]",85291561731,Ba1Ta1Cu1O5
BaCuWO5,mp-1042556,0.0,2.17342994,0.41903709312500137,"{56: 1, 29: 1, 74: 1, 8: 5}","[8, 29, 56, 74]",85291561741,Ba1Cu1W1O5
BaCuReO5,mp-1042220,0.0,2.26718318,0.38628788443750484,"{56: 1, 29: 1, 75: 1, 8: 5}","[8, 29, 56, 75]",85291561751,Ba1Cu1Re1O5
Ba2TlCuHgO5,mp-619126,0.0,2.39445833,0.07385038821875067,"{56: 2, 81: 1, 29: 1, 80: 1, 8: 5}","[8, 29, 56, 80, 81]",85291562801811,Ba2Tl1Cu1Hg1O5
Ba2TlCuO5,mp-20942,0.0,2.52858968,0.06578380888888713,"{56: 2, 81: 1, 29: 1, 8: 5}","[8, 29, 56, 81]",85291562811,Ba2Tl1Cu1O5
BaYCu2O5,mp-1042162,0.0,3.65230022,0.060116118657395745,"{56: 1, 39: 1, 29: 2, 8: 5}","[8, 29, 39, 56]",85292391561,Ba1Y1Cu2O5
BaPrCu2O5,mp-1227911,0.0,3.61696248,0.0719176912499897,"{56: 1, 59: 1, 29: 2, 8: 5}","[8, 29, 56, 59]",85292561591,Ba1Pr1Cu2O5
Ba2Cu2O5,mp-772788,0.7701,1.22945986,0.0,"{56: 2, 29: 2, 8: 5}","[8, 29, 56]",85292562,Ba2Cu2O5
BaY2ZnO5,mp-6121,3.0989,2.81083122,0.021570728101845127,"{56: 1, 39: 2, 30: 1, 8: 5}","[8, 30, 39, 56]",85301392561,Ba1Y2Zn1O5
BaZnO5,mp-1182697,0.0,-1.34309549,0.6490045708333341,"{56: 1, 30: 1, 8: 5}","[8, 30, 56]",85301561,Ba1Zn1O5
BaLaEuZnO5,mp-1227966,0.0,3.52898238,0.11243200254629127,"{56: 1, 57: 1, 63: 1, 30: 1, 8: 5}","[8, 30, 56, 57, 63]",85301561571631,Ba1La1Eu1Zn1O5
BaLa2ZnO5,mp-6793,3.1916,4.66951191,0.014263236574070248,"{56: 1, 57: 2, 30: 1, 8: 5}","[8, 30, 56, 57]",85301561572,Ba1La2Zn1O5
BaNd2ZnO5,mp-6468,3.056,2.57094286,0.012545028796290048,"{56: 1, 60: 2, 30: 1, 8: 5}","[8, 30, 56, 60]",85301561602,Ba1Nd2Zn1O5
BaSm2ZnO5,mp-6452,3.4402999999999997,2.14521897,0.009535426435181904,"{56: 1, 62: 2, 30: 1, 8: 5}","[8, 30, 56, 62]",85301561622,Ba1Sm2Zn1O5
BaEu2ZnO5,mp-510479,0.0,2.1841779,0.18616936712962584,"{56: 1, 63: 2, 30: 1, 8: 5}","[8, 30, 56, 63]",85301561632,Ba1Eu2Zn1O5
BaGd2ZnO5,mp-15904,2.6449,2.53548022,0.014632035185181635,"{56: 1, 64: 2, 30: 1, 8: 5}","[8, 30, 56, 64]",85301561642,Ba1Gd2Zn1O5
BaTb2ZnO5,mp-18084,3.0505999999999998,2.64718662,0.012870990046292441,"{56: 1, 65: 2, 30: 1, 8: 5}","[8, 30, 56, 65]",85301561652,Ba1Tb2Zn1O5
BaDy2ZnO5,mp-6643,3.0569,2.6089661,0.01572824240740367,"{56: 1, 66: 2, 30: 1, 8: 5}","[8, 30, 56, 66]",85301561662,Ba1Dy2Zn1O5
BaHo2ZnO5,mp-6501,3.0589,2.62488101,0.019003241990738218,"{56: 1, 67: 2, 30: 1, 8: 5}","[8, 30, 56, 67]",85301561672,Ba1Ho2Zn1O5
BaEr2ZnO5,mp-6495,3.0633,2.7228434,0.022205376018515466,"{56: 1, 68: 2, 30: 1, 8: 5}","[8, 30, 56, 68]",85301561682,Ba1Er2Zn1O5
BaTm2ZnO5,mp-6250,3.0578000000000003,2.6228817,0.026635475185181612,"{56: 1, 69: 2, 30: 1, 8: 5}","[8, 30, 56, 69]",85301561692,Ba1Tm2Zn1O5
Ba2InGaO5,mp-1106089,1.4144999999999999,2.80498358,0.0,"{56: 2, 49: 1, 31: 1, 8: 5}","[8, 31, 49, 56]",85311491562,Ba2In1Ga1O5
Ba2Ga2O5,mp-862682,0.0,2.7394724,0.17627285074073562,"{56: 2, 31: 2, 8: 5}","[8, 31, 56]",85312562,Ba2Ga2O5
Ba3GeO5,mp-778602,2.9101999999999997,2.13823744,0.0,"{56: 3, 32: 1, 8: 5}","[8, 32, 56]",85321563,Ba3Ge1O5
BaGe2O5,mp-558184,2.7735000000000003,1.94041246,0.03823371618055571,"{56: 1, 32: 2, 8: 5}","[8, 32, 56]",85322561,Ba1Ge2O5
Ba21Ge2O5,mp-559274,0.0,2.36228749,0.07016802857142768,"{56: 21, 32: 2, 8: 5}","[8, 32, 56]",853225621,Ba21Ge2O5
BaAs2O5,mp-1198220,0.517,0.41652369,0.7001402048437662,"{56: 1, 33: 2, 8: 5}","[8, 33, 56]",85332561,Ba1As2O5
BaSe2O5,mp-28536,3.3889000000000005,1.04230232,0.0,"{56: 1, 34: 2, 8: 5}","[8, 34, 56]",85342561,Ba1Se2O5
Ba2SnSe4O5,mp-1201423,0.21259999999999968,2.48653098,0.5301021277083349,"{56: 2, 50: 1, 34: 4, 8: 5}","[8, 34, 50, 56]",85344501562,Ba2Sn1Se4O5
Ba3In2Br2O5,mp-556004,1.2907000000000002,2.6088321,0.007872946145838,"{56: 3, 49: 2, 35: 2, 8: 5}","[8, 35, 49, 56]",85352492563,Ba3In2Br2O5
BaBi2Br2O5,mp-1228075,0.0,0.93679031,0.3351019493333345,"{56: 1, 83: 2, 35: 2, 8: 5}","[8, 35, 56, 83]",85352561832,Ba1Bi2Br2O5
BaY2PdO5,mp-9656,1.7879999999999998,3.20103281,0.018598186541668227,"{56: 1, 39: 2, 46: 1, 8: 5}","[8, 39, 46, 56]",85392461561,Ba1Y2Pd1O5
Ba2Tc2O5,mp-1183327,0.0,5.11832504,0.19327018805555873,"{56: 2, 43: 2, 8: 5}","[8, 43, 56]",85432562,Ba2Tc2O5
BaRuO5,mp-733954,0.8739999999999999,-0.22832613,0.0,"{56: 1, 44: 1, 8: 5}","[8, 44, 56]",85441561,Ba1Ru1O5
BaHgRuO5,mp-560702,0.0,1.80492782,0.0,"{56: 1, 80: 1, 44: 1, 8: 5}","[8, 44, 56, 80]",85441561801,Ba1Hg1Ru1O5
Ba18Pr9Sn4Sb5O54,mp-695389,0.0,2.53960385,0.04079998097916793,"{56: 18, 59: 9, 50: 4, 51: 5, 8: 54}","[8, 50, 51, 56, 59]",8545045155618599,Ba18Pr9Sn4Sb5O54
Ba25(Bi5O18)3,mp-685509,0.0,3.49814686,0.06908310675532636,"{56: 25, 83: 15, 8: 54}","[8, 56, 83]",85456258315,Ba25Bi15O54
BaPdO5,mp-1182093,0.35429999999999984,2.49626729,0.1881064183928558,"{56: 1, 46: 1, 8: 5}","[8, 46, 56]",85461561,Ba1Pd1O5
BaLa2PdO5,mp-1105217,2.3421000000000003,5.10458175,0.0,"{56: 1, 57: 2, 46: 1, 8: 5}","[8, 46, 56, 57]",85461561572,Ba1La2Pd1O5
BaPr2PdO5,mp-9759,2.1388999999999996,3.01789009,0.0,"{56: 1, 59: 2, 46: 1, 8: 5}","[8, 46, 56, 59]",85461561592,Ba1Pr2Pd1O5
BaNd2PdO5,mp-8514,2.2190999999999996,3.09211834,0.0,"{56: 1, 60: 2, 46: 1, 8: 5}","[8, 46, 56, 60]",85461561602,Ba1Nd2Pd1O5
BaSm2PdO5,mp-8515,2.032,2.87863315,0.0,"{56: 1, 62: 2, 46: 1, 8: 5}","[8, 46, 56, 62]",85461561622,Ba1Sm2Pd1O5
BaEu2PdO5,mp-1182243,0.0,2.8849429,0.13462544527778064,"{56: 1, 63: 2, 46: 1, 8: 5}","[8, 46, 56, 63]",85461561632,Ba1Eu2Pd1O5
BaGd2PdO5,mp-505438,0.027500000000000302,3.59063722,0.0,"{56: 1, 64: 2, 46: 1, 8: 5}","[8, 46, 56, 64]",85461561642,Ba1Gd2Pd1O5