formula,material_id,band_gap,efermi,energy_above_hull,comp_atoms,sorted_keys_comp_atoms,comp_number,new_formula
H5CSO5F3,mp-706514,6.1345,-2.23436689,0.12182555421601915,"{1: 5, 6: 1, 16: 1, 8: 5, 9: 3}","[1, 6, 8, 9, 16]",15618593161,H5C1S1O5F3
NaP2H5CO6,mp-1200873,5.6578,4.72250285,0.025566840805571367,"{11: 1, 15: 2, 1: 5, 6: 1, 8: 6}","[1, 6, 8, 11, 15]",156186111152,Na1P2H5C1O6
As2H5CO6,mp-1229009,1.659,-1.7109054,0.3494160037946381,"{33: 2, 1: 5, 6: 1, 8: 6}","[1, 6, 8, 33]",156186332,As2H5C1O6
PrPH5CO7,mp-555094,3.744,-0.64017711,0.11330140854166704,"{59: 1, 15: 1, 1: 5, 6: 1, 8: 7}","[1, 6, 8, 15, 59]",156187151591,Pr1P1H5C1O7
NdPH5CO7,mp-556305,3.7309,-0.48962194,0.11234861254166884,"{60: 1, 15: 1, 1: 5, 6: 1, 8: 7}","[1, 6, 8, 15, 60]",156187151601,Nd1P1H5C1O7
EuPH5CO7,mp-555522,0.0,-0.86645208,0.11674576100833622,"{63: 1, 15: 1, 1: 5, 6: 1, 8: 7}","[1, 6, 8, 15, 63]",156187151631,Eu1P1H5C1O7
GdPH5CO7,mp-556657,3.0162,-0.54721568,0.11558680420834389,"{64: 1, 15: 1, 1: 5, 6: 1, 8: 7}","[1, 6, 8, 15, 64]",156187151641,Gd1P1H5C1O7
HoPH5CO7,mp-557828,3.7281999999999997,-0.319151,0.11948248920833748,"{67: 1, 15: 1, 1: 5, 6: 1, 8: 7}","[1, 6, 8, 15, 67]",156187151671,Ho1P1H5C1O7
ErPH5CO7,mp-558204,3.7291000000000003,-0.32085013,0.12043237587500588,"{68: 1, 15: 1, 1: 5, 6: 1, 8: 7}","[1, 6, 8, 15, 68]",156187151681,Er1P1H5C1O7
H5C2NO,mp-697242,4.9699,-1.9473316,0.05721219680555478,"{1: 5, 6: 2, 7: 1, 8: 1}","[1, 6, 7, 8]",15627181,H5C2N1O1
Al2Si2H5C2NO10,mp-723020,0.0,1.3161064,0.37046146553030646,"{13: 2, 14: 2, 1: 5, 6: 2, 7: 1, 8: 10}","[1, 6, 7, 8, 13, 14]",156271810132142,Al2Si2H5C2N1O10
H5C2NO3,mp-738670,4.7722,-1.72837875,0.1316379738636364,"{1: 5, 6: 2, 7: 1, 8: 3}","[1, 6, 7, 8]",15627183,H5C2N1O3
H5C2NO4,mp-601210,3.0878,-0.76253651,0.08942725739583413,"{1: 5, 6: 2, 7: 1, 8: 4}","[1, 6, 7, 8]",15627184,H5C2N1O4
H5C2S2N3,mp-1202433,2.2904000000000004,2.29625773,0.06035875858333206,"{1: 5, 6: 2, 16: 2, 7: 3}","[1, 6, 7, 16]",156273162,H5C2S2N3
H5C2(NO)3,mp-1212522,3.162,-0.4606671,0.2770095095940155,"{1: 5, 6: 2, 7: 3, 8: 3}","[1, 6, 7, 8]",15627383,H5C2N3O3
KPH5C2S2(NO)3,mp-541083,3.4045,0.14025733,0.07672560543150375,"{19: 1, 15: 1, 1: 5, 6: 2, 16: 2, 7: 3, 8: 3}","[1, 6, 7, 8, 15, 16, 19]",15627383151162191,K1P1H5C2S2N3O3
NaPH5C2SN3O4,mp-696989,3.5107999999999997,0.35625931,0.07967152724824178,"{11: 1, 15: 1, 1: 5, 6: 2, 16: 1, 7: 3, 8: 4}","[1, 6, 7, 8, 11, 15, 16]",15627384111151161,Na1P1H5C2S1N3O4
KPH5C2SN3O4,mp-722316,3.7596,-0.04228506,0.058924532439839084,"{19: 1, 15: 1, 1: 5, 6: 2, 16: 1, 7: 3, 8: 4}","[1, 6, 7, 8, 15, 16, 19]",15627384151161191,K1P1H5C2S1N3O4
ZnPH5C2N4O3,mp-766204,4.6202,-0.83186582,0.02791456664799874,"{30: 1, 15: 1, 1: 5, 6: 2, 7: 4, 8: 3}","[1, 6, 7, 8, 15, 30]",15627483151301,Zn1P1H5C2N4O3
H5PbC2SN6Cl,mp-1213279,3.0812,4.56219709,0.19323195572179142,"{1: 5, 82: 1, 6: 2, 16: 1, 7: 6, 17: 1}","[1, 6, 7, 16, 17, 82]",156276161171821,H5Pb1C2S1N6Cl1
H5PbC2SBrN6,mp-1212907,3.042,4.4363537,0.2526270836269351,"{1: 5, 82: 1, 6: 2, 16: 1, 35: 1, 7: 6}","[1, 6, 7, 16, 35, 82]",156276161351821,H5Pb1C2S1Br1N6
H5PbC2SIN6,mp-1213452,3.005,4.42124988,0.21915672190059787,"{1: 5, 82: 1, 6: 2, 16: 1, 53: 1, 7: 6}","[1, 6, 7, 16, 53, 82]",156276161531821,H5Pb1C2S1I1N6
H5C2ClO,mp-559535,5.4153,-2.18867577,0.22250628541666728,"{1: 5, 6: 2, 17: 1, 8: 1}","[1, 6, 8, 17]",156281171,H5C2Cl1O1
AsH5C2(OF3)2,mp-555110,5.2271,-3.72424753,0.17604837218750014,"{33: 1, 1: 5, 6: 2, 8: 2, 9: 6}","[1, 6, 8, 9, 33]",15628296331,As1H5C2O2F6
K2NaH5(CO4)2,mp-505771,4.3382000000000005,-0.63285649,0.0,"{19: 2, 11: 1, 1: 5, 6: 2, 8: 8}","[1, 6, 8, 11, 19]",156288111192,K2Na1H5C2O8
Rb2NaH5(CO4)2,mp-505772,4.1978,-0.65188422,0.0,"{37: 2, 11: 1, 1: 5, 6: 2, 8: 8}","[1, 6, 8, 11, 37]",156288111372,Rb2Na1H5C2O8
Na3H5(CO4)2,mp-23852,4.6175999999999995,-0.19308417,0.0012322828857964652,"{11: 3, 1: 5, 6: 2, 8: 8}","[1, 6, 8, 11]",156288113,Na3H5C2O8
KH5C3N2O5,mp-1203680,3.1387,1.77118876,0.05489616901040595,"{19: 1, 1: 5, 6: 3, 7: 2, 8: 5}","[1, 6, 7, 8, 19]",15637285191,K1H5C3N2O5
H5C3N5O,mp-774616,3.3608000000000002,-0.40429747,0.0622252432936472,"{1: 5, 6: 3, 7: 5, 8: 1}","[1, 6, 7, 8]",15637581,H5C3N5O1
Sb2H5C3SCl6O5F3,mp-1202925,2.6963,-1.93495211,0.28808741552497885,"{51: 2, 1: 5, 6: 3, 16: 1, 17: 6, 8: 5, 9: 3}","[1, 6, 8, 9, 16, 17, 51]",15638593161176512,Sb2H5C3S1Cl6O5F3
K2CrH5C4S4N4O3,mp-1195334,2.5372,1.9544078,0.10500836830213078,"{19: 2, 24: 1, 1: 5, 6: 4, 16: 4, 7: 4, 8: 3}","[1, 6, 7, 8, 16, 19, 24]",15647483164192241,K2Cr1H5C4S4N4O3
Na2CrH5C4O11,mp-1211082,3.2211,-0.98893029,0.050670217500004,"{11: 2, 24: 1, 1: 5, 6: 4, 8: 11}","[1, 6, 8, 11, 24]",1564811112241,Na2Cr1H5C4O11
K2NaZn2H5(C2O7)2,mp-766427,4.3942,0.12847175,0.0,"{19: 2, 11: 1, 30: 2, 1: 5, 6: 4, 8: 14}","[1, 6, 8, 11, 19, 30]",1564814111192302,K2Na1Zn2H5C4O14
Rb2NaZn2H5(C2O7)2,mp-766230,4.057099999999999,-0.04655307,0.0,"{37: 2, 11: 1, 30: 2, 1: 5, 6: 4, 8: 14}","[1, 6, 8, 11, 30, 37]",1564814111302372,Rb2Na1Zn2H5C4O14
NaU2H5C4O15,mp-1204626,2.2147,-0.97414041,0.05070133163965984,"{11: 1, 92: 2, 1: 5, 6: 4, 8: 15}","[1, 6, 8, 11, 92]",1564815111922,Na1U2H5C4O15
KU2H5C4O15,mp-554037,2.117,-0.67214909,0.04946461057484619,"{19: 1, 92: 2, 1: 5, 6: 4, 8: 15}","[1, 6, 8, 19, 92]",1564815191922,K1U2H5C4O15
RbU2H5C4O15,mp-605406,2.1541,-0.55189857,0.05595456839891799,"{37: 1, 92: 2, 1: 5, 6: 4, 8: 15}","[1, 6, 8, 37, 92]",1564815371922,Rb1U2H5C4O15
Na3H5(CO2)4,mp-555083,4.4762,-1.20418053,0.10839637909721933,"{11: 3, 1: 5, 6: 4, 8: 8}","[1, 6, 8, 11]",156488113,Na3H5C4O8
H5C56O,mp-2647151,0.6288,-3.38443532,0.06271046194556185,"{1: 5, 6: 56, 8: 1}","[1, 6, 8]",1565681,H5C56O1
Mo2H5C5N3O14,mp-728420,0.0,-2.01875436,0.9452058119157138,"{42: 2, 1: 5, 6: 5, 7: 3, 8: 14}","[1, 6, 7, 8, 42]",156573814422,Mo2H5C5N3O14
K2BiH5(CO2)5,mp-698494,4.112,-0.2681621,0.11863769635869659,"{19: 2, 83: 1, 1: 5, 6: 5, 8: 10}","[1, 6, 8, 19, 83]",1565810192831,K2Bi1H5C5O10
K3UH5C5O12,mp-1212323,1.6993,0.29354724,0.4181755215344616,"{19: 3, 92: 1, 1: 5, 6: 5, 8: 12}","[1, 6, 8, 19, 92]",1565812193921,K3U1H5C5O12
Ga6P8H56C14N7O32F,mp-1202559,4.2694,-0.85960953,0.057404685541667,"{31: 6, 15: 8, 1: 56, 6: 14, 7: 7, 8: 32, 9: 1}","[1, 6, 7, 8, 9, 15, 31]",1566147783291158316,Ga6P8H56C14N7O32F1
USi8H56(C4N)4,mp-1196240,0.2657999999999999,0.80860409,0.07104181201733617,"{92: 1, 14: 8, 1: 56, 6: 16, 7: 4}","[1, 6, 7, 14, 92]",15661674148921,U1Si8H56C16N4
RbH5C7SO5,mp-604583,3.7907,2.54278086,0.1959538105686054,"{37: 1, 1: 5, 6: 7, 16: 1, 8: 5}","[1, 6, 8, 16, 37]",156785161371,Rb1H5C7S1O5
H5C8NO2,mp-707289,2.7988999999999997,-1.07313387,0.18988442640625003,"{1: 5, 6: 8, 7: 1, 8: 2}","[1, 6, 7, 8]",15687182,H5C8N1O2
ZnH5C9N4O5,mp-1202589,0.36060000000000003,-0.45566688,0.3210169774774281,"{30: 1, 1: 5, 6: 9, 7: 4, 8: 5}","[1, 6, 7, 8, 30]",15697485301,Zn1H5C9N4O5
Si10(H3C)19,mp-1202794,3.2821,-1.06016957,0.0517090323226741,"{14: 10, 1: 57, 6: 19}","[1, 6, 14]",1576191410,Si10H57C19
SnH58C16S4(N11O9)2,mp-558106,4.7093,-1.05055246,0.1776481789525839,"{50: 1, 1: 58, 6: 16, 16: 4, 7: 22, 8: 18}","[1, 6, 7, 8, 16, 50]",158616722818164501,Sn1H58C16S4N22O18
B2P6H60Ir2C18O3F8,mp-1229246,1.0734,0.6990176,0.07126046265360841,"{5: 2, 15: 6, 1: 60, 77: 2, 6: 18, 8: 3, 9: 8}","[1, 5, 6, 8, 9, 15, 77]",160526188398156772,B2P6H60Ir2C18O3F8
B3H60C16(NO)12,mp-677715,0.0,1.90629744,0.16520285622693898,"{5: 3, 1: 60, 6: 16, 7: 12, 8: 12}","[1, 5, 6, 7, 8]",16053616712812,B3H60C16N12O12
KSi7H62C25O6,mp-1199586,0.9692000000000001,0.89351328,0.24802716577977968,"{19: 1, 14: 7, 1: 62, 6: 25, 8: 6}","[1, 6, 8, 14, 19]",16262586147191,K1Si7H62C25O6
Si11(H3C)21,mp-1196617,3.4006,-0.79876019,0.051686365001247125,"{14: 11, 1: 63, 6: 21}","[1, 6, 14]",1636211411,Si11H63C21
AgB11H6CBr6,mp-703539,3.2973,-0.75232231,0.0,"{47: 1, 5: 11, 1: 6, 6: 1, 35: 6}","[1, 5, 6, 35, 47]",1651161356471,Ag1B11H6C1Br6
BH6CN3F4,mp-862539,5.6634,-1.40571617,0.0,"{5: 1, 1: 6, 6: 1, 7: 3, 9: 4}","[1, 5, 6, 7, 9]",1651617394,B1H6C1N3F4
SiBH6C2NCl2,mp-1204978,5.1282,-2.09392041,0.038103319291160176,"{14: 1, 5: 1, 1: 6, 6: 2, 7: 1, 17: 2}","[1, 5, 6, 7, 14, 17]",16516271141172,Si1B1H6C2N1Cl2
BH6C2N5F4,mp-1199055,4.3443000000000005,3.89056381,0.04077540569445315,"{5: 1, 1: 6, 6: 2, 7: 5, 9: 4}","[1, 5, 6, 7, 9]",1651627594,B1H6C2N5F4
BH6Ru3C6O19F4,mp-699265,0.0,-1.46326416,0.6454879758333689,"{5: 1, 1: 6, 44: 3, 6: 6, 8: 19, 9: 4}","[1, 5, 6, 8, 9, 44]",16516681994443,B1H6Ru3C6O19F4
Ca4MgB4H6(CO9)2,mp-697563,4.2989,1.58549668,0.04763346092856935,"{20: 4, 12: 1, 5: 4, 1: 6, 6: 2, 8: 18}","[1, 5, 6, 8, 12, 20]",165462818121204,Ca4Mg1B4H6C2O18
AlB6H6(CCl3)2,mp-1205009,3.3489,-1.10745167,0.015050124557387079,"{13: 1, 5: 6, 1: 6, 6: 2, 17: 6}","[1, 5, 6, 13, 17]",165662131176,Al1B6H6C2Cl6
H6PbC10N8O7,mp-1197521,0.0,0.70572621,0.166655118372395,"{1: 6, 82: 1, 6: 10, 7: 8, 8: 7}","[1, 6, 7, 8, 82]",166107887821,H6Pb1C10N8O7
H6Os5Pt(CO)16,mp-707478,3.566,-0.46295632,0.23255075406250025,"{1: 6, 76: 5, 78: 1, 6: 16, 8: 16}","[1, 6, 8, 76, 78]",16616816765781,H6Os5Pt1C16O16
SiH6CI3N,mp-995237,0.815,2.0599824,0.13250282123697765,"{14: 1, 1: 6, 6: 1, 53: 3, 7: 1}","[1, 6, 7, 14, 53]",166171141533,Si1H6C1I3N1
H6CNCl,mp-1096989,4.9006,3.1439469,0.06533486375000042,"{1: 6, 6: 1, 7: 1, 17: 1}","[1, 6, 7, 17]",166171171,H6C1N1Cl1
SnH6CNCl3,mp-2647043,2.392,0.55744137,0.022744752604165974,"{50: 1, 1: 6, 6: 1, 7: 1, 17: 3}","[1, 6, 7, 17, 50]",166171173501,Sn1H6C1N1Cl3
H6PbCNCl3,mp-1021464,2.7965999999999998,0.14787898,0.0440473436458344,"{1: 6, 82: 1, 6: 1, 7: 1, 17: 3}","[1, 6, 7, 17, 82]",166171173821,H6Pb1C1N1Cl3
GeH6CI3N,mp-995236,0.9326999999999999,1.45142757,0.05196183690972145,"{32: 1, 1: 6, 6: 1, 53: 3, 7: 1}","[1, 6, 7, 32, 53]",166171321533,Ge1H6C1I3N1
SnH6CBr3N,mp-2646941,1.2077,0.96257229,0.042050115312498804,"{50: 1, 1: 6, 6: 1, 35: 3, 7: 1}","[1, 6, 7, 35, 50]",166171353501,Sn1H6C1Br3N1
H6PbCBr3N,mp-732337,2.1129,0.29157051,0.03552321010416737,"{1: 6, 82: 1, 6: 1, 35: 3, 7: 1}","[1, 6, 7, 35, 82]",166171353821,H6Pb1C1Br3N1
H6RuCI3N,mp-1012740,0.0,2.83800228,0.1642215115625003,"{1: 6, 44: 1, 6: 1, 53: 3, 7: 1}","[1, 6, 7, 44, 53]",166171441533,H6Ru1C1I3N1
SnH6CI3N,mp-1094059,0.9562999999999999,2.50007473,0.03174337517360826,"{50: 1, 1: 6, 6: 1, 53: 3, 7: 1}","[1, 6, 7, 50, 53]",166171501533,Sn1H6C1I3N1
H6CIN,mp-997570,4.0743,-0.23984004,0.058055468750001005,"{1: 6, 6: 1, 53: 1, 7: 1}","[1, 6, 7, 53]",166171531,H6C1I1N1
EuH6CI3N,mp-1096948,1.4358999999999997,2.2662963,0.034304568437499405,"{63: 1, 1: 6, 6: 1, 53: 3, 7: 1}","[1, 6, 7, 53, 63]",166171533631,Eu1H6C1I3N1
H6PbCI3N,mp-995214,1.7627,1.10745881,0.04079121072916525,"{1: 6, 82: 1, 6: 1, 53: 3, 7: 1}","[1, 6, 7, 53, 82]",166171533821,H6Pb1C1I3N1
H6CNClO,mp-1200973,5.314,3.53478218,0.2904262819999994,"{1: 6, 6: 1, 7: 1, 17: 1, 8: 1}","[1, 6, 7, 8, 17]",16617181171,H6C1N1Cl1O1
Ga3P3H6CNO13,mp-1203908,0.5267,-0.07435747,0.1309702352678519,"{31: 3, 15: 3, 1: 6, 6: 1, 7: 1, 8: 13}","[1, 6, 7, 8, 15, 31]",166171813153313,Ga3P3H6C1N1O13
NaH6CSNO3,mp-1199991,2.9697,-0.67916731,0.045578290698713886,"{11: 1, 1: 6, 6: 1, 16: 1, 7: 1, 8: 3}","[1, 6, 7, 8, 11, 16]",16617183111161,Na1H6C1S1N1O3
PH6CNO3,mp-554756,5.132499999999999,-0.99915095,0.04864446059027738,"{15: 1, 1: 6, 6: 1, 7: 1, 8: 3}","[1, 6, 7, 8, 15]",16617183151,P1H6C1N1O3
VH6CNO3,mp-1247806,2.9104,1.22028731,0.1535013970312482,"{23: 1, 1: 6, 6: 1, 7: 1, 8: 3}","[1, 6, 7, 8, 23]",16617183231,V1H6C1N1O3
V3H6CNO7,mp-600200,1.7872000000000001,-0.06834473,0.15255295437500926,"{23: 3, 1: 6, 6: 1, 7: 1, 8: 7}","[1, 6, 7, 8, 23]",16617187233,V3H6C1N1O7
Sn3H6CNO7,mp-1016212,1.0608,2.07005009,0.34143392003472606,"{50: 3, 1: 6, 6: 1, 7: 1, 8: 7}","[1, 6, 7, 8, 50]",16617187503,Sn3H6C1N1O7
H6CNF,mp-554051,6.0427,-3.16204517,0.07324305402777842,"{1: 6, 6: 1, 7: 1, 9: 1}","[1, 6, 7, 9]",16617191,H6C1N1F1
H6PbCNF3,mp-1097019,4.1192,3.8368375,0.10172193406250063,"{1: 6, 82: 1, 6: 1, 7: 1, 9: 3}","[1, 6, 7, 9, 82]",16617193821,H6Pb1C1N1F3
H6C(SN)2,mp-1197136,2.7177,0.49031259,0.02118422121212138,"{1: 6, 6: 1, 16: 2, 7: 2}","[1, 6, 7, 16]",166172162,H6C1S2N2
CaRe2H6C(NO5)2,mp-696020,3.3871,-1.03129712,0.03187270441919399,"{20: 1, 75: 2, 1: 6, 6: 1, 7: 2, 8: 10}","[1, 6, 7, 8, 20, 75]",166172810201752,Ca1Re2H6C1N2O10
Re2H6PbC(NO5)2,mp-720266,2.768,-0.40333621,0.02946676426136552,"{75: 2, 1: 6, 82: 1, 6: 1, 7: 2, 8: 10}","[1, 6, 7, 8, 75, 82]",166172810752821,Re2H6Pb1C1N2O10
H6CSN2O,mp-1201146,3.6624,3.05518625,0.032372764954543776,"{1: 6, 6: 1, 16: 1, 7: 2, 8: 1}","[1, 6, 7, 8, 16]",16617281161,H6C1S1N2O1
H6C(NO)2,mp-1212999,4.8731,-1.39763538,0.0,"{1: 6, 6: 1, 7: 2, 8: 2}","[1, 6, 7, 8]",16617282,H6C1N2O2
NaH6CN2ClO2,mp-1199928,4.8889,-1.64938778,0.01598106711538616,"{11: 1, 1: 6, 6: 1, 7: 2, 17: 1, 8: 2}","[1, 6, 7, 8, 11, 17]",16617282111171,Na1H6C1N2Cl1O2
H6CN2O3,mp-696658,4.4935,-1.11612655,0.23924060458332885,"{1: 6, 6: 1, 7: 2, 8: 3}","[1, 6, 7, 8]",16617283,H6C1N2O3
H6CSBrN3,mp-703380,3.4555,-0.15702871,0.18519315322480967,"{1: 6, 6: 1, 16: 1, 35: 1, 7: 3}","[1, 6, 7, 16, 35]",166173161351,H6C1S1Br1N3
AgH6CSN3,mp-1194934,2.8991,-1.04307738,0.06527798375000238,"{47: 1, 1: 6, 6: 1, 16: 1, 7: 3}","[1, 6, 7, 16, 47]",166173161471,Ag1H6C1S1N3
H6CN3Cl,mp-707023,5.107,-1.18080004,0.0,"{1: 6, 6: 1, 7: 3, 17: 1}","[1, 6, 7, 17]",166173171,H6C1N3Cl1
SnH6C(NCl)3,mp-1199443,3.0469,0.18660211,0.0,"{50: 1, 1: 6, 6: 1, 7: 3, 17: 3}","[1, 6, 7, 17, 50]",166173173501,Sn1H6C1N3Cl3
Hg2H6CN3Cl5,mp-973335,2.442,-0.91394874,0.0007039052573540872,"{80: 2, 1: 6, 6: 1, 7: 3, 17: 5}","[1, 6, 7, 17, 80]",166173175802,Hg2H6C1N3Cl5
SbH6C(NCl2)3,mp-703545,1.5847,-1.08406844,0.0009373027205894502,"{51: 1, 1: 6, 6: 1, 7: 3, 17: 6}","[1, 6, 7, 17, 51]",166173176511,Sb1H6C1N3Cl6
CdH6C(BrN)3,mp-695891,3.1149,-0.99957953,0.0,"{48: 1, 1: 6, 6: 1, 35: 3, 7: 3}","[1, 6, 7, 35, 48]",166173353481,Cd1H6C1Br3N3
CdH6C(IN)3,mp-1192575,2.597,2.1707603,0.0,"{48: 1, 1: 6, 6: 1, 53: 3, 7: 3}","[1, 6, 7, 48, 53]",166173481533,Cd1H6C1I3N3
H6CN3ClO,mp-23909,5.2019,-0.96286291,0.09546362349537141,"{1: 6, 6: 1, 7: 3, 17: 1, 8: 1}","[1, 6, 7, 8, 17]",16617381171,H6C1N3Cl1O1
H6CIN3(OF)2,mp-1205285,4.0078,2.52659666,0.28321362004504635,"{1: 6, 6: 1, 53: 1, 7: 3, 8: 2, 9: 2}","[1, 6, 7, 8, 9, 53]",1661738292531,H6C1I1N3O2F2
H6CS(NO)3,mp-1212516,4.9559999999999995,3.23750526,0.03385426440026151,"{1: 6, 6: 1, 16: 1, 7: 3, 8: 3}","[1, 6, 7, 8, 16]",16617383161,H6C1S1N3O3
CrH6CN3ClO3,mp-1214013,2.5332,0.8935252,0.24445655761112128,"{24: 1, 1: 6, 6: 1, 7: 3, 17: 1, 8: 3}","[1, 6, 7, 8, 17, 24]",16617383171241,Cr1H6C1N3Cl1O3
ReH6CN3O4,mp-974606,3.3959,-1.2216312,0.012008178000000314,"{75: 1, 1: 6, 6: 1, 7: 3, 8: 4}","[1, 6, 7, 8, 75]",16617384751,Re1H6C1N3O4
SbH6CN3F4,mp-722866,4.5806,-0.89843479,0.00047280866666721266,"{51: 1, 1: 6, 6: 1, 7: 3, 9: 4}","[1, 6, 7, 9, 51]",16617394511,Sb1H6C1N3F4
PH6C(NF2)3,mp-1204896,5.2849,3.64152712,0.0,"{15: 1, 1: 6, 6: 1, 7: 3, 9: 6}","[1, 6, 7, 9, 15]",16617396151,P1H6C1N3F6
H6CSN4,mp-24235,3.4076,0.41121698,0.16856814883333282,"{1: 6, 6: 1, 16: 1, 7: 4}","[1, 6, 7, 16]",166174161,H6C1S1N4
H6CN4O,mp-24207,4.9787,-0.44977358,0.15806673993055487,"{1: 6, 6: 1, 7: 4, 8: 1}","[1, 6, 7, 8]",16617481,H6C1N4O1
H6CN4O3,mp-643099,2.3977000000000004,-2.68064484,0.834782046071429,"{1: 6, 6: 1, 7: 4, 8: 3}","[1, 6, 7, 8]",16617483,H6C1N4O3
H6C(NO)4,mp-1196452,2.4537,1.44813861,0.4616745014444419,"{1: 6, 6: 1, 7: 4, 8: 4}","[1, 6, 7, 8]",16617484,H6C1N4O4
H6C(N3O)2,mp-1212539,1.987,-0.68105143,0.30697492516666713,"{1: 6, 6: 1, 7: 6, 8: 2}","[1, 6, 7, 8]",16617682,H6C1N6O2
H6C(N3O2)2,mp-707543,2.7113,-1.14689544,0.32743841759803516,"{1: 6, 6: 1, 7: 6, 8: 4}","[1, 6, 7, 8]",16617684,H6C1N6O4
H6CN6O5,mp-1203136,2.4617,0.96207935,0.5131852348611101,"{1: 6, 6: 1, 7: 6, 8: 5}","[1, 6, 7, 8]",16617685,H6C1N6O5
H6Os5Pt2(CO)17,mp-720469,1.7221000000000002,-0.56935667,0.2358005157978731,"{1: 6, 76: 5, 78: 2, 6: 17, 8: 17}","[1, 6, 8, 76, 78]",16617817765782,H6Os5Pt2C17O17
H6CN8O5,mp-1212645,3.1104,0.67171883,0.4911819618749993,"{1: 6, 6: 1, 7: 8, 8: 5}","[1, 6, 7, 8]",16617885,H6C1N8O5
UP2H6CO10,mp-1203553,0.45439999999999997,0.05800235,0.34402160124999703,"{92: 1, 15: 2, 1: 6, 6: 1, 8: 10}","[1, 6, 8, 15, 92]",1661810152921,U1P2H6C1O10
MgH6CO6,mp-1199041,4.8192,-0.95156187,0.018194128392860165,"{12: 1, 1: 6, 6: 1, 8: 6}","[1, 6, 8, 12]",166186121,Mg1H6C1O6
Sb2H6CS(ClO)6,mp-1204218,2.6062000000000003,-1.64987057,0.16773659354166348,"{51: 2, 1: 6, 6: 1, 16: 1, 17: 6, 8: 6}","[1, 6, 8, 16, 17, 51]",166186161176512,Sb2H6C1S1Cl6O6
As2H6CO6,mp-1194260,4.087899999999999,-1.70051251,0.20353212033333445,"{33: 2, 1: 6, 6: 1, 8: 6}","[1, 6, 8, 33]",166186332,As2H6C1O6
Cs2H6CO6,mp-758948,4.0513,-0.12932787,0.0,"{55: 2, 1: 6, 6: 1, 8: 6}","[1, 6, 8, 55]",166186552,Cs2H6C1O6
LaH6CO7,mp-1202276,1.98,2.94730186,0.16193141930555655,"{57: 1, 1: 6, 6: 1, 8: 7}","[1, 6, 8, 57]",166187571,La1H6C1O7
PuP2H6CO8,mp-1199114,0.3748,2.68288599,0.06861912128471825,"{94: 1, 15: 2, 1: 6, 6: 1, 8: 8}","[1, 6, 8, 15, 94]",166188152941,Pu1P2H6C1O8
AlH6C2SeCl3,mp-1200831,4.6429,-1.74818387,0.0,"{13: 1, 1: 6, 6: 2, 34: 1, 17: 3}","[1, 6, 13, 17, 34]",1662131173341,Al1H6C2Se1Cl3
AlTeH6C2Cl3,mp-1196941,3.9733,-1.23404429,0.06513587419871847,"{13: 1, 52: 1, 1: 6, 6: 2, 17: 3}","[1, 6, 13, 17, 52]",1662131173521,Al1Te1H6C2Cl3
AlTeH6C2Br3,mp-1205099,3.717,-1.21145853,0.05917670554487309,"{13: 1, 52: 1, 1: 6, 6: 2, 35: 3}","[1, 6, 13, 35, 52]",1662131353521,Al1Te1H6C2Br3
Si(H3C)2,mp-1201793,3.8564000000000003,-1.1160591,0.047183081540934424,"{14: 1, 1: 6, 6: 2}","[1, 6, 14]",1662141,Si1H6C2
H6C2SBr2,mp-860792,2.4037,-0.91994247,0.013940831834415413,"{1: 6, 6: 2, 16: 1, 35: 2}","[1, 6, 16, 35]",1662161352,H6C2S1Br2
SnH6C2S,mp-1200653,3.0337,-0.44754146,0.12186928154166754,"{50: 1, 1: 6, 6: 2, 16: 1}","[1, 6, 16, 50]",1662161501,Sn1H6C2S1
TaH6C2SeCl5,mp-1192701,2.2733,-1.23528985,0.0,"{73: 1, 1: 6, 6: 2, 34: 1, 17: 5}","[1, 6, 17, 34, 73]",1662175341731,Ta1H6C2Se1Cl5
Zn(H3C)2,mp-1189432,4.2316,-2.87074065,0.15492026569444306,"{30: 1, 1: 6, 6: 2}","[1, 6, 30]",1662301,Zn1H6C2
GaH6C2SeI3,mp-1201119,2.6612,-0.44034465,0.0,"{31: 1, 1: 6, 6: 2, 34: 1, 53: 3}","[1, 6, 31, 34, 53]",1662311341533,Ga1H6C2Se1I3
CsAsH6(CSe)2,mp-866612,2.2104,-0.04398878,0.08296676364584776,"{55: 1, 33: 1, 1: 6, 6: 2, 34: 2}","[1, 6, 33, 34, 55]",1662331342551,Cs1As1H6C2Se2
SbH6C2I,mp-582587,2.5887000000000002,-0.27866137,0.10815148166666688,"{51: 1, 1: 6, 6: 2, 53: 1}","[1, 6, 51, 53]",1662511531,Sb1H6C2I1
Hg3Sb3H6C2Se8N,mp-1224700,0.000400000000000178,1.07968504,0.17018087171535257,"{80: 3, 51: 3, 1: 6, 6: 2, 34: 8, 7: 1}","[1, 6, 7, 34, 51, 80]",166271348513803,Hg3Sb3H6C2Se8N1
H6C2NO,mp-601178,2.6184,0.10925711,0.29235698281250055,"{1: 6, 6: 2, 7: 1, 8: 1}","[1, 6, 7, 8]",16627181,H6C2N1O1
Ga3P3H6C2NO13,mp-721128,0.5648999999999997,2.59909844,0.22473656097257866,"{31: 3, 15: 3, 1: 6, 6: 2, 7: 1, 8: 13}","[1, 6, 7, 8, 15, 31]",166271813153313,Ga3P3H6C2N1O13
PH6C2S2N(ClO2)2,mp-555563,3.8232999999999997,-0.76010942,0.39970028076057407,"{15: 1, 1: 6, 6: 2, 16: 2, 7: 1, 17: 2, 8: 4}","[1, 6, 7, 8, 15, 16, 17]",16627184151162172,P1H6C2S2N1Cl2O4
KH6C2S2NO4,mp-24179,5.3158,-0.65342299,0.27891850744789615,"{19: 1, 1: 6, 6: 2, 16: 2, 7: 1, 8: 4}","[1, 6, 7, 8, 16, 19]",16627184162191,K1H6C2S2N1O4
RbH6C2S2NO4,mp-24180,5.1913,-0.78318264,0.27523691611467704,"{37: 1, 1: 6, 6: 2, 16: 2, 7: 1, 8: 4}","[1, 6, 7, 8, 16, 37]",16627184162371,Rb1H6C2S2N1O4
CsH6C2S2NO4,mp-1203517,5.2633,3.77458655,0.2795702028750018,"{55: 1, 1: 6, 6: 2, 16: 2, 7: 1, 8: 4}","[1, 6, 7, 8, 16, 55]",16627184162551,Cs1H6C2S2N1O4
Sb3P2H6C2NO9,mp-698522,0.03469999999999995,1.2026648,0.43676092367753494,"{51: 3, 15: 2, 1: 6, 6: 2, 7: 1, 8: 9}","[1, 6, 7, 8, 15, 51]",16627189152513,Sb3P2H6C2N1O9
LaH6C2SNO9,mp-1199356,3.3487,3.9005059,0.020322917979161303,"{57: 1, 1: 6, 6: 2, 16: 1, 7: 1, 8: 9}","[1, 6, 7, 8, 16, 57]",16627189161571,La1H6C2S1N1O9
SmH6C2SNO9,mp-1205082,3.2493,3.38443791,0.03131704490341036,"{62: 1, 1: 6, 6: 2, 16: 1, 7: 1, 8: 9}","[1, 6, 7, 8, 16, 62]",16627189161621,Sm1H6C2S1N1O9