formula,material_id,band_gap,efermi,energy_above_hull,comp_atoms,sorted_keys_comp_atoms,comp_number,new_formula
MgP(CO4)2,mp-1200361,0.7369000000000001,-1.20402892,0.8158470907291706,"{12: 1, 15: 1, 6: 2, 8: 8}","[6, 8, 12, 15]",6288121151,Mg1P1C2O8
K2Mo(CO4)2,mp-1199178,0.9431,-0.13926347,0.47175025605769605,"{19: 2, 42: 1, 6: 2, 8: 8}","[6, 8, 19, 42]",6288192421,K2Mo1C2O8
CaBi2(CO4)2,mp-556411,1.0617999999999999,4.20587221,0.18298269788461052,"{20: 1, 83: 2, 6: 2, 8: 8}","[6, 8, 20, 83]",6288201832,Ca1Bi2C2O8
Rb2Mo(CO4)2,mp-1202471,0.8773,-0.27279449,0.46599559634615684,"{37: 2, 42: 1, 6: 2, 8: 8}","[6, 8, 37, 42]",6288372421,Rb2Mo1C2O8
PdC2S2(O4F)2,mp-566960,2.2614,-1.85306156,0.16649255170833133,"{46: 1, 6: 2, 16: 2, 8: 8, 9: 2}","[6, 8, 9, 16, 46]",628892162461,Pd1C2S2O8F2
PtC2S2(O4F)2,mp-1196656,3.4899,1.21743525,0.11583174833334198,"{78: 1, 6: 2, 16: 2, 8: 8, 9: 2}","[6, 8, 9, 16, 78]",628892162781,Pt1C2S2O8F2
K2MoC2O9,mp-559331,2.5688999999999997,-0.33010143,0.5111166841964287,"{19: 2, 42: 1, 6: 2, 8: 9}","[6, 8, 19, 42]",6289192421,K2Mo1C2O9
K2WC2O9,mp-556573,3.5025,-0.50919612,0.34322544066964245,"{19: 2, 74: 1, 6: 2, 8: 9}","[6, 8, 19, 74]",6289192741,K2W1C2O9
K4C2O9,mp-1211856,0.0,-0.94562006,0.3164021768333285,"{19: 4, 6: 2, 8: 9}","[6, 8, 19]",6289194,K4C2O9
Ti2C2O9,mp-1198230,0.007799999999999807,-2.00526725,0.5457412392307681,"{22: 2, 6: 2, 8: 9}","[6, 8, 22]",6289222,Ti2C2O9
Rb4C2O9,mp-1209669,0.00910000000000001,-0.12041866,0.2972524194999995,"{37: 4, 6: 2, 8: 9}","[6, 8, 37]",6289374,Rb4C2O9
UC2O9,mp-1198839,0.8047,-0.58016171,0.4462351164583369,"{92: 1, 6: 2, 8: 9}","[6, 8, 92]",6289921,U1C2O9
ThC2,mp-7224,0.0,7.00809941,0.0,"{90: 1, 6: 2}","[6, 90]",62901,Th1C2
ThUC2,mp-1217323,0.0,9.18251315,0.0,"{90: 1, 92: 1, 6: 2}","[6, 90, 92]",62901921,Th1U1C2
C2F,mp-683965,2.0832,1.04140944,0.24404239155092622,"{6: 2, 9: 1}","[6, 9]",6291,C2F1
PaC2,mp-1018130,0.0,10.05257003,0.03381252083332775,"{91: 1, 6: 2}","[6, 91]",62911,Pa1C2
UC2,mp-2486,0.0,10.56593398,0.0,"{92: 1, 6: 2}","[6, 92]",62921,U1C2
PuUC2,mp-1219685,0.0,10.83430429,0.10464632531250473,"{94: 1, 92: 1, 6: 2}","[6, 92, 94]",62921941,Pu1U1C2
PuC2,mp-1206675,0.0,9.54937923,0.1671361754166707,"{94: 1, 6: 2}","[6, 94]",62941,Pu1C2
C2SF6,mp-1214118,4.0187,2.39833273,0.31447104654761926,"{6: 2, 16: 1, 9: 6}","[6, 9, 16]",6296161,C2S1F6
Ge2C2(SF2)3,mp-541145,3.3624,-0.82148749,0.30519235288805113,"{32: 2, 6: 2, 16: 3, 9: 6}","[6, 9, 16, 32]",6296163322,Ge2C2S3F6
Ge2C2(SeF2)3,mp-541146,2.4208,-0.42772347,0.26702303442157493,"{32: 2, 6: 2, 34: 3, 9: 6}","[6, 9, 32, 34]",6296322343,Ge2C2Se3F6
Te(CF4)2,mp-554085,4.2451,-1.51873145,0.24465799181817793,"{52: 1, 6: 2, 9: 8}","[6, 9, 52]",6298521,Te1C2F8
Mg2C3,mp-28793,1.6533000000000002,3.98673097,0.1844627274999997,"{12: 2, 6: 3}","[6, 12]",63122,Mg2C3
AlC3,mp-1065540,0.0,9.12839652,2.7493454807812503,"{13: 1, 6: 3}","[6, 13]",63131,Al1C3
AlV4C3,mp-569458,0.0,7.58792741,0.01170204348855819,"{13: 1, 23: 4, 6: 3}","[6, 13, 23]",63131234,Al1V4C3
Nb4AlC3,mp-3103,0.0,6.80349919,0.00680752046875277,"{41: 4, 13: 1, 6: 3}","[6, 13, 41]",63131414,Nb4Al1C3
Ta4AlC3,mp-3802,0.0,7.69536188,0.0,"{73: 4, 13: 1, 6: 3}","[6, 13, 73]",63131734,Ta4Al1C3
Ti5Al2C3,mp-1079706,0.0,6.91314877,0.0,"{22: 5, 13: 2, 6: 3}","[6, 13, 22]",63132225,Ti5Al2C3
Th2Al2C3,mp-569564,0.0,7.68069491,0.0,"{90: 2, 13: 2, 6: 3}","[6, 13, 90]",63132902,Th2Al2C3
Sc(AlC)3,mp-4798,0.02230000000000043,7.46180409,0.0,"{21: 1, 13: 3, 6: 3}","[6, 13, 21]",63133211,Sc1Al3C3
Sc2Al3Mo4C3,mp-2646988,0.0,7.31339202,0.0,"{21: 2, 13: 3, 42: 4, 6: 3}","[6, 13, 21, 42]",63133212424,Sc2Al3Mo4C3
Ta2Al3V4C3,mp-1217823,0.0,7.06884032,0.026365223750024924,"{73: 2, 13: 3, 23: 4, 6: 3}","[6, 13, 23, 73]",63133234732,Ta2Al3V4C3
Al3Co(W3C)3,mp-1201626,0.0,7.84787701,0.04479321476562603,"{13: 3, 27: 1, 74: 9, 6: 3}","[6, 13, 27, 74]",63133271749,Al3Co1W9C3
Gd(AlC)3,mp-1104806,0.0,6.49572231,0.0,"{64: 1, 13: 3, 6: 3}","[6, 13, 64]",63133641,Gd1Al3C3
Tb(AlC)3,mp-972049,0.0,6.70367524,0.0,"{65: 1, 13: 3, 6: 3}","[6, 13, 65]",63133651,Tb1Al3C3
Dy(AlC)3,mp-1104803,0.0,6.73163185,0.0,"{66: 1, 13: 3, 6: 3}","[6, 13, 66]",63133661,Dy1Al3C3
Ho(AlC)3,mp-973634,0.0,6.73380742,0.0,"{67: 1, 13: 3, 6: 3}","[6, 13, 67]",63133671,Ho1Al3C3
Er(AlC)3,mp-1104636,0.026099999999999568,6.79747373,0.0,"{68: 1, 13: 3, 6: 3}","[6, 13, 68]",63133681,Er1Al3C3
Tm(AlC)3,mp-979041,0.0528000000000004,6.81321437,0.0,"{69: 1, 13: 3, 6: 3}","[6, 13, 69]",63133691,Tm1Al3C3
Lu(AlC)3,mp-973586,0.1528999999999998,6.853481,0.0,"{71: 1, 13: 3, 6: 3}","[6, 13, 71]",63133711,Lu1Al3C3
U(AlC)3,mp-568155,0.0,9.85502303,0.0,"{92: 1, 13: 3, 6: 3}","[6, 13, 92]",63133921,U1Al3C3
Al4C3,mp-1591,1.3154000000000003,7.3085706,0.0,"{13: 4, 6: 3}","[6, 13]",63134,Al4C3
SiC3,mp-972848,0.0,4.88790337,2.2886615401842096,"{14: 1, 6: 3}","[6, 14]",63141,Si1C3
Nb4SiC3,mp-1188839,0.0,7.32358373,0.04457862487061348,"{41: 4, 14: 1, 6: 3}","[6, 14, 41]",63141414,Nb4Si1C3
U20Si16C3,mp-21906,0.0,11.39597579,0.03464623915064102,"{92: 20, 14: 16, 6: 3}","[6, 14, 92]",6314169220,U20Si16C3
U3Si2C3,mp-29653,0.0,10.03744967,0.2150505469057009,"{92: 3, 14: 2, 6: 3}","[6, 14, 92]",63142923,U3Si2C3
Sm2Co18Si4C3,mp-1219302,0.0,6.43070264,0.025024235092590885,"{62: 2, 27: 18, 14: 4, 6: 3}","[6, 14, 27, 62]",631442718622,Sm2Co18Si4C3
Si5C3,mp-1219306,0.7307000000000001,2.5393566,0.8732891859013163,"{14: 5, 6: 3}","[6, 14]",63145,Si5C3
Si8C3,mp-1179504,0.0,6.7279087,0.561894805200958,"{14: 8, 6: 3}","[6, 14]",63148,Si8C3
Si8C3Cl20,mp-1203441,4.6567,-0.6462958,0.0701185126519519,"{14: 8, 6: 3, 17: 20}","[6, 14, 17]",631481720,Si8C3Cl20
C3S4,mp-1203337,1.4507,1.67452725,0.26270680349489783,"{6: 3, 16: 4}","[6, 16]",63164,C3S4
Ta6Ti(CS2)3,mp-1218009,0.0,7.07447752,0.011579715000001656,"{73: 6, 22: 1, 6: 3, 16: 6}","[6, 16, 22, 73]",63166221736,Ta6Ti1C3S6
Nb6V2(CS2)3,mp-1220491,0.0,7.44712781,0.04344020066176135,"{41: 6, 23: 2, 6: 3, 16: 6}","[6, 16, 23, 41]",63166232416,Nb6V2C3S6
Ta6Cr(CS2)3,mp-1218070,0.0,6.94236596,0.00448585750000241,"{73: 6, 24: 1, 6: 3, 16: 6}","[6, 16, 24, 73]",63166241736,Ta6Cr1C3S6
Ta6Mn(CS2)3,mp-1218119,0.0,6.75923763,0.002338958254309631,"{73: 6, 25: 1, 6: 3, 16: 6}","[6, 16, 25, 73]",63166251736,Ta6Mn1C3S6
Ta6Co(CS2)3,mp-1218086,0.0,7.03507794,0.03769803249999981,"{73: 6, 27: 1, 6: 3, 16: 6}","[6, 16, 27, 73]",63166271736,Ta6Co1C3S6
C3S8,mp-30078,1.7443,0.88374843,0.18029566490259707,"{6: 3, 16: 8}","[6, 16]",63168,C3S8
Ca3C3Cl2,mp-28160,1.2768000000000002,3.69129857,0.0,"{20: 3, 6: 3, 17: 2}","[6, 17, 20]",63172203,Ca3C3Cl2
La3C3Cl2,mp-570942,0.0,7.46378924,0.05282023435956251,"{57: 3, 6: 3, 17: 2}","[6, 17, 57]",63172573,La3C3Cl2
P2C31N3O5,mp-1196097,0.6464999999999999,-1.56038043,1.363935563109754,"{15: 2, 6: 31, 7: 3, 8: 5}","[6, 7, 8, 15]",6317385152,P2C31N3O5
Gd6C3Cl5,mp-621024,0.0,4.04311259,0.0002518976091288039,"{64: 6, 6: 3, 17: 5}","[6, 17, 64]",63175646,Gd6C3Cl5
Sc2C3,mp-16296,0.0,6.33451909,0.11261375116666805,"{21: 2, 6: 3}","[6, 21]",63212,Sc2C3
Sc2CrC3,mp-608543,0.0,6.40746601,0.0,"{21: 2, 24: 1, 6: 3}","[6, 21, 24]",63212241,Sc2Cr1C3
Sc4C3,mp-15661,0.32870000000000044,5.66266003,0.0,"{21: 4, 6: 3}","[6, 21]",63214,Sc4C3
TiC3,mp-1208199,0.0,3.51757327,1.7758993862499999,"{22: 1, 6: 3}","[6, 22]",63221,Ti1C3
TaTiWC3,mp-1217819,0.0,8.45912342,0.1186693783333368,"{73: 1, 22: 1, 74: 1, 6: 3}","[6, 22, 73, 74]",63221731741,Ta1Ti1W1C3
Ti4GaC3,mp-1217125,0.0,6.34458058,0.0,"{22: 4, 31: 1, 6: 3}","[6, 22, 31]",63224311,Ti4Ga1C3
VC3,mp-1178822,0.0,6.84695247,0.8865321484027788,"{23: 1, 6: 3}","[6, 23]",63231,V1C3
VW2C3,mp-1216260,0.0,9.00999785,0.28277676081018654,"{23: 1, 74: 2, 6: 3}","[6, 23, 74]",63231742,V1W2C3
V4C3,mp-1216471,0.0,7.18614971,0.08764150708333318,"{23: 4, 6: 3}","[6, 23]",63234,V4C3
Sm2Cr2C3,mp-1078035,0.0,5.20443201,0.0,"{62: 2, 24: 2, 6: 3}","[6, 24, 62]",63242622,Sm2Cr2C3
Gd2Cr2C3,mp-1078248,0.0,5.21491419,0.0,"{64: 2, 24: 2, 6: 3}","[6, 24, 64]",63242642,Gd2Cr2C3
Tb2Cr2C3,mp-1025266,0.0,5.45464316,0.0,"{65: 2, 24: 2, 6: 3}","[6, 24, 65]",63242652,Tb2Cr2C3
Dy2Cr2C3,mp-1025323,0.0,5.3961748,0.0,"{66: 2, 24: 2, 6: 3}","[6, 24, 66]",63242662,Dy2Cr2C3
Ho2Cr2C3,mp-8499,0.0,5.34563476,0.0,"{67: 2, 24: 2, 6: 3}","[6, 24, 67]",63242672,Ho2Cr2C3
Er2Cr2C3,mp-1078190,0.0,5.37003883,0.0,"{68: 2, 24: 2, 6: 3}","[6, 24, 68]",63242682,Er2Cr2C3
Tm2Cr2C3,mp-1025181,0.0,5.30489916,0.0,"{69: 2, 24: 2, 6: 3}","[6, 24, 69]",63242692,Tm2Cr2C3
Lu2Cr2C3,mp-1025175,0.0,5.26249324,0.0,"{71: 2, 24: 2, 6: 3}","[6, 24, 71]",63242712,Lu2Cr2C3
Cr7C3,mp-1196316,0.0,8.13538887,0.0,"{24: 7, 6: 3}","[6, 24]",63247,Cr7C3
Gd2Mn17C3,mp-1193010,0.0,5.97660742,0.0,"{64: 2, 25: 17, 6: 3}","[6, 25, 64]",632517642,Gd2Mn17C3
Dy2Mn17C3,mp-1213428,0.0,5.82823331,0.014051866146813197,"{66: 2, 25: 17, 6: 3}","[6, 25, 66]",632517662,Dy2Mn17C3
Ho2Mn17C3,mp-1212558,0.0,5.87549309,0.006068629440727946,"{67: 2, 25: 17, 6: 3}","[6, 25, 67]",632517672,Ho2Mn17C3
Er2Mn17C3,mp-1213058,0.0,5.93962197,0.00995824113494237,"{68: 2, 25: 17, 6: 3}","[6, 25, 68]",632517682,Er2Mn17C3
Tm2Mn17C3,mp-1208144,0.0,5.9167309,0.004889710721720064,"{69: 2, 25: 17, 6: 3}","[6, 25, 69]",632517692,Tm2Mn17C3
Lu2Mn17C3,mp-1211163,0.0,5.82720433,0.009539844592476143,"{71: 2, 25: 17, 6: 3}","[6, 25, 71]",632517712,Lu2Mn17C3
Nd2Mn22C3,mp-1220644,0.0,6.08235241,0.026318576289900975,"{60: 2, 25: 22, 6: 3}","[6, 25, 60]",632522602,Nd2Mn22C3
Mn7C3,mp-21256,0.0,7.92921615,0.014997985989127827,"{25: 7, 6: 3}","[6, 25]",63257,Mn7C3
Mn9Ga2SnC3,mp-1222217,0.0,2.27504207,2.1724097149492767,"{25: 9, 31: 2, 50: 1, 6: 3}","[6, 25, 31, 50]",63259312501,Mn9Ga2Sn1C3
In4(Co4C)3,mp-1224620,0.0,7.61894559,0.0691856747807007,"{49: 4, 27: 12, 6: 3}","[6, 27, 49]",632712494,In4Co12C3
CrC32O5,mp-1200737,0.45909999999999995,-0.87244344,1.2340806155427622,"{24: 1, 6: 32, 8: 5}","[6, 8, 24]",63285241,Cr1C32O5
Nb8Zn4C3,mp-672681,0.0,5.27588192,0.2145130076666657,"{41: 8, 30: 4, 6: 3}","[6, 30, 41]",63304418,Nb8Zn4C3
GaC3,mp-1064861,0.0,6.30744707,3.2236059399999997,"{31: 1, 6: 3}","[6, 31]",63311,Ga1C3
As4C3,mp-568505,0.0,6.70086693,0.8794183196428556,"{33: 4, 6: 3}","[6, 33]",63334,As4C3
Pr7C3Br10,mp-1202671,0.10239999999999982,3.49774496,0.0,"{59: 7, 6: 3, 35: 10}","[6, 35, 59]",633510597,Pr7C3Br10
Nb2Mo2C3,mp-1220685,0.0,7.57513606,0.23681716821428545,"{41: 2, 42: 2, 6: 3}","[6, 41, 42]",63412422,Nb2Mo2C3
Nb4C3,mp-1220515,0.0,6.40928096,0.054110071428569384,"{41: 4, 6: 3}","[6, 41]",63414,Nb4C3
Ce2Mo2C3,mp-13263,0.0,8.22410377,0.0,"{58: 2, 42: 2, 6: 3}","[6, 42, 58]",63422582,Ce2Mo2C3
Pr2Mo2C3,mp-31225,0.0,6.03666041,0.0,"{59: 2, 42: 2, 6: 3}","[6, 42, 59]",63422592,Pr2Mo2C3
Sm2Mo2C3,mp-13264,0.0,5.51892796,0.0,"{62: 2, 42: 2, 6: 3}","[6, 42, 62]",63422622,Sm2Mo2C3
Gd2Mo2C3,mp-12039,0.0,5.42908747,0.0,"{64: 2, 42: 2, 6: 3}","[6, 42, 64]",63422642,Gd2Mo2C3
Tb2Mo2C3,mp-1025326,0.0,5.66339827,0.0,"{65: 2, 42: 2, 6: 3}","[6, 42, 65]",63422652,Tb2Mo2C3
Dy2Mo2C3,mp-1025363,0.0,5.64377658,0.0,"{66: 2, 42: 2, 6: 3}","[6, 42, 66]",63422662,Dy2Mo2C3
Ho2Mo2C3,mp-5051,0.0,5.59896394,0.0,"{67: 2, 42: 2, 6: 3}","[6, 42, 67]",63422672,Ho2Mo2C3
Er2Mo2C3,mp-3776,0.0,5.63080968,0.0,"{68: 2, 42: 2, 6: 3}","[6, 42, 68]",63422682,Er2Mo2C3
Tm2Mo2C3,mp-1025369,0.0,5.6307779,0.0,"{69: 2, 42: 2, 6: 3}","[6, 42, 69]",63422692,Tm2Mo2C3
Lu2Mo2C3,mp-973756,0.0,5.64301617,0.0,"{71: 2, 42: 2, 6: 3}","[6, 42, 71]",63422712,Lu2Mo2C3
TaMo2C3,mp-1217903,0.0,9.05264073,0.19739811041666933,"{73: 1, 42: 2, 6: 3}","[6, 42, 73]",63422731,Ta1Mo2C3
U2Mo2C3,mp-1025174,0.0,10.39717424,0.05284105357142721,"{92: 2, 42: 2, 6: 3}","[6, 42, 92]",63422922,U2Mo2C3
Mo4C3,mp-1221488,0.0,9.11134111,0.193866674642857,"{42: 4, 6: 3}","[6, 42]",63424,Mo4C3
Hf4(Ru4C)3,mp-1224508,0.0,7.22608654,0.03037274473684448,"{72: 4, 44: 12, 6: 3}","[6, 44, 72]",634412724,Hf4Ru12C3
Nb39C34,mp-1173628,0.0,6.89900274,0.088001698544522,"{41: 39, 6: 34}","[6, 41]",6344139,Nb39C34
InC3,mp-1064282,0.0,7.85633385,3.389760250208333,"{49: 1, 6: 3}","[6, 49]",63491,In1C3
La7C3I10,mp-567729,0.0,5.84666921,0.0,"{57: 7, 6: 3, 53: 10}","[6, 53, 57]",635310577,La7C3I10
Ce7C3I10,mp-568922,0.0,6.22481244,0.0,"{58: 7, 6: 3, 53: 10}","[6, 53, 58]",635310587,Ce7C3I10
Pr7C3I10,mp-645425,0.012199999999999989,4.4043765,0.0,"{59: 7, 6: 3, 53: 10}","[6, 53, 59]",635310597,Pr7C3I10
LaLuC3,mp-1222954,0.0,7.2250324,0.1140518377333315,"{57: 1, 71: 1, 6: 3}","[6, 57, 71]",63571711,La1Lu1C3
La2C3,mp-1184,0.0,8.63082749,0.0,"{57: 2, 6: 3}","[6, 57]",63572,La2C3
Ce2C3,mp-20181,0.0,8.34326891,0.0,"{58: 2, 6: 3}","[6, 58]",63582,Ce2C3
Pr2C3,mp-683,0.0,5.22490877,0.0,"{59: 2, 6: 3}","[6, 59]",63592,Pr2C3
Nd2C3,mp-1800,0.0,5.16620061,0.0,"{60: 2, 6: 3}","[6, 60]",63602,Nd2C3
Sm2C3,mp-569335,0.0,4.94781057,0.0,"{62: 2, 6: 3}","[6, 62]",63622,Sm2C3
Gd2C3,mp-1189998,0.0,4.92997471,0.0,"{64: 2, 6: 3}","[6, 64]",63642,Gd2C3
Tb2C3,mp-7024,0.0,5.33324485,0.022087051750000697,"{65: 2, 6: 3}","[6, 65]",63652,Tb2C3
Dy2C3,mp-2238,0.0,5.30749788,0.03391553786666712,"{66: 2, 6: 3}","[6, 66]",63662,Dy2C3
Ho2C3,mp-2332,0.0,5.23093956,0.04886741976000053,"{67: 2, 6: 3}","[6, 67]",63672,Ho2C3
Er2C3,mp-9544,0.0,5.27140393,0.05771427859999978,"{68: 2, 6: 3}","[6, 68]",63682,Er2C3
Tm2C3,mp-9545,0.0,5.23422694,0.06732393390000002,"{69: 2, 6: 3}","[6, 69]",63692,Tm2C3
C3N,mp-1014296,0.0,5.62537787,0.3111322481250003,"{6: 3, 7: 1}","[6, 7]",6371,C3N1
AlC3NCl3,mp-1105616,0.9859999999999998,-1.39668256,1.3908009740624996,"{13: 1, 6: 3, 7: 1, 17: 3}","[6, 7, 13, 17]",6371131173,Al1C3N1Cl3
Al5C3N,mp-570079,0.8374000000000006,7.62172206,0.04771473888889144,"{13: 5, 6: 3, 7: 1}","[6, 7, 13]",6371135,Al5C3N1
GaSi3C3N,mp-1079836,2.5994,7.00354887,0.06788835419161376,"{31: 1, 14: 3, 6: 3, 7: 1}","[6, 7, 14, 31]",6371143311,Ga1Si3C3N1
C3NCl,mp-722045,1.3250000000000002,-0.63551978,1.3948303536666664,"{6: 3, 7: 1, 17: 1}","[6, 7, 17]",6371171,C3N1Cl1
MnC3NCl3,mp-1197204,0.0,-1.14237509,1.2439385138541637,"{25: 1, 6: 3, 7: 1, 17: 3}","[6, 7, 17, 25]",6371173251,Mn1C3N1Cl3
CdC3NCl3,mp-1199754,1.9514999999999998,-0.83126005,1.1295948933854154,"{48: 1, 6: 3, 7: 1, 17: 3}","[6, 7, 17, 48]",6371173481,Cd1C3N1Cl3
Lu2C3,mp-15319,0.0,5.242897,0.08779652878000022,"{71: 2, 6: 3}","[6, 71]",63712,Lu2C3
Ti3WC3N,mp-1217122,0.0,8.19441741,0.15507985562500082,"{22: 3, 74: 1, 6: 3, 7: 1}","[6, 7, 22, 74]",6371223741,Ti3W1C3N1
Ti4C3N,mp-1217103,0.0,8.0507399,0.0,"{22: 4, 6: 3, 7: 1}","[6, 7, 22]",6371224,Ti4C3N1
Cr12As4C3N,mp-1226081,0.0,7.87332096,0.07847594768750099,"{24: 12, 33: 4, 6: 3, 7: 1}","[6, 7, 24, 33]",63712412334,Cr12As4C3N1
Cr6C3N,mp-1226051,0.0,8.38780447,0.06875972937500308,"{24: 6, 6: 3, 7: 1}","[6, 7, 24]",6371246,Cr6C3N1
Mn10C3N,mp-1222027,0.0,6.02008714,0.18998842223602175,"{25: 10, 6: 3, 7: 1}","[6, 7, 25]",63712510,Mn10C3N1
Ag3As2C3Se5N,mp-1183016,1.1289,0.21678259,0.38484289328703536,"{47: 3, 33: 2, 6: 3, 34: 5, 7: 1}","[6, 7, 33, 34, 47]",6371332345473,Ag3As2C3Se5N1
Zr4C3N,mp-1215389,0.0,6.23532931,0.0,"{40: 4, 6: 3, 7: 1}","[6, 7, 40]",6371404,Zr4C3N1
C3IN,mp-722025,0.9571000000000001,-2.02984943,1.6875570570000002,"{6: 3, 53: 1, 7: 1}","[6, 7, 53]",6371531,C3I1N1
Hg2C3I5N,mp-1225947,2.0441000000000003,0.41948137,0.4946546469318158,"{80: 2, 6: 3, 53: 5, 7: 1}","[6, 7, 53, 80]",6371535802,Hg2C3I5N1
Hf4C3N,mp-1224399,0.0,6.93183859,0.0,"{72: 4, 6: 3, 7: 1}","[6, 7, 72]",6371724,Hf4C3N1
C3NClO,mp-1190863,2.4435,-0.36130976,1.227023177847224,"{6: 3, 7: 1, 17: 1, 8: 1}","[6, 7, 8, 17]",637181171,C3N1Cl1O1
PbC3S2N(O2F)2,mp-1192972,0.0391999999999999,-1.07007606,1.9325324836813147,"{82: 1, 6: 3, 16: 2, 7: 1, 8: 4, 9: 2}","[6, 7, 8, 9, 16, 82]",63718492162821,Pb1C3S2N1O4F2
CdC3NO6,mp-1197974,1.6183,-0.98695376,0.6127071005681781,"{48: 1, 6: 3, 7: 1, 8: 6}","[6, 7, 8, 48]",637186481,Cd1C3N1O6
UC3NO8,mp-726441,0.0,-0.74792559,0.5161632806410292,"{92: 1, 6: 3, 7: 1, 8: 8}","[6, 7, 8, 92]",637188921,U1C3N1O8
AlP3C3NO9,mp-727116,9.999999999998899e-05,-0.22140936,0.6263688091176274,"{13: 1, 15: 3, 6: 3, 7: 1, 8: 9}","[6, 7, 8, 13, 15]",637189131153,Al1P3C3N1O9
AsC3S3NF10,mp-1214763,0.6846,0.613476,0.2054760440922605,"{33: 1, 6: 3, 16: 3, 7: 1, 9: 10}","[6, 7, 9, 16, 33]",6371910163331,As1C3S3N1F10
AsC3S3NF11,mp-1204430,0.5439999999999999,-0.25287524,0.19646763752819396,"{33: 1, 6: 3, 16: 3, 7: 1, 9: 11}","[6, 7, 9, 16, 33]",6371911163331,As1C3S3N1F11
C3N2,mp-1188347,3.745799999999999,7.90469297,0.2654204655000001,"{6: 3, 7: 2}","[6, 7]",6372,C3N2
Al6C3N2,mp-5798,0.11539999999999928,8.00556838,0.09845387181818399,"{13: 6, 6: 3, 7: 2}","[6, 7, 13]",6372136,Al6C3N2
TiSi2C3N2Cl5,mp-727058,0.0,-2.55500352,0.7900935302307657,"{22: 1, 14: 2, 6: 3, 7: 2, 17: 5}","[6, 7, 14, 17, 22]",6372142175221,Ti1Si2C3N2Cl5
K3Mo3C3(Se2N)2,mp-1211951,0.09610000000000007,1.93120754,0.11001453911616199,"{19: 3, 42: 3, 6: 3, 34: 4, 7: 2}","[6, 7, 19, 34, 42]",6372193344423,K3Mo3C3Se4N2
UC3S(NO4)2,mp-1208253,0.0,-2.74438354,1.0548243345674617,"{92: 1, 6: 3, 16: 1, 7: 2, 8: 8}","[6, 7, 8, 16, 92]",637288161921,U1C3S1N2O8
GaP2C3N2O8F,mp-1225237,0.0,-2.3842889,0.8520624472548892,"{31: 1, 15: 2, 6: 3, 7: 2, 8: 8, 9: 1}","[6, 7, 8, 9, 15, 31]",63728891152311,Ga1P2C3N2O8F1
Na2MoC3SeN3,mp-683943,1.3446000000000002,1.68635436,0.07513518230487293,"{11: 2, 42: 1, 6: 3, 34: 1, 7: 3}","[6, 7, 11, 34, 42]",6373112341421,Na2Mo1C3Se1N3
Al(CN)3,mp-1229076,5.1114999999999995,-3.63375018,0.31430659178571396,"{13: 1, 6: 3, 7: 3}","[6, 7, 13]",6373131,Al1C3N3
AlC3(NCl2)3,mp-607454,2.5682,-0.71699648,0.0,"{13: 1, 6: 3, 7: 3, 17: 6}","[6, 7, 13, 17]",6373131176,Al1C3N3Cl6
Al7(CN)3,mp-569102,0.0,8.21911197,0.09652503346153907,"{13: 7, 6: 3, 7: 3}","[6, 7, 13]",6373137,Al7C3N3
P(CN)3,mp-622020,4.4681,-2.78598791,0.660166508392857,"{15: 1, 6: 3, 7: 3}","[6, 7, 15]",6373151,P1C3N3
KHgC3(SN)3,mp-630760,1.6838,-0.47439248,0.1427563165476169,"{19: 1, 80: 1, 6: 3, 16: 3, 7: 3}","[6, 7, 16, 19, 80]",6373163191801,K1Hg1C3S3N3
K2AgC3(SN)3,mp-680232,3.085,0.04518969,0.06625788016666245,"{19: 2, 47: 1, 6: 3, 16: 3, 7: 3}","[6, 7, 16, 19, 47]",6373163192471,K2Ag1C3S3N3
K2Re3TeC3(SN)3,mp-1213559,2.0883000000000003,1.33351693,0.004924260626227195,"{19: 2, 75: 3, 52: 1, 6: 3, 16: 3, 7: 3}","[6, 7, 16, 19, 52, 75]",6373163192521753,K2Re3Te1C3S3N3
RbCdC3(SN)3,mp-540654,3.208,-0.67835323,0.11145962025974132,"{37: 1, 48: 1, 6: 3, 16: 3, 7: 3}","[6, 7, 16, 37, 48]",6373163371481,Rb1Cd1C3S3N3
RbHgC3(SN)3,mp-669543,1.9419,-0.49890571,0.13506147866882579,"{37: 1, 80: 1, 6: 3, 16: 3, 7: 3}","[6, 7, 16, 37, 80]",6373163371801,Rb1Hg1C3S3N3
Rb2AgC3(SN)3,mp-555575,3.1003,-0.29224163,0.05242031639484157,"{37: 2, 47: 1, 6: 3, 16: 3, 7: 3}","[6, 7, 16, 37, 47]",6373163372471,Rb2Ag1C3S3N3
CsHgC3(SN)3,mp-1196478,2.6031,1.68846805,0.1390975094507585,"{55: 1, 80: 1, 6: 3, 16: 3, 7: 3}","[6, 7, 16, 55, 80]",6373163551801,Cs1Hg1C3S3N3
KMn(CN)3,mp-1196258,0.0,1.54588548,0.13309773768229327,"{19: 1, 25: 1, 6: 3, 7: 3}","[6, 7, 19, 25]",6373191251,K1Mn1C3N3
Cr(CN)3,mp-1246433,0.0,-1.08396675,0.4602067478571428,"{24: 1, 6: 3, 7: 3}","[6, 7, 24]",6373241,Cr1C3N3
CsMn(CN)3,mp-863692,0.0,2.29527792,0.006754523281248481,"{55: 1, 25: 1, 6: 3, 7: 3}","[6, 7, 25, 55]",6373251551,Cs1Mn1C3N3
Sr3Co(CN)3,mp-862670,1.1035,3.11720929,0.0,"{38: 3, 27: 1, 6: 3, 7: 3}","[6, 7, 27, 38]",6373271383,Sr3Co1C3N3
As(CN)3,mp-623837,4.728,-3.06743138,0.5132541921428571,"{33: 1, 6: 3, 7: 3}","[6, 7, 33]",6373331,As1C3N3
CsC3(SeN)3,mp-569889,1.7791000000000001,-0.61519875,0.26482282056250117,"{55: 1, 6: 3, 34: 3, 7: 3}","[6, 7, 34, 55]",6373343551,Cs1C3Se3N3
Ta4C3,mp-1218000,0.0,7.21679398,0.033028227142862576,"{73: 4, 6: 3}","[6, 73]",63734,Ta4C3
Re3Te4(CN)3,mp-727071,0.17799999999999994,-1.73693713,0.31999899228204853,"{75: 3, 52: 4, 6: 3, 7: 3}","[6, 7, 52, 75]",6373524753,Re3Te4C3N3
SbPC3S3N3Cl3O,mp-572601,3.3261,-0.71940249,0.11675817737500527,"{51: 1, 15: 1, 6: 3, 16: 3, 7: 3, 17: 3, 8: 1}","[6, 7, 8, 15, 16, 17, 51]",637381151163173511,Sb1P1C3S3N3Cl3O1
KReC3SN3O,mp-731948,0.40880000000000005,-0.74400127,0.6516402702708302,"{19: 1, 75: 1, 6: 3, 16: 1, 7: 3, 8: 1}","[6, 7, 8, 16, 19, 75]",637381161191751,K1Re1C3S1N3O1