formula,material_id,band_gap,efermi,energy_above_hull,comp_atoms,sorted_keys_comp_atoms,comp_number,new_formula
ScRh3C,mp-10712,0.0,6.64454772,0.0,"{21: 1, 45: 3, 6: 1}","[6, 21, 45]",61211453,Sc1Rh3C1
ScPd3C,mp-1018635,0.0,5.40725975,0.4992127084999991,"{21: 1, 46: 3, 6: 1}","[6, 21, 46]",61211463,Sc1Pd3C1
C121(SCl10)2,mp-1203403,1.572,1.48478749,0.3152495096615864,"{6: 121, 16: 2, 17: 20}","[6, 16, 17]",61211621720,C121S2Cl20
ScIr3C,mp-624739,0.0,3.32718364,3.415863378499999,"{21: 1, 77: 3, 6: 1}","[6, 21, 77]",61211773,Sc1Ir3C1
ScPt3C,mp-1018628,0.0,6.79977769,0.6540009984999973,"{21: 1, 78: 3, 6: 1}","[6, 21, 78]",61211783,Sc1Pt3C1
Sc2C,mp-29941,0.0,4.07763927,0.0,"{21: 2, 6: 1}","[6, 21]",61212,Sc2C1
Sc2MnC,mp-999257,0.0,5.83500998,0.8743951193749995,"{21: 2, 25: 1, 6: 1}","[6, 21, 25]",61212251,Sc2Mn1C1
Sc2GaC,mp-16733,0.0,3.65777648,0.05575621208333281,"{21: 2, 31: 1, 6: 1}","[6, 21, 31]",61212311,Sc2Ga1C1
Sc2InC,mp-20175,0.0,5.36956933,0.014372231484375497,"{21: 2, 49: 1, 6: 1}","[6, 21, 49]",61212491,Sc2In1C1
Sc2CI3,mp-504934,0.5682999999999998,3.83378795,0.0,"{21: 2, 6: 1, 53: 3}","[6, 21, 53]",61212533,Sc2C1I3
Sc2TlC,mp-13071,0.0,5.32478074,0.012427473263884714,"{21: 2, 81: 1, 6: 1}","[6, 21, 81]",61212811,Sc2Tl1C1
Sc3GaC,mp-8577,0.0,4.01939445,0.0,"{21: 3, 31: 1, 6: 1}","[6, 21, 31]",61213311,Sc3Ga1C1
Sc3InC,mp-8578,0.0,5.36975467,0.0,"{21: 3, 49: 1, 6: 1}","[6, 21, 49]",61213491,Sc3In1C1
Sc3SnC,mp-16297,0.0,6.11995955,0.0,"{21: 3, 50: 1, 6: 1}","[6, 21, 50]",61213501,Sc3Sn1C1
Sc3TlC,mp-4230,0.0,5.4982611,0.0,"{21: 3, 81: 1, 6: 1}","[6, 21, 81]",61213811,Sc3Tl1C1
Sc3PbC,mp-21035,0.0,6.14045836,0.0,"{21: 3, 82: 1, 6: 1}","[6, 21, 82]",61213821,Sc3Pb1C1
Sc7CBr12,mp-504921,0.0,3.65036627,0.0,"{21: 7, 6: 1, 35: 12}","[6, 21, 35]",612173512,Sc7C1Br12
Sc7CI12,mp-28321,0.0,4.53904895,0.0,"{21: 7, 6: 1, 53: 12}","[6, 21, 53]",612175312,Sc7C1I12
CaC12,mp-1214610,0.0,-3.9439327,3.119096439999998,"{20: 1, 6: 12}","[6, 20]",612201,Ca1C12
TiC,mp-631,0.0,7.67533018,0.0,"{22: 1, 6: 1}","[6, 22]",61221,Ti1C1
Ti2C,mp-10721,0.0,6.03744955,0.0,"{22: 2, 6: 1}","[6, 22]",61222,Ti2C1
Ta2Ti2Co2C,mp-1218101,0.0,6.08757821,0.03186788607142965,"{73: 2, 22: 2, 27: 2, 6: 1}","[6, 22, 27, 73]",61222272732,Ta2Ti2Co2C1
Ti2GaC,mp-12537,0.0,5.92571029,0.0,"{22: 2, 31: 1, 6: 1}","[6, 22, 31]",61222311,Ti2Ga1C1
Ti2GeC,mp-9958,0.0,7.52217233,0.0,"{22: 2, 32: 1, 6: 1}","[6, 22, 32]",61222321,Ti2Ge1C1
Ti2CdC,mp-9961,0.0,5.01977095,0.0,"{22: 2, 48: 1, 6: 1}","[6, 22, 48]",61222481,Ti2Cd1C1
Ti2InC,mp-20315,0.0,7.7277596,0.0,"{22: 2, 49: 1, 6: 1}","[6, 22, 49]",61222491,Ti2In1C1
Ti2SnC,mp-3871,0.0,8.60997873,0.0,"{22: 2, 50: 1, 6: 1}","[6, 22, 50]",61222501,Ti2Sn1C1
Ti2Te2C,mp-2647048,0.0,5.98629699,0.41100413000000025,"{22: 2, 52: 2, 6: 1}","[6, 22, 52]",61222522,Ti2Te2C1
Ti2TlC,mp-1092281,0.0,7.58112447,0.0,"{22: 2, 81: 1, 6: 1}","[6, 22, 81]",61222811,Ti2Tl1C1
Ti2PbC,mp-20661,0.0,8.1694894,0.0,"{22: 2, 82: 1, 6: 1}","[6, 22, 82]",61222821,Ti2Pb1C1
Ti3C,mp-1187454,0.0,7.33551695,0.8560120947916658,"{22: 3, 6: 1}","[6, 22]",61223,Ti3C1
Ti3Zn3C,mp-697076,0.0,4.95768419,0.0,"{22: 3, 30: 3, 6: 1}","[6, 22, 30]",61223303,Ti3Zn3C1
Ti3InC,mp-20325,0.0,7.73021871,0.0,"{22: 3, 49: 1, 6: 1}","[6, 22, 49]",61223491,Ti3In1C1
Ti3TlC,mp-4563,0.0,7.72726069,0.01758336833333285,"{22: 3, 81: 1, 6: 1}","[6, 22, 81]",61223811,Ti3Tl1C1
La21Mn8Sn7C12,mp-1201735,0.0,7.41575423,0.0,"{57: 21, 25: 8, 50: 7, 6: 12}","[6, 25, 50, 57]",6122585075721,La21Mn8Sn7C12
La21Mn8Sb7C12,mp-1203312,0.0,7.80336198,0.0,"{57: 21, 25: 8, 51: 7, 6: 12}","[6, 25, 51, 57]",6122585175721,La21Mn8Sb7C12
La20Mn8Te7C12,mp-1223565,0.0,7.96084616,0.0,"{57: 20, 25: 8, 52: 7, 6: 12}","[6, 25, 52, 57]",6122585275720,La20Mn8Te7C12
La21Mn8Bi7C12,mp-1200955,0.0,7.60023281,0.0,"{57: 21, 25: 8, 83: 7, 6: 12}","[6, 25, 57, 83]",6122585721837,La21Mn8Bi7C12
Ti6Zn2C,mp-1217252,0.0,3.61170651,0.989401659166667,"{22: 6, 30: 2, 6: 1}","[6, 22, 30]",61226302,Ti6Zn2C1
VC,mp-1282,0.0,8.05075397,0.08810940243055576,"{23: 1, 6: 1}","[6, 23]",61231,V1C1
VCrC,mp-1216390,0.0,7.00939531,0.04583039490740326,"{23: 1, 24: 1, 6: 1}","[6, 23, 24]",61231241,V1Cr1C1
VCrGeC,mp-1216420,0.0,7.87206076,0.015034016371524572,"{23: 1, 24: 1, 32: 1, 6: 1}","[6, 23, 24, 32]",61231241321,V1Cr1Ge1C1
VRu3C,mp-21862,0.0,7.82356243,0.30249462097222235,"{23: 1, 44: 3, 6: 1}","[6, 23, 44]",61231443,V1Ru3C1
V2C,mp-20648,0.0,6.43580874,0.0,"{23: 2, 6: 1}","[6, 23]",61232,V2C1
V2GaC,mp-1080835,0.0,6.01411447,0.0,"{23: 2, 31: 1, 6: 1}","[6, 23, 31]",61232311,V2Ga1C1
V2GeC,mp-9957,0.0,7.73994713,0.0,"{23: 2, 32: 1, 6: 1}","[6, 23, 32]",61232321,V2Ge1C1
V2AsC,mp-10046,0.0,7.61077635,0.0,"{23: 2, 33: 1, 6: 1}","[6, 23, 33]",61232331,V2As1C1
V2InC,mp-20983,0.0,7.99810177,0.012628640208333763,"{23: 2, 49: 1, 6: 1}","[6, 23, 49]",61232491,V2In1C1
V3GeC,mp-1079313,0.0,7.37955839,0.0,"{23: 3, 32: 1, 6: 1}","[6, 23, 32]",61233321,V3Ge1C1
V3AsC,mp-27769,0.0,7.56205902,0.0,"{23: 3, 33: 1, 6: 1}","[6, 23, 33]",61233331,V3As1C1
Zr3V3C,mp-505573,0.0,4.83159502,0.05101125892857006,"{40: 3, 23: 3, 6: 1}","[6, 23, 40]",61233403,Zr3V3C1
V5As3C,mp-1189345,0.0,8.27930816,0.06875616888888914,"{23: 5, 33: 3, 6: 1}","[6, 23, 33]",61235333,V5As3C1
CrC,mp-1018050,0.0,7.9257392,0.07991811749999833,"{24: 1, 6: 1}","[6, 24]",61241,Cr1C1
Cr12As5C,mp-1226144,0.0,7.53560305,0.12402709203703566,"{24: 12, 33: 5, 6: 1}","[6, 24, 33]",612412335,Cr12As5C1
Cr2C,mp-1226378,0.0,7.26729491,0.06254013708333694,"{24: 2, 6: 1}","[6, 24]",61242,Cr2C1
Cr2GaC,mp-20197,0.0,6.56023066,0.0,"{24: 2, 31: 1, 6: 1}","[6, 24, 31]",61242311,Cr2Ga1C1
Cr2GeC,mp-19821,0.0,7.98717728,0.005458072812501769,"{24: 2, 32: 1, 6: 1}","[6, 24, 32]",61242321,Cr2Ge1C1
Cr2Rh2C,mp-1226355,0.0,6.98064588,0.0,"{24: 2, 45: 2, 6: 1}","[6, 24, 45]",61242452,Cr2Rh2C1
Cr2Ir2C,mp-1226352,0.0,8.52633546,0.0,"{24: 2, 77: 2, 6: 1}","[6, 24, 77]",61242772,Cr2Ir2C1
Cr2Pt2C,mp-1226353,0.0,2.0087045,2.4935417045,"{24: 2, 78: 2, 6: 1}","[6, 24, 78]",61242782,Cr2Pt2C1
Cr3C,mp-1189286,0.0,7.90495993,0.012876365752312324,"{24: 3, 6: 1}","[6, 24]",61243,Cr3C1
Cr3GeC,mp-29804,0.0,7.77458234,0.034794967249998976,"{24: 3, 32: 1, 6: 1}","[6, 24, 32]",61243321,Cr3Ge1C1
Cr3AsC,mp-1079324,0.0,7.80998037,0.05653820125000131,"{24: 3, 33: 1, 6: 1}","[6, 24, 33]",61243331,Cr3As1C1
Nb3Cr3C,mp-17768,0.0,5.84368017,0.03368053464286014,"{41: 3, 24: 3, 6: 1}","[6, 24, 41]",61243413,Nb3Cr3C1
Gd8Rh5C12,mp-1190934,0.0,4.97373446,0.015153078450000024,"{64: 8, 45: 5, 6: 12}","[6, 45, 64]",612455648,Gd8Rh5C12
Tb8Rh5C12,mp-1191018,0.0,5.18970228,0.04218003077500043,"{65: 8, 45: 5, 6: 12}","[6, 45, 65]",612455658,Tb8Rh5C12
Dy8Rh5C12,mp-1192193,0.0,5.19556587,0.05298595216000024,"{66: 8, 45: 5, 6: 12}","[6, 45, 66]",612455668,Dy8Rh5C12
Ho8Rh5C12,mp-1192194,0.0,5.14441698,0.06717908390000016,"{67: 8, 45: 5, 6: 12}","[6, 45, 67]",612455678,Ho8Rh5C12
Er8Rh5C12,mp-1213315,0.0,5.20239099,0.08163082597500093,"{68: 8, 45: 5, 6: 12}","[6, 45, 68]",612455688,Er8Rh5C12
Tm8Rh5C12,mp-1191607,0.0,5.18102927,0.08822402047500066,"{69: 8, 45: 5, 6: 12}","[6, 45, 69]",612455698,Tm8Rh5C12
MnCo3C,mp-1210746,0.0,5.49092156,0.09446315028260788,"{25: 1, 27: 3, 6: 1}","[6, 25, 27]",61251273,Mn1Co3C1
Mn2Co2C,mp-20441,0.0,5.57087758,0.13568317006521546,"{25: 2, 27: 2, 6: 1}","[6, 25, 27]",61252272,Mn2Co2C1
Mn3C,mp-1188188,0.0,7.67604072,0.016571311684781875,"{25: 3, 6: 1}","[6, 25]",61253,Mn3C1
Mn3ZnC,mp-2930,0.0,5.18388028,0.04248646001839251,"{25: 3, 30: 1, 6: 1}","[6, 25, 30]",61253301,Mn3Zn1C1
Mn3GaC,mp-21313,0.0,6.14596261,0.0,"{25: 3, 31: 1, 6: 1}","[6, 25, 31]",61253311,Mn3Ga1C1
Mn3GeC,mp-22706,0.0,6.936877,0.013732939499998764,"{25: 3, 32: 1, 6: 1}","[6, 25, 32]",61253321,Mn3Ge1C1
Mn3Mo3C,mp-15812,0.0,7.73910485,0.0,"{25: 3, 42: 3, 6: 1}","[6, 25, 42]",61253423,Mn3Mo3C1
Mn3InC,mp-1094118,0.0,7.48867615,0.09973658051449075,"{25: 3, 49: 1, 6: 1}","[6, 25, 49]",61253491,Mn3In1C1
Mn3SnC,mp-20860,0.0,8.8738259,0.054929460847823464,"{25: 3, 50: 1, 6: 1}","[6, 25, 50]",61253501,Mn3Sn1C1
Mn3W3C,mp-15813,0.0,7.21876557,0.0,"{25: 3, 74: 3, 6: 1}","[6, 25, 74]",61253743,Mn3W3C1
Mn6C,mp-1193506,0.0,6.77574763,0.14346954575944082,"{25: 6, 6: 1}","[6, 25]",61256,Mn6C1
Zn3Co2(CN)12,mp-542858,4.3247,-4.28525146,0.1440008668103463,"{30: 3, 27: 2, 6: 12, 7: 12}","[6, 7, 27, 30]",612712272303,Zn3Co2C12N12
Cd3Co2(CN)12,mp-1227386,0.03840000000000021,-3.42128654,0.3273776528448282,"{48: 3, 27: 2, 6: 12, 7: 12}","[6, 7, 27, 48]",612712272483,Cd3Co2C12N12
Zn3Rh2(CN)12,mp-1216037,0.0,-3.43129222,0.37958210112069235,"{30: 3, 45: 2, 6: 12, 7: 12}","[6, 7, 30, 45]",612712303452,Zn3Rh2C12N12
Co12Ge4C,mp-1226575,0.0,6.83660027,0.08002347191176451,"{27: 12, 32: 4, 6: 1}","[6, 27, 32]",612712324,Co12Ge4C1
U6Co12Ge4C,mp-865440,0.0,9.55370013,0.0,"{92: 6, 27: 12, 32: 4, 6: 1}","[6, 27, 32, 92]",612712324926,U6Co12Ge4C1
ZnAs2C12(NF)12,mp-555971,3.8364,-3.45704526,0.32648727955128365,"{30: 1, 33: 2, 6: 12, 7: 12, 9: 12}","[6, 7, 9, 30, 33]",612712912301332,Zn1As2C12N12F12
GdCoC,mp-20345,0.0,3.8443172,0.0,"{64: 1, 27: 1, 6: 1}","[6, 27, 64]",61271641,Gd1Co1C1
TbCoC,mp-22158,0.0,4.03076439,0.0,"{65: 1, 27: 1, 6: 1}","[6, 27, 65]",61271651,Tb1Co1C1
DyCoC,mp-20350,0.0,4.01593841,0.0,"{66: 1, 27: 1, 6: 1}","[6, 27, 66]",61271661,Dy1Co1C1
HoCoC,mp-20906,0.0,3.95244326,0.0,"{67: 1, 27: 1, 6: 1}","[6, 27, 67]",61271671,Ho1Co1C1
ErCoC,mp-8475,0.0,3.98372519,0.0,"{68: 1, 27: 1, 6: 1}","[6, 27, 68]",61271681,Er1Co1C1
TmCoC,mp-19754,0.0,3.96177787,0.0,"{69: 1, 27: 1, 6: 1}","[6, 27, 69]",61271691,Tm1Co1C1
LuCoC,mp-22714,0.0,3.91735265,0.0,"{71: 1, 27: 1, 6: 1}","[6, 27, 71]",61271711,Lu1Co1C1
Co2C,mp-22488,0.0,6.1808862,0.12582438583333388,"{27: 2, 6: 1}","[6, 27]",61272,Co2C1
Nb4Co2C,mp-1193683,0.0,5.41494739,0.024993309738094993,"{41: 4, 27: 2, 6: 1}","[6, 27, 41]",61272414,Nb4Co2C1
Co2Mo4C,mp-505574,0.0,7.78726357,0.006420593333334779,"{27: 2, 42: 4, 6: 1}","[6, 27, 42]",61272424,Co2Mo4C1
Ta4Co2C,mp-1194051,0.0,6.03730348,0.015483950095235954,"{73: 4, 27: 2, 6: 1}","[6, 27, 73]",61272734,Ta4Co2C1
Co2W4C,mp-640163,0.0,7.05051373,0.00023557166666599016,"{27: 2, 74: 4, 6: 1}","[6, 27, 74]",61272744,Co2W4C1
Ru4C12N2O13,mp-707955,1.57,1.2942741,0.23332009883064408,"{44: 4, 6: 12, 7: 2, 8: 13}","[6, 7, 8, 44]",61272813444,Ru4C12N2O13
Co3C,mp-20925,0.0,6.4920563,0.14978144562499995,"{27: 3, 6: 1}","[6, 27]",61273,Co3C1
ZnCo3C,mp-10271,0.0,5.07909638,0.020153372136363146,"{30: 1, 27: 3, 6: 1}","[6, 27, 30]",61273301,Zn1Co3C1
Nb3Co3C,mp-505601,0.0,5.71812454,0.0345704382142884,"{41: 3, 27: 3, 6: 1}","[6, 27, 41]",61273413,Nb3Co3C1
Co3Mo3C,mp-1194380,0.0,7.50974108,0.0673545967857141,"{27: 3, 42: 3, 6: 1}","[6, 27, 42]",61273423,Co3Mo3C1
Co3SnC,mp-20679,0.0,8.64246395,0.06866816583333168,"{27: 3, 50: 1, 6: 1}","[6, 27, 50]",61273501,Co3Sn1C1
Ta3Co3C,mp-17158,0.0,6.24250282,0.062480207738097704,"{73: 3, 27: 3, 6: 1}","[6, 27, 73]",61273733,Ta3Co3C1
Co3W3C,mp-1192636,0.0,6.9123678,0.08857663214285694,"{27: 3, 74: 3, 6: 1}","[6, 27, 74]",61273743,Co3W3C1
V2C12(NF3)3,mp-1217501,0.0,-1.55930973,1.6472784080048068,"{23: 2, 6: 12, 7: 3, 9: 9}","[6, 7, 9, 23]",6127399232,V2C12N3F9
CdC12(S2N3)2,mp-1192608,0.9114000000000001,-0.96002213,0.8402109803493776,"{48: 1, 6: 12, 16: 4, 7: 6}","[6, 7, 16, 48]",61276164481,Cd1C12S4N6
Ga2Co6C,mp-1224829,0.0,5.4977382,0.0481466402777766,"{31: 2, 27: 6, 6: 1}","[6, 27, 31]",61276312,Ga2Co6C1
Co6Mo6C,mp-1193869,0.0,7.61467994,0.00709695192307791,"{27: 6, 42: 6, 6: 1}","[6, 27, 42]",61276426,Co6Mo6C1
CoC12N8(ClO5)2,mp-1202003,0.0,-0.70924963,1.252314740833329,"{27: 1, 6: 12, 7: 8, 17: 2, 8: 10}","[6, 7, 8, 17, 27]",61278810172271,Co1C12N8Cl2O10
Si2Os3C12(ClO2)6,mp-648117,2.5585,-0.16163848,0.21918581566666884,"{14: 2, 76: 3, 6: 12, 17: 6, 8: 12}","[6, 8, 14, 17, 76]",612812142176763,Si2Os3C12Cl6O12
Os4C12SO12,mp-667495,2.1335,-0.20672277,0.19212638896551582,"{76: 4, 6: 12, 16: 1, 8: 12}","[6, 8, 16, 76]",612812161764,Os4C12S1O12
Co3SnC12ClO12,mp-694189,3.2736,-1.24991376,0.3836861628448247,"{27: 3, 50: 1, 6: 12, 17: 1, 8: 12}","[6, 8, 17, 27, 50]",612812171273501,Co3Sn1C12Cl1O12
Mn2Pt(CO)12,mp-573318,1.7822,-0.50169005,0.5459406632407449,"{25: 2, 78: 1, 6: 12, 8: 12}","[6, 8, 25, 78]",612812252781,Mn2Pt1C12O12
Co3SnC12BrO12,mp-563000,2.327,-1.69410207,0.3822349431034455,"{27: 3, 50: 1, 6: 12, 35: 1, 8: 12}","[6, 8, 27, 35, 50]",612812273351501,Co3Sn1C12Br1O12
InCo3(CO)12,mp-650140,3.5688999999999997,-1.18875042,0.4032893018080328,"{49: 1, 27: 3, 6: 12, 8: 12}","[6, 8, 27, 49]",612812273491,In1Co3C12O12
Os3C12(IO6)2,mp-621944,2.0789,0.16053106,0.15605104418103544,"{76: 3, 6: 12, 53: 2, 8: 12}","[6, 8, 53, 76]",612812532763,Os3C12I2O12
Re2Pt(CO)12,mp-614325,1.8279,0.01067817,0.24264953787037236,"{75: 2, 78: 1, 6: 12, 8: 12}","[6, 8, 75, 78]",612812752781,Re2Pt1C12O12
K3InC12(O2F3)6,mp-1211964,4.6186,-1.49578235,0.152479899184784,"{19: 3, 49: 1, 6: 12, 8: 12, 9: 18}","[6, 8, 9, 19, 49]",612812918193491,K3In1C12O12F18
RbCd6C12ClO26,mp-1179807,0.0,-0.54177073,0.27296057619564795,"{37: 1, 48: 6, 6: 12, 17: 1, 8: 26}","[6, 8, 17, 37, 48]",612826171371486,Rb1Cd6C12Cl1O26
RbCd6C12BrO26,mp-1179787,0.0,-0.30968977,0.2707949770652176,"{37: 1, 48: 6, 6: 12, 35: 1, 8: 26}","[6, 8, 35, 37, 48]",612826351371486,Rb1Cd6C12Br1O26
Rb5Pt3(C4O9)3,mp-1200276,0.0,-0.46421727,0.39105516050531985,"{37: 5, 78: 3, 6: 12, 8: 27}","[6, 8, 37, 78]",612827375783,Rb5Pt3C12O27
K6Co2C12O31,mp-1202089,0.37439999999999996,-1.03066259,0.7107193711274515,"{19: 6, 27: 2, 6: 12, 8: 31}","[6, 8, 19, 27]",612831196272,K6Co2C12O31
K6Rh2(C4O11)3,mp-1227271,0.0,-0.95496643,0.7700546102358414,"{19: 6, 45: 2, 6: 12, 8: 33}","[6, 8, 19, 45]",612833196452,K6Rh2C12O33
Mn2P2C12S(O2F3)4,mp-558968,3.3186,-0.66225437,0.6178311867728441,"{25: 2, 15: 2, 6: 12, 16: 1, 8: 8, 9: 12}","[6, 8, 9, 15, 16, 25]",61288912152161252,Mn2P2C12S1O8F12
C12SF10,mp-1214334,3.1755999999999998,2.81121022,0.29818112038819766,"{6: 12, 16: 1, 9: 10}","[6, 9, 16]",612910161,C12S1F10
PbC12(SF5)2,mp-1210853,2.0827999999999998,1.53798925,0.34642212894762103,"{82: 1, 6: 12, 16: 2, 9: 10}","[6, 9, 16, 82]",612910162821,Pb1C12S2F10
TeC12(ClF5)2,mp-1208586,3.1123,-0.53999675,0.3179934919249998,"{52: 1, 6: 12, 17: 2, 9: 10}","[6, 9, 17, 52]",612910172521,Te1C12Cl2F10
C12SeF10,mp-555582,2.7508,-0.33330058,0.29501004201766357,"{6: 12, 34: 1, 9: 10}","[6, 9, 34]",612910341,C12Se1F10
TeC12(BrF5)2,mp-1208401,2.7599,-0.22233962,0.3256475130249985,"{52: 1, 6: 12, 35: 2, 9: 10}","[6, 9, 35, 52]",612910352521,Te1C12Br2F10
C12BrF9,mp-1214425,3.5622,-0.13651891,0.27472423970880655,"{6: 12, 35: 1, 9: 9}","[6, 9, 35]",61299351,C12Br1F9
Nb4Zn2C,mp-505525,0.0,4.87237414,0.07595837964286112,"{41: 4, 30: 2, 6: 1}","[6, 30, 41]",61302414,Nb4Zn2C1
Zn3C,mp-971857,0.0,3.39199167,1.0402887506249998,"{30: 3, 6: 1}","[6, 30]",61303,Zn3C1
Zr3Zn3C,mp-703492,0.0,4.11547622,0.0,"{40: 3, 30: 3, 6: 1}","[6, 30, 40]",61303403,Zr3Zn3C1
Hf3Zn3C,mp-722912,0.0,4.57612884,0.0,"{72: 3, 30: 3, 6: 1}","[6, 30, 72]",61303723,Hf3Zn3C1
GaC,mp-1184015,0.0,3.41122116,0.9963498899999994,"{31: 1, 6: 1}","[6, 31]",61311,Ga1C1
Nb2GaC,mp-1079546,0.0,5.32027995,0.0,"{41: 2, 31: 1, 6: 1}","[6, 31, 41]",61311412,Nb2Ga1C1
GaMo2C,mp-1079635,0.0,7.43027131,0.006815363297414834,"{31: 1, 42: 2, 6: 1}","[6, 31, 42]",61311422,Ga1Mo2C1
Pr3GaC,mp-8368,0.0,1.99449761,1.499269545222222,"{59: 3, 31: 1, 6: 1}","[6, 31, 59]",61311593,Pr3Ga1C1
Nd3GaC,mp-10280,0.0,1.85282773,1.5067864143749992,"{60: 3, 31: 1, 6: 1}","[6, 31, 60]",61311603,Nd3Ga1C1
Sm3GaC,mp-10602,0.0,2.95143163,0.02299125300000071,"{62: 3, 31: 1, 6: 1}","[6, 31, 62]",61311623,Sm3Ga1C1
Gd3GaC,mp-1207153,0.0,3.00165719,0.001032059000001695,"{64: 3, 31: 1, 6: 1}","[6, 31, 64]",61311643,Gd3Ga1C1
Tb3GaC,mp-1206878,0.0,3.11173132,0.0,"{65: 3, 31: 1, 6: 1}","[6, 31, 65]",61311653,Tb3Ga1C1
Dy3GaC,mp-20922,0.0,1.677963,1.606714689000003,"{66: 3, 31: 1, 6: 1}","[6, 31, 66]",61311663,Dy3Ga1C1
Ho3GaC,mp-10279,0.0,1.63998259,1.6186845290000003,"{67: 3, 31: 1, 6: 1}","[6, 31, 67]",61311673,Ho3Ga1C1
Er3GaC,mp-10274,0.0,1.68095032,1.629007375999998,"{68: 3, 31: 1, 6: 1}","[6, 31, 68]",61311683,Er3Ga1C1
Tm3GaC,mp-10351,0.0,1.67819482,1.6429009489999977,"{69: 3, 31: 1, 6: 1}","[6, 31, 69]",61311693,Tm3Ga1C1
Lu3GaC,mp-1206912,0.0,3.07243448,0.0,"{71: 3, 31: 1, 6: 1}","[6, 31, 71]",61311713,Lu3Ga1C1
Ta2GaC,mp-1025427,0.0,6.15272341,0.0,"{73: 2, 31: 1, 6: 1}","[6, 31, 73]",61311732,Ta2Ga1C1
GaPt3C,mp-1017563,0.0,6.36656808,0.7039177634999998,"{31: 1, 78: 3, 6: 1}","[6, 31, 78]",61311783,Ga1Pt3C1
Ga40Mo8C,mp-1196543,0.0,4.4712324,0.06453821387227254,"{31: 40, 42: 8, 6: 1}","[6, 31, 42]",613140428,Ga40Mo8C1
C13Cl12,mp-1214278,2.4659999999999997,0.08329143,0.1379538381500005,"{6: 13, 17: 12}","[6, 17]",6131712,C13Cl12
C13Cl3,mp-646059,2.1015,0.75453541,0.23626932293619696,"{6: 13, 17: 3}","[6, 17]",613173,C13Cl3
GeC,mp-1002164,1.6580999999999992,6.82885081,0.43837332875,"{32: 1, 6: 1}","[6, 32]",61321,Ge1C1
Nb2GeC,mp-1078811,0.0,6.7538785,0.0,"{41: 2, 32: 1, 6: 1}","[6, 32, 41]",61321412,Nb2Ge1C1
Ge3C,mp-973155,0.0,6.7414023,1.3862357506249996,"{32: 3, 6: 1}","[6, 32]",61323,Ge3C1
Ge3Mo5C,mp-18021,0.0,9.01674471,0.0658148061111099,"{32: 3, 42: 5, 6: 1}","[6, 32, 42]",61323425,Ge3Mo5C1
Ce5Ge3C,mp-1189506,0.0,6.72341041,0.0,"{58: 5, 32: 3, 6: 1}","[6, 32, 58]",61323585,Ce5Ge3C1
Pr5Ge3C,mp-1105708,0.0,3.96534962,0.08036698753086391,"{59: 5, 32: 3, 6: 1}","[6, 32, 59]",61323595,Pr5Ge3C1
Nd5Ge3C,mp-1188470,0.0,3.92867296,0.04821507983483553,"{60: 5, 32: 3, 6: 1}","[6, 32, 60]",61323605,Nd5Ge3C1
Sm5Ge3C,mp-1188536,0.0,3.26729403,0.029601798111111854,"{62: 5, 32: 3, 6: 1}","[6, 32, 62]",61323625,Sm5Ge3C1
Tb5Ge3C,mp-1105792,0.0,4.16758304,0.010819870044445068,"{65: 5, 32: 3, 6: 1}","[6, 32, 65]",61323655,Tb5Ge3C1
Dy5Ge3C,mp-1106133,0.0,3.47062647,0.0,"{66: 5, 32: 3, 6: 1}","[6, 32, 66]",61323665,Dy5Ge3C1
Ho5Ge3C,mp-1105990,0.0,4.06104546,0.0,"{67: 5, 32: 3, 6: 1}","[6, 32, 67]",61323675,Ho5Ge3C1
Er5Ge3C,mp-1105712,0.0,4.11574379,0.0,"{68: 5, 32: 3, 6: 1}","[6, 32, 68]",61323685,Er5Ge3C1
Tm5Ge3C,mp-1188096,0.0,3.41081315,0.0,"{69: 5, 32: 3, 6: 1}","[6, 32, 69]",61323695,Tm5Ge3C1
Lu5Ge3C,mp-1105603,0.0,4.1659649,0.0,"{71: 5, 32: 3, 6: 1}","[6, 32, 71]",61323715,Lu5Ge3C1
Nb10Ge6C,mp-1220750,0.0,5.94042395,0.0,"{41: 10, 32: 6, 6: 1}","[6, 32, 41]",613264110,Nb10Ge6C1
Nd15Ge9C,mp-1197766,0.0,4.01763426,0.0,"{60: 15, 32: 9, 6: 1}","[6, 32, 60]",613296015,Nd15Ge9C1
Nb2AsC,mp-9989,0.0,6.75039654,0.0,"{41: 2, 33: 1, 6: 1}","[6, 33, 41]",61331412,Nb2As1C1
CSe2,mp-1071625,2.3468,-0.90080659,0.35771834093749977,"{6: 1, 34: 2}","[6, 34]",61342,C1Se2
C(Se2Br)2,mp-28131,1.4970999999999999,0.24344493,0.0,"{6: 1, 34: 4, 35: 2}","[6, 34, 35]",61344352,C1Se4Br2
Th6CBr14,mp-28168,0.6522000000000001,2.47025747,0.0,"{90: 6, 6: 1, 35: 14}","[6, 35, 90]",613514906,Th6C1Br14
LaCBr,mp-1206284,0.0,4.95035954,0.03290471930555139,"{57: 1, 6: 1, 35: 1}","[6, 35, 57]",61351571,La1C1Br1
Pr2CBr,mp-568066,0.0,4.9900757,0.0,"{59: 2, 6: 1, 35: 1}","[6, 35, 59]",61351592,Pr2C1Br1
GdCBr,mp-567572,0.0,3.00249207,0.0,"{64: 1, 6: 1, 35: 1}","[6, 35, 64]",61351641,Gd1C1Br1
Gd2CBr,mp-28522,0.0,4.95123749,0.0,"{64: 2, 6: 1, 35: 1}","[6, 35, 64]",61351642,Gd2C1Br1
TbCBr,mp-1025023,0.0,2.96238846,0.0,"{65: 1, 6: 1, 35: 1}","[6, 35, 65]",61351651,Tb1C1Br1
Tb2CBr,mp-1025498,0.0,5.31270379,0.0,"{65: 2, 6: 1, 35: 1}","[6, 35, 65]",61351652,Tb2C1Br1
Pr3CBr3,mp-1209799,0.0,4.30558278,0.0,"{59: 3, 6: 1, 35: 3}","[6, 35, 59]",61353593,Pr3C1Br3
CBr4,mp-680422,2.9265,-0.71639084,0.0,"{6: 1, 35: 4}","[6, 35]",61354,C1Br4
La3CBr5,mp-568484,2.2104,3.66379933,0.007312520611109541,"{57: 3, 6: 1, 35: 5}","[6, 35, 57]",61355573,La3C1Br5
Pr3CBr5,mp-1179866,0.5933999999999999,3.09850688,0.0,"{59: 3, 6: 1, 35: 5}","[6, 35, 59]",61355593,Pr3C1Br5
La20Os12C13,mp-1223651,0.0,7.57896961,0.0042138193168739235,"{57: 20, 76: 12, 6: 13}","[6, 57, 76]",61357207612,La20Os12C13
RbC,mp-10821,3.5275,-0.19774472,0.3376095151562506,"{37: 1, 6: 1}","[6, 37]",61371,Rb1C1
RbZr6CI14,mp-1209204,0.0,3.99489545,0.0,"{37: 1, 40: 6, 6: 1, 53: 14}","[6, 37, 40, 53]",613714065314,Rb1Zr6C1I14