formula,material_id,band_gap,efermi,energy_above_hull,comp_atoms,sorted_keys_comp_atoms,comp_number,new_formula
Be(B6C)2,mp-1104026,0.0,5.06321842,0.04111949645833679,"{4: 1, 5: 12, 6: 2}","[4, 5, 6]",4151262,Be1B12C2
Be(BC)2,mp-569299,0.2171000000000003,4.554929,0.023824699333332866,"{4: 1, 5: 2, 6: 2}","[4, 5, 6]",415262,Be1B2C2
BeCN2,mp-1189451,5.5087,6.55548201,0.0,"{4: 1, 6: 1, 7: 2}","[4, 6, 7]",416172,Be1C1N2
K3BePCO7,mp-772780,3.6357999999999997,0.10988979,0.0823652255769236,"{19: 3, 4: 1, 15: 1, 6: 1, 8: 7}","[4, 6, 8, 15, 19]",416187151193,K3Be1P1C1O7
BeC2,mp-1001023,1.2256999999999998,2.44393183,0.9633231012500003,"{4: 1, 6: 2}","[4, 6]",4162,Be1C2
Be(CN)2,mp-35687,5.9465,-3.46470373,0.22591512900000232,"{4: 1, 6: 2, 7: 2}","[4, 6, 7]",416272,Be1C2N2
K2Be(CO2)4,mp-557246,3.3987,-0.7297453,0.04199259254166865,"{19: 2, 4: 1, 6: 4, 8: 8}","[4, 6, 8, 19]",416488192,K2Be1C4O8
Be2C,mp-1569,1.1636999999999995,6.31837236,0.0,"{4: 2, 6: 1}","[4, 6]",4261,Be2C1
U4Be2C5,mp-676180,0.0,10.387468,0.06693330545454224,"{92: 4, 4: 2, 6: 5}","[4, 6, 92]",4265924,U4Be2C5
Be3Si3C4SO12,mp-1214189,1.6598999999999995,3.25156995,1.1551992951708057,"{4: 3, 14: 3, 6: 4, 16: 1, 8: 12}","[4, 6, 8, 14, 16]",4364812143161,Be3Si3C4S1O12
K6Be4C6O19,mp-555866,4.8702000000000005,-0.86553347,0.0,"{19: 6, 4: 4, 6: 6, 8: 19}","[4, 6, 8, 19]",4466819196,K6Be4C6O19
Na5Sr2B10(CO13)2,mp-1210602,0.0,0.45844679,0.06948254847222302,"{11: 5, 38: 2, 5: 10, 6: 2, 8: 26}","[5, 6, 8, 11, 38]",51062826115382,Na5Sr2B10C2O26
Mg(B6C)2,mp-568803,2.1397000000000004,6.12411503,0.0,"{12: 1, 5: 12, 6: 2}","[5, 6, 12]",51262121,Mg1B12C2
B13C2,mp-576,0.0,4.74924726,0.0,"{5: 13, 6: 2}","[5, 6]",51362,B13C2
La15B14C19,mp-679949,0.0,8.23017743,0.017795429819439157,"{57: 15, 5: 14, 6: 19}","[5, 6, 57]",5146195715,La15B14C19
Pr25(B7C13)2,mp-1221234,0.0,4.40430094,0.03085278620512888,"{59: 25, 5: 14, 6: 26}","[5, 6, 59]",5146265925,Pr25B14C26
Nd25(B7C13)2,mp-1221391,0.0,4.32205124,0.022565238492304296,"{60: 25, 5: 14, 6: 26}","[5, 6, 60]",5146266025,Nd25B14C26
BC,mp-984728,0.0,7.03407961,0.562633180104168,"{5: 1, 6: 1}","[5, 6]",5161,B1C1
BOs3(CO)10,mp-726927,0.09299999999999997,-0.63762375,0.4483060880295078,"{5: 1, 76: 3, 6: 10, 8: 10}","[5, 6, 8, 76]",51610810763,B1Os3C10O10
BC10XeF17,mp-1215031,2.143,-1.47122735,0.39752530935344854,"{5: 1, 6: 10, 54: 1, 9: 17}","[5, 6, 9, 54]",51610917541,B1C10Xe1F17
NaBC,mp-1238775,0.8095999999999997,4.82816448,0.03777853794300867,"{11: 1, 5: 1, 6: 1}","[5, 6, 11]",5161111,Na1B1C1
Mg14BC,mp-1026547,0.0,3.41683304,0.3289842222656256,"{12: 14, 5: 1, 6: 1}","[5, 6, 12]",51611214,Mg14B1C1
Mg6BC,mp-1017229,0.0,4.15337884,0.4389643201562503,"{12: 6, 5: 1, 6: 1}","[5, 6, 12]",5161126,Mg6B1C1
Al3BC,mp-1228446,0.4530000000000003,7.97204476,0.0,"{13: 3, 5: 1, 6: 1}","[5, 6, 13]",5161133,Al3B1C1
La3BCCl3,mp-571135,0.0,7.75712577,0.011142715312501217,"{57: 3, 5: 1, 6: 1, 17: 3}","[5, 6, 17, 57]",5161173573,La3B1C1Cl3
CaBC,mp-1238800,0.0,6.75096435,0.2070149400000023,"{20: 1, 5: 1, 6: 1}","[5, 6, 20]",5161201,Ca1B1C1
ScBC,mp-1232372,0.0,9.0049571,0.0011429697222204993,"{21: 1, 5: 1, 6: 1}","[5, 6, 21]",5161211,Sc1B1C1
TiBC,mp-1232377,0.0,10.21947448,0.3074748037500008,"{22: 1, 5: 1, 6: 1}","[5, 6, 22]",5161221,Ti1B1C1
VBC,mp-1238776,0.0,9.61063996,0.44025313749999917,"{23: 1, 5: 1, 6: 1}","[5, 6, 23]",5161231,V1B1C1
BC12ClF10,mp-1214900,2.7677,-0.8186652,0.3930988123567749,"{5: 1, 6: 12, 17: 1, 9: 10}","[5, 6, 9, 17]",51612910171,B1C12Cl1F10
ZrBC,mp-1232384,0.0,8.8527932,0.4454730004166674,"{40: 1, 5: 1, 6: 1}","[5, 6, 40]",5161401,Zr1B1C1
BMoC,mp-1238849,0.0,10.4751996,0.7458642941666671,"{5: 1, 42: 1, 6: 1}","[5, 6, 42]",5161421,B1Mo1C1
BMoWC,mp-1228641,0.0,9.1791222,0.13775676250000046,"{5: 1, 42: 1, 74: 1, 6: 1}","[5, 6, 42, 74]",5161421741,B1Mo1W1C1
BMo2C,mp-4472,0.0,9.49496717,0.0483452753125011,"{5: 1, 42: 2, 6: 1}","[5, 6, 42]",5161422,B1Mo2C1
LaBC,mp-568090,0.0,8.41936936,0.0,"{57: 1, 5: 1, 6: 1}","[5, 6, 57]",5161571,La1B1C1
CeBC,mp-639306,0.0,8.00081242,0.027373950444443906,"{58: 1, 5: 1, 6: 1}","[5, 6, 58]",5161581,Ce1B1C1
PrBC,mp-570767,0.0,5.21983276,0.0023412277222210065,"{59: 1, 5: 1, 6: 1}","[5, 6, 59]",5161591,Pr1B1C1
Pr2BC,mp-1078268,0.0,3.55748178,0.0,"{59: 2, 5: 1, 6: 1}","[5, 6, 59]",5161592,Pr2B1C1
NdBC,mp-568966,0.0,5.12872266,0.0,"{60: 1, 5: 1, 6: 1}","[5, 6, 60]",5161601,Nd1B1C1
Nd2BC,mp-864790,0.0,3.48406275,0.0,"{60: 2, 5: 1, 6: 1}","[5, 6, 60]",5161602,Nd2B1C1
SmBC,mp-1208749,0.0,5.07613525,0.0,"{62: 1, 5: 1, 6: 1}","[5, 6, 62]",5161621,Sm1B1C1
GdBC,mp-1071879,0.0,3.16064042,0.44540252611111164,"{64: 1, 5: 1, 6: 1}","[5, 6, 64]",5161641,Gd1B1C1
DyBC,mp-9936,0.0,1.98285543,0.4479748249479174,"{66: 1, 5: 1, 6: 1}","[5, 6, 66]",5161661,Dy1B1C1
HoBC,mp-1025084,0.0,2.99620883,0.43400740916666525,"{67: 1, 5: 1, 6: 1}","[5, 6, 67]",5161671,Ho1B1C1
LuBC,mp-1238866,0.0,7.72874283,0.14706884433333212,"{71: 1, 5: 1, 6: 1}","[5, 6, 71]",5161711,Lu1B1C1
Ca3BCNCl2,mp-649453,2.1079000000000003,3.38127189,0.0,"{20: 3, 5: 1, 6: 1, 7: 1, 17: 2}","[5, 6, 7, 17, 20]",516171172203,Ca3B1C1N1Cl2
Sr3BCNCl2,mp-616577,1.8787999999999996,2.69847449,0.0,"{38: 3, 5: 1, 6: 1, 7: 1, 17: 2}","[5, 6, 7, 17, 38]",516171172383,Sr3B1C1N1Cl2
Ca3BCBr2N,mp-1214049,2.2271,5.0372331,0.0,"{20: 3, 5: 1, 6: 1, 35: 2, 7: 1}","[5, 6, 7, 20, 35]",516171203352,Ca3B1C1Br2N1
KBCNF3,mp-1202872,6.719200000000001,-3.45289393,0.16637794041665988,"{19: 1, 5: 1, 6: 1, 7: 1, 9: 3}","[5, 6, 7, 9, 19]",51617193191,K1B1C1N1F3
HfBC,mp-1232375,0.0,9.47800659,0.5470924237499997,"{72: 1, 5: 1, 6: 1}","[5, 6, 72]",5161721,Hf1B1C1
TaBC,mp-1238820,0.0,9.57779062,0.7099635614583342,"{73: 1, 5: 1, 6: 1}","[5, 6, 73]",5161731,Ta1B1C1
BRu6(CO)17,mp-728878,0.023099999999999996,-0.10947198,0.287889768755079,"{5: 1, 44: 6, 6: 17, 8: 17}","[5, 6, 8, 44]",51617817446,B1Ru6C17O17
Mg14BCO16,mp-1033731,1.0647000000000002,5.14084261,0.3277827271679685,"{12: 14, 5: 1, 6: 1, 8: 16}","[5, 6, 8, 12]",51618161214,Mg14B1C1O16
Mg30BCO32,mp-1038482,1.8056,4.76961476,0.164928749990235,"{12: 30, 5: 1, 6: 1, 8: 32}","[5, 6, 8, 12]",51618321230,Mg30B1C1O32
AgBTe4C(OF4)5,mp-559834,3.5957,-1.66676122,0.0852510424218762,"{47: 1, 5: 1, 52: 4, 6: 1, 8: 5, 9: 20}","[5, 6, 8, 9, 47, 52]",516185920471524,Ag1B1Te4C1O5F20
UBCO5,mp-1197513,0.0,-1.33260812,1.4012661640364614,"{92: 1, 5: 1, 6: 1, 8: 5}","[5, 6, 8, 92]",516185921,U1B1C1O5
Mg6BCO8,mp-1033291,0.5317000000000007,5.53913506,0.6538850068359379,"{12: 6, 5: 1, 6: 1, 8: 8}","[5, 6, 8, 12]",516188126,Mg6B1C1O8
ThBC,mp-570254,0.0,7.14033051,0.0,"{90: 1, 5: 1, 6: 1}","[5, 6, 90]",5161901,Th1B1C1
UBC,mp-5816,0.0,10.9472493,0.0,"{92: 1, 5: 1, 6: 1}","[5, 6, 92]",5161921,U1B1C1
KBCF6,mp-559721,6.828900000000001,-2.44396356,0.20003544625000202,"{19: 1, 5: 1, 6: 1, 9: 6}","[5, 6, 9, 19]",516196191,K1B1C1F6
Sc2BC2,mp-10343,0.0,5.48724372,0.0,"{21: 2, 5: 1, 6: 2}","[5, 6, 21]",5162212,Sc2B1C2
La3B(CBr)2,mp-569072,0.0,7.26836323,0.004193981900193933,"{57: 3, 5: 1, 6: 2, 35: 2}","[5, 6, 35, 57]",5162352573,La3B1C2Br2
BC24Br(NF2)6,mp-1215033,1.4867,0.51564679,0.23241699667258775,"{5: 1, 6: 24, 35: 1, 7: 6, 9: 12}","[5, 6, 7, 9, 35]",5162476912351,B1C24Br1N6F12
BC2N,mp-629458,1.661900000000001,9.591655,0.5407360800000021,"{5: 1, 6: 2, 7: 1}","[5, 6, 7]",516271,B1C2N1
KB(CN)2,mp-1211861,0.0,0.86520419,1.0207095597916664,"{19: 1, 5: 1, 6: 2, 7: 2}","[5, 6, 7, 19]",516272191,K1B1C2N2
RbB(CN)2,mp-1209706,0.6080000000000001,0.2981822,0.8692939947916685,"{37: 1, 5: 1, 6: 2, 7: 2}","[5, 6, 7, 37]",516272371,Rb1B1C2N2
TlB(CN)2,mp-1208153,0.0,1.22176808,1.0498652918750002,"{81: 1, 5: 1, 6: 2, 7: 2}","[5, 6, 7, 81]",516272811,Tl1B1C2N2
AgBTe4C2(O3F10)2,mp-557494,2.8863000000000003,-2.00904225,0.16098580046568767,"{47: 1, 5: 1, 52: 4, 6: 2, 8: 6, 9: 20}","[5, 6, 8, 9, 47, 52]",516286920471524,Ag1B1Te4C2O6F20
CsB(CF4)2,mp-505375,6.4977,-1.93390171,0.2882199679166666,"{55: 1, 5: 1, 6: 2, 9: 8}","[5, 6, 9, 55]",516298551,Cs1B1C2F8
BC3,mp-1239206,0.0,7.47242418,0.28015149223958424,"{5: 1, 6: 3}","[5, 6]",5163,B1C3
Al3BC3,mp-1228599,1.8202999999999996,5.95087627,0.0,"{13: 3, 5: 1, 6: 3}","[5, 6, 13]",5163133,Al3B1C3
Cr6BC3,mp-1226023,0.0,8.00812933,0.03320973062500343,"{24: 6, 5: 1, 6: 3}","[5, 6, 24]",5163246,Cr6B1C3
Lu3BC3,mp-10566,0.0,4.20583994,0.0,"{71: 3, 5: 1, 6: 3}","[5, 6, 71]",5163713,Lu3B1C3
CsBC3NOF9,mp-555532,4.888,-0.29046843,0.49912028269530584,"{55: 1, 5: 1, 6: 3, 7: 1, 8: 1, 9: 9}","[5, 6, 7, 8, 9, 55]",5163718199551,Cs1B1C3N1O1F9
CsBC3NO2F9,mp-559063,3.4032,-1.69457924,0.5083149476102928,"{55: 1, 5: 1, 6: 3, 7: 1, 8: 2, 9: 9}","[5, 6, 7, 8, 9, 55]",5163718299551,Cs1B1C3N1O2F9
K2B(CN)3,mp-1205404,2.4621,0.69966525,0.32223325722221396,"{19: 2, 5: 1, 6: 3, 7: 3}","[5, 6, 7, 19]",516373192,K2B1C3N3
KBC3N3F,mp-1106282,5.729,-4.13095123,0.3566258155555575,"{19: 1, 5: 1, 6: 3, 7: 3, 9: 1}","[5, 6, 7, 9, 19]",51637391191,K1B1C3N3F1
Ca5BC4Cl3,mp-1227228,0.8796999999999997,4.46961051,0.035846970461538064,"{20: 5, 5: 1, 6: 4, 17: 3}","[5, 6, 17, 20]",5164173205,Ca5B1C4Cl3
Sc4BC4,mp-1219411,0.0,4.80850919,0.13584879534391803,"{21: 4, 5: 1, 6: 4}","[5, 6, 21]",5164214,Sc4B1C4
KBC4NF9,mp-559648,6.8492999999999995,-3.12787125,0.4078434438671801,"{19: 1, 5: 1, 6: 4, 7: 1, 9: 9}","[5, 6, 7, 9, 19]",51647199191,K1B1C4N1F9
NaB(CN)4,mp-571433,6.5013,-4.75453105,0.3721239689999942,"{11: 1, 5: 1, 6: 4, 7: 4}","[5, 6, 7, 11]",516474111,Na1B1C4N4
KB(CN)4,mp-574060,6.237,-3.79702654,0.3870327204166628,"{19: 1, 5: 1, 6: 4, 7: 4}","[5, 6, 7, 19]",516474191,K1B1C4N4
RbB(CN)4,mp-13591,6.3138000000000005,-3.99172563,0.37636178525000297,"{37: 1, 5: 1, 6: 4, 7: 4}","[5, 6, 7, 37]",516474371,Rb1B1C4N4
AgB(CN)4,mp-10413,4.2798,-2.20769146,0.43943451883333395,"{47: 1, 5: 1, 6: 4, 7: 4}","[5, 6, 7, 47]",516474471,Ag1B1C4N4
CsB(CN)4,mp-13588,6.3553,-3.96039526,0.3049746589999991,"{55: 1, 5: 1, 6: 4, 7: 4}","[5, 6, 7, 55]",516474551,Cs1B1C4N4
HgB(CN)4,mp-669526,3.6368,-2.24344333,0.48823101024999893,"{80: 1, 5: 1, 6: 4, 7: 4}","[5, 6, 7, 80]",516474801,Hg1B1C4N4
TlB(CN)4,mp-13592,5.2197,-2.46759966,0.37062352037499924,"{81: 1, 5: 1, 6: 4, 7: 4}","[5, 6, 7, 81]",516474811,Tl1B1C4N4
NaB(CO2)4,mp-559618,3.5338,-0.86929132,0.07018019454240942,"{11: 1, 5: 1, 6: 4, 8: 8}","[5, 6, 8, 11]",516488111,Na1B1C4O8
KB(CO2)4,mp-559030,3.2605,-1.38231299,0.05406898552631478,"{19: 1, 5: 1, 6: 4, 8: 8}","[5, 6, 8, 19]",516488191,K1B1C4O8
KB(CF3)4,mp-1202400,7.8591,-2.35293972,0.3654298337499977,"{19: 1, 5: 1, 6: 4, 9: 12}","[5, 6, 9, 19]",5164912191,K1B1C4F12
BC5,mp-1077125,0.0,8.90669278,0.2503226075347218,"{5: 1, 6: 5}","[5, 6]",5165,B1C5
Al8BC5,mp-1228130,0.0,6.72896251,0.04614320412202488,"{13: 8, 5: 1, 6: 5}","[5, 6, 13]",5165138,Al8B1C5
BC6BrNF5,mp-1214918,3.8548,2.95763814,0.3351205922953868,"{5: 1, 6: 6, 35: 1, 7: 1, 9: 5}","[5, 6, 7, 9, 35]",51667195351,B1C6Br1N1F5
Ca24Mg8B16C8O73,mp-1228648,0.14350000000000018,1.21493888,0.016854591957373266,"{20: 24, 12: 8, 5: 16, 6: 8, 8: 73}","[5, 6, 8, 12, 20]",516688731282024,Ca24Mg8B16C8O73
BC6XeF11,mp-1195493,1.5918999999999999,-0.36617636,0.48464475026316123,"{5: 1, 6: 6, 54: 1, 9: 11}","[5, 6, 9, 54]",5166911541,B1C6Xe1F11
BC7,mp-1078935,0.0,9.47216087,0.21537653127604095,"{5: 1, 6: 7}","[5, 6]",5167,B1C7
CoBC8(OF2)5,mp-562548,3.2546999999999997,-2.29519704,0.38641254522500024,"{27: 1, 5: 1, 6: 8, 8: 5, 9: 10}","[5, 6, 8, 9, 27]",516885910271,Co1B1C8O5F10
TbSi4B18C,mp-1217512,1.4466,6.7951677,0.0,"{65: 1, 14: 4, 5: 18, 6: 1}","[5, 6, 14, 65]",51861144651,Tb1Si4B18C1
Mg2B24C,mp-568556,2.4909,5.67037444,0.0,"{12: 2, 5: 24, 6: 1}","[5, 6, 12]",52461122,Mg2B24C1
ScB2C,mp-8597,0.0,6.6976373,0.053612489062500934,"{21: 1, 5: 2, 6: 1}","[5, 6, 21]",5261211,Sc1B2C1
CeCo2B2C,mp-1025095,0.0,7.43145145,0.0,"{58: 1, 27: 2, 5: 2, 6: 1}","[5, 6, 27, 58]",5261272581,Ce1Co2B2C1
PrCo2B2C,mp-12985,0.0,5.42815015,0.05984807805554482,"{59: 1, 27: 2, 5: 2, 6: 1}","[5, 6, 27, 59]",5261272591,Pr1Co2B2C1
GdCo2B2C,mp-1077521,0.0,5.34017662,0.02211640708333995,"{64: 1, 27: 2, 5: 2, 6: 1}","[5, 6, 27, 64]",5261272641,Gd1Co2B2C1
TbCo2B2C,mp-1024963,0.0,5.55075556,0.024821845416656885,"{65: 1, 27: 2, 5: 2, 6: 1}","[5, 6, 27, 65]",5261272651,Tb1Co2B2C1
TmCo2B2C,mp-1071818,0.0,5.45044231,0.027345422777779405,"{69: 1, 27: 2, 5: 2, 6: 1}","[5, 6, 27, 69]",5261272691,Tm1Co2B2C1
LaB2Rh2C,mp-6794,0.0,7.71578712,0.0,"{57: 1, 5: 2, 45: 2, 6: 1}","[5, 6, 45, 57]",5261452571,La1B2Rh2C1
CeB2Rh2C,mp-6191,0.0,7.51287101,0.0,"{58: 1, 5: 2, 45: 2, 6: 1}","[5, 6, 45, 58]",5261452581,Ce1B2Rh2C1
PrB2Rh2C,mp-568924,0.0,5.78652423,0.0,"{59: 1, 5: 2, 45: 2, 6: 1}","[5, 6, 45, 59]",5261452591,Pr1B2Rh2C1
NdB2Rh2C,mp-569294,0.0,5.73392555,0.0,"{60: 1, 5: 2, 45: 2, 6: 1}","[5, 6, 45, 60]",5261452601,Nd1B2Rh2C1
SmB2Rh2C,mp-567077,0.0,5.62787813,0.0,"{62: 1, 5: 2, 45: 2, 6: 1}","[5, 6, 45, 62]",5261452621,Sm1B2Rh2C1
GdB2Rh2C,mp-19756,0.0,5.61938175,0.0,"{64: 1, 5: 2, 45: 2, 6: 1}","[5, 6, 45, 64]",5261452641,Gd1B2Rh2C1
TbB2Rh2C,mp-12736,0.0,5.83954003,0.008204253750005108,"{65: 1, 5: 2, 45: 2, 6: 1}","[5, 6, 45, 65]",5261452651,Tb1B2Rh2C1
DyB2Rh2C,mp-571041,0.0,5.83590742,0.017427816250003225,"{66: 1, 5: 2, 45: 2, 6: 1}","[5, 6, 45, 66]",5261452661,Dy1B2Rh2C1
HoB2Rh2C,mp-567969,0.0,5.79439905,0.02960039660714653,"{67: 1, 5: 2, 45: 2, 6: 1}","[5, 6, 45, 67]",5261452671,Ho1B2Rh2C1
ErB2Rh2C,mp-6982,0.0,5.82567596,0.04090688101190931,"{68: 1, 5: 2, 45: 2, 6: 1}","[5, 6, 45, 68]",5261452681,Er1B2Rh2C1
ThB2Rh2C,mp-1080399,0.0,7.51306634,0.0,"{90: 1, 5: 2, 45: 2, 6: 1}","[5, 6, 45, 90]",5261452901,Th1B2Rh2C1
UB2Rh2C,mp-1025127,0.0,8.63966999,0.04161206154761743,"{92: 1, 5: 2, 45: 2, 6: 1}","[5, 6, 45, 92]",5261452921,U1B2Rh2C1
LaB2Pd2C,mp-1024956,0.0,7.09632874,0.05851835875000155,"{57: 1, 5: 2, 46: 2, 6: 1}","[5, 6, 46, 57]",5261462571,La1B2Pd2C1
CeB2Pd2C,mp-1206294,0.0,7.1404161,0.07755887597222344,"{58: 1, 5: 2, 46: 2, 6: 1}","[5, 6, 46, 58]",5261462581,Ce1B2Pd2C1
ThB2Pd2C,mp-1025041,0.0,7.03258897,0.10538948819443394,"{90: 1, 5: 2, 46: 2, 6: 1}","[5, 6, 46, 90]",5261462901,Th1B2Pd2C1
La4B2CI5,mp-672196,0.0,5.82770769,0.001405972916669107,"{57: 4, 5: 2, 6: 1, 53: 5}","[5, 6, 53, 57]",5261535574,La4B2C1I5
LaB2Ir2C,mp-5992,0.0,8.78891786,0.0,"{57: 1, 5: 2, 77: 2, 6: 1}","[5, 6, 57, 77]",5261571772,La1B2Ir2C1
LaB2Pt2C,mp-9219,0.0,8.49456992,0.02460263924999495,"{57: 1, 5: 2, 78: 2, 6: 1}","[5, 6, 57, 78]",5261571782,La1B2Pt2C1
CeB2C,mp-8667,0.0,8.25839534,0.0,"{58: 1, 5: 2, 6: 1}","[5, 6, 58]",5261581,Ce1B2C1
CeB2Ir2C,mp-10964,0.0,8.54006001,0.0,"{58: 1, 5: 2, 77: 2, 6: 1}","[5, 6, 58, 77]",5261581772,Ce1B2Ir2C1
CeB2Pt2C,mp-1024975,0.0,8.34432331,0.03329318347222099,"{58: 1, 5: 2, 78: 2, 6: 1}","[5, 6, 58, 78]",5261581782,Ce1B2Pt2C1
PrB2Pt2C,mp-12986,0.0,6.75701252,0.03014938897223285,"{59: 1, 5: 2, 78: 2, 6: 1}","[5, 6, 59, 78]",5261591782,Pr1B2Pt2C1
TbB2C,mp-15707,0.0,5.97631582,0.0,"{65: 1, 5: 2, 6: 1}","[5, 6, 65]",5261651,Tb1B2C1
DyB2C,mp-15644,0.0,5.96357536,0.0,"{66: 1, 5: 2, 6: 1}","[5, 6, 66]",5261661,Dy1B2C1
HoB2C,mp-15603,0.0,5.90880167,0.0,"{67: 1, 5: 2, 6: 1}","[5, 6, 67]",5261671,Ho1B2C1
TmB2C,mp-15604,0.0,5.91758415,0.0,"{69: 1, 5: 2, 6: 1}","[5, 6, 69]",5261691,Tm1B2C1
B2CN,mp-1079333,0.0,8.01110498,0.23981436255208521,"{5: 2, 6: 1, 7: 1}","[5, 6, 7]",526171,B2C1N1
LuB2C,mp-1105800,0.0,5.98961248,0.0,"{71: 1, 5: 2, 6: 1}","[5, 6, 71]",5261711,Lu1B2C1
B2CN2,mp-1228638,1.0153999999999996,9.84021694,0.4671741515000001,"{5: 2, 6: 1, 7: 2}","[5, 6, 7]",526172,B2C1N2
ThB2Pt2C,mp-1072285,0.0,8.28392554,0.03363667874998999,"{90: 1, 5: 2, 78: 2, 6: 1}","[5, 6, 78, 90]",5261782901,Th1B2Pt2C1
ThB2C,mp-2997,0.0,8.38784042,0.0,"{90: 1, 5: 2, 6: 1}","[5, 6, 90]",5261901,Th1B2C1
UB2C,mp-569471,0.0,10.3149437,0.034558178124996175,"{92: 1, 5: 2, 6: 1}","[5, 6, 92]",5261921,U1B2C1
NpB2C,mp-1095351,0.0,10.82110247,0.020350263958329506,"{93: 1, 5: 2, 6: 1}","[5, 6, 93]",5261931,Np1B2C1
PuB2C,mp-1095228,0.0,10.9816495,0.03753494421874848,"{94: 1, 5: 2, 6: 1}","[5, 6, 94]",5261941,Pu1B2C1
Mg(BC)2,mp-3582,1.0168999999999997,4.83258861,0.0,"{12: 1, 5: 2, 6: 2}","[5, 6, 12]",5262121,Mg1B2C2
Ca(BC)2,mp-10289,0.4750999999999994,4.51458841,0.0,"{20: 1, 5: 2, 6: 2}","[5, 6, 20]",5262201,Ca1B2C2
Sc(BC)2,mp-27693,0.0,5.99502122,0.044948152500001726,"{21: 1, 5: 2, 6: 2}","[5, 6, 21]",5262211,Sc1B2C2
ZrB2Mo3C2,mp-1215263,0.0,8.41001489,0.04571021453124935,"{40: 1, 5: 2, 42: 3, 6: 2}","[5, 6, 40, 42]",5262401423,Zr1B2Mo3C2
TaB2Mo3C2,mp-1217964,0.0,9.00489925,0.006233564531250124,"{73: 1, 5: 2, 42: 3, 6: 2}","[5, 6, 42, 73]",5262423731,Ta1B2Mo3C2
La(BC)2,mp-10852,0.0,8.77322625,0.0,"{57: 1, 5: 2, 6: 2}","[5, 6, 57]",5262571,La1B2C2
Ce(BC)2,mp-20908,0.0,8.25102507,0.0,"{58: 1, 5: 2, 6: 2}","[5, 6, 58]",5262581,Ce1B2C2
Pr(BC)2,mp-10853,0.0,6.15133042,0.0,"{59: 1, 5: 2, 6: 2}","[5, 6, 59]",5262591,Pr1B2C2
Nd(BC)2,mp-5765,0.0,6.11441374,0.0,"{60: 1, 5: 2, 6: 2}","[5, 6, 60]",5262601,Nd1B2C2
Sm(BC)2,mp-6916,0.0,6.00662803,0.0,"{62: 1, 5: 2, 6: 2}","[5, 6, 62]",5262621,Sm1B2C2
Eu(BC)2,mp-1079886,0.0,5.08789171,0.027349974666666554,"{63: 1, 5: 2, 6: 2}","[5, 6, 63]",5262631,Eu1B2C2
Gd(BC)2,mp-1080176,0.0,5.24867351,0.0,"{64: 1, 5: 2, 6: 2}","[5, 6, 64]",5262641,Gd1B2C2
Tb(BC)2,mp-10854,0.0,6.32904791,0.0,"{65: 1, 5: 2, 6: 2}","[5, 6, 65]",5262651,Tb1B2C2
Dy(BC)2,mp-2958,0.0,6.32878288,0.0,"{66: 1, 5: 2, 6: 2}","[5, 6, 66]",5262661,Dy1B2C2
Ho(BC)2,mp-20410,0.0,6.29676941,0.0,"{67: 1, 5: 2, 6: 2}","[5, 6, 67]",5262671,Ho1B2C2
Er(BC)2,mp-10856,0.0,6.34997087,0.0,"{68: 1, 5: 2, 6: 2}","[5, 6, 68]",5262681,Er1B2C2
Tm(BC)2,mp-10857,0.0,6.34963956,0.009051372000000057,"{69: 1, 5: 2, 6: 2}","[5, 6, 69]",5262691,Tm1B2C2
Lu(BC)2,mp-10858,0.0,6.40694009,0.027539968500000178,"{71: 1, 5: 2, 6: 2}","[5, 6, 71]",5262711,Lu1B2C2
Ce6B2(CBr)3,mp-570060,0.0,7.19185867,0.0,"{58: 6, 5: 2, 6: 3, 35: 3}","[5, 6, 35, 58]",5263353586,Ce6B2C3Br3
Tb2B2C3,mp-568624,0.0,5.86367898,0.07693541758928113,"{65: 2, 5: 2, 6: 3}","[5, 6, 65]",5263652,Tb2B2C3
B2(CN2)3,mp-2455462,2.2986999999999997,-2.89854605,0.1760377443181813,"{5: 2, 6: 3, 7: 6}","[5, 6, 7]",526376,B2C3N6
Th3B2C3,mp-3182,0.0,7.26089832,0.0030123221875051343,"{90: 3, 5: 2, 6: 3}","[5, 6, 90]",5263903,Th3B2C3
Ca9B2(CCl2)4,mp-569892,1.3725999999999998,3.66048832,0.0,"{20: 9, 5: 2, 6: 4, 17: 8}","[5, 6, 17, 20]",5264178209,Ca9B2C4Cl8
Mn23(BC2)2,mp-1222165,0.0,7.07554356,0.004885528997222721,"{25: 23, 5: 2, 6: 4}","[5, 6, 25]",52642523,Mn23B2C4
Pr5B2C5,mp-571510,0.0,4.35731863,0.010425566388888363,"{59: 5, 5: 2, 6: 5}","[5, 6, 59]",5265595,Pr5B2C5
Dy5B2C5,mp-18628,0.0,4.39995869,0.0,"{66: 5, 5: 2, 6: 5}","[5, 6, 66]",5265665,Dy5B2C5
Ca(BC3)2,mp-1227328,0.6533999999999995,3.66733049,0.029552975555557026,"{20: 1, 5: 2, 6: 6}","[5, 6, 20]",5266201,Ca1B2C6
ZnB2(CN)8,mp-569303,5.5259,-3.24443641,0.4414498130263116,"{30: 1, 5: 2, 6: 8, 7: 8}","[5, 6, 7, 30]",526878301,Zn1B2C8N8
HgB2(CN)8,mp-567699,4.6143,-3.2806208,0.5208974119736824,"{80: 1, 5: 2, 6: 8, 7: 8}","[5, 6, 7, 80]",526878801,Hg1B2C8N8
B3C10N3,mp-642462,0.17209999999999992,3.96878864,0.5900396796874983,"{5: 3, 6: 10, 7: 3}","[5, 6, 7]",5361073,B3C10N3
Nb3B3C,mp-29979,0.0,7.45160365,0.018052289285718004,"{41: 3, 5: 3, 6: 1}","[5, 6, 41]",5361413,Nb3B3C1
Ca4Mn3B3CO15,mp-532650,1.4971000000000005,2.99513436,0.0,"{20: 4, 25: 3, 5: 3, 6: 1, 8: 15}","[5, 6, 8, 20, 25]",5361815204253,Ca4Mn3B3C1O15
Nb4B3C2,mp-29980,0.0,7.38545146,0.050205160277780436,"{41: 4, 5: 3, 6: 2}","[5, 6, 41]",5362414,Nb4B3C2
Gd2B3C2,mp-28702,0.0,4.93516061,0.0,"{64: 2, 5: 3, 6: 2}","[5, 6, 64]",5362642,Gd2B3C2
Mn23(BC)3,mp-1222106,0.0,6.9109562,0.008207707116524077,"{25: 23, 5: 3, 6: 3}","[5, 6, 25]",53632523,Mn23B3C3
B3C3N7,mp-1246452,3.5976999999999997,-2.51104288,0.3932768676923093,"{5: 3, 6: 3, 7: 7}","[5, 6, 7]",536377,B3C3N7
Gd4B3C4,mp-29821,0.0,4.54251876,0.0,"{64: 4, 5: 3, 6: 4}","[5, 6, 64]",5364644,Gd4B3C4
Tm4B3C4,mp-1095577,0.0,4.81187063,0.0,"{69: 4, 5: 3, 6: 4}","[5, 6, 69]",5364694,Tm4B3C4
Lu4B3C4,mp-567908,0.0,4.80904977,0.0,"{71: 4, 5: 3, 6: 4}","[5, 6, 71]",5364714,Lu4B3C4
U4B3C5,mp-1216723,0.0,11.37129945,0.003155470833331009,"{92: 4, 5: 3, 6: 5}","[5, 6, 92]",5365924,U4B3C5