formula,material_id,band_gap,efermi,energy_above_hull,comp_atoms,sorted_keys_comp_atoms,comp_number,new_formula
Na3H12Ru2(C2O9)2,mp-1173843,0.7499999999999999,0.55921974,0.027494475512821914,"{11: 3, 1: 12, 44: 2, 6: 4, 8: 18}","[1, 6, 8, 11, 44]",11264818113442,Na3H12Ru2C4O18
NaH12RuC4S2(Cl2O)2,mp-1202543,0.06899999999999995,0.56505511,0.21987979939903823,"{11: 1, 1: 12, 44: 1, 6: 4, 16: 2, 17: 4, 8: 2}","[1, 6, 8, 11, 16, 17, 44]",1126482111162174441,Na1H12Ru1C4S2Cl4O2
NaH12C4S2BrO2,mp-555975,4.3026,-0.78690815,0.18338234069805104,"{11: 1, 1: 12, 6: 4, 16: 2, 35: 1, 8: 2}","[1, 6, 8, 11, 16, 35]",1126482111162351,Na1H12C4S2Br1O2
TcH12C4S2(Cl2O)2,mp-1204695,1.0245,0.45977311,0.20048833483333706,"{43: 1, 1: 12, 6: 4, 16: 2, 17: 4, 8: 2}","[1, 6, 8, 16, 17, 43]",1126482162174431,Tc1H12C4S2Cl4O2
H12W3C4S2Cl9O2,mp-601227,2.5538,-0.77664462,0.3771608018576389,"{1: 12, 74: 3, 6: 4, 16: 2, 17: 9, 8: 2}","[1, 6, 8, 16, 17, 74]",1126482162179743,H12W3C4S2Cl9O2
TlH12C4S2I3O2,mp-1202038,1.8029,-1.27204785,0.16936010293154702,"{81: 1, 1: 12, 6: 4, 16: 2, 53: 3, 8: 2}","[1, 6, 8, 16, 53, 81]",1126482162533811,Tl1H12C4S2I3O2
P2H12C4O3,mp-1199137,5.2716,2.67967175,0.011085856177721176,"{15: 2, 1: 12, 6: 4, 8: 3}","[1, 6, 8, 15]",1126483152,P2H12C4O3
SiH12(CO)4,mp-1199165,4.7372,2.95272156,0.3641928224603186,"{14: 1, 1: 12, 6: 4, 8: 4}","[1, 6, 8, 14]",1126484141,Si1H12C4O4
CrPH12(CO)4,mp-1196337,2.3939999999999997,-1.65431235,0.438353136590913,"{24: 1, 15: 1, 1: 12, 6: 4, 8: 4}","[1, 6, 8, 15, 24]",1126484151241,Cr1P1H12C4O4
P2H12Rh(CO)4,mp-1199623,1.1960000000000002,2.07414115,0.14020764722222356,"{15: 2, 1: 12, 45: 1, 6: 4, 8: 4}","[1, 6, 8, 15, 45]",1126484152451,P2H12Rh1C4O4
MoH12C4S2(BrO2)2,mp-1201772,2.5453,-1.39137098,0.3119415124833349,"{42: 1, 1: 12, 6: 4, 16: 2, 35: 2, 8: 4}","[1, 6, 8, 16, 35, 42]",1126484162352421,Mo1H12C4S2Br2O4
Sn2MoH12C4O5,mp-1196260,4.0067,2.70770019,0.16830219916666334,"{50: 2, 42: 1, 1: 12, 6: 4, 8: 5}","[1, 6, 8, 42, 50]",1126485421502,Sn2Mo1H12C4O5
ReH12C4O5F,mp-23707,2.968,-2.16990694,0.23039289328804102,"{75: 1, 1: 12, 6: 4, 8: 5, 9: 1}","[1, 6, 8, 9, 75]",112648591751,Re1H12C4O5F1
MgH12C4(S2O3)2,mp-1202028,1.8952,0.09005386,0.09804970016535108,"{12: 1, 1: 12, 6: 4, 16: 4, 8: 6}","[1, 6, 8, 12, 16]",1126486121164,Mg1H12C4S4O6
MnP2H12(CO2)4,mp-1199960,4.702500000000001,4.05846701,0.13321957993828448,"{25: 1, 15: 2, 1: 12, 6: 4, 8: 8}","[1, 6, 8, 15, 25]",1126488152251,Mn1P2H12C4O8
UH12C4S3O8,mp-1203496,2.0197,1.70573757,0.2263076567750817,"{92: 1, 1: 12, 6: 4, 16: 3, 8: 8}","[1, 6, 8, 16, 92]",1126488163921,U1H12C4S3O8
H12C5N2,mp-1225107,0.0,0.90373401,0.343756295986843,"{1: 12, 6: 5, 7: 2}","[1, 6, 7]",1126572,H12C5N2
H12C5N2O,mp-554659,4.6234,-0.88863959,0.15610952231249975,"{1: 12, 6: 5, 7: 2, 8: 1}","[1, 6, 7, 8]",112657281,H12C5N2O1
H12C5S2N2O5,mp-1196947,4.421799999999999,2.87450305,0.2829227403846142,"{1: 12, 6: 5, 16: 2, 7: 2, 8: 5}","[1, 6, 7, 8, 16]",112657285162,H12C5S2N2O5
SbH12C5N3Cl4,mp-601211,1.3255,-0.31386684,0.24074267981666608,"{51: 1, 1: 12, 6: 5, 7: 3, 17: 4}","[1, 6, 7, 17, 51]",1126573174511,Sb1H12C5N3Cl4
ZnH12C6S2(N5O)2,mp-734836,3.6256999999999997,-0.36381829,0.1033807880188764,"{30: 1, 1: 12, 6: 6, 16: 2, 7: 10, 8: 2}","[1, 6, 7, 8, 16, 30]",1126671082162301,Zn1H12C6S2N10O2
H12C6S(N5O3)2,mp-1196287,3.3772,-0.88613044,0.04074408642120275,"{1: 12, 6: 6, 16: 1, 7: 10, 8: 6}","[1, 6, 7, 8, 16]",1126671086161,H12C6S1N10O6
AgH12C6N13O3,mp-1215103,3.1463,2.13438245,0.09430521630952438,"{47: 1, 1: 12, 6: 6, 7: 13, 8: 3}","[1, 6, 7, 8, 47]",1126671383471,Ag1H12C6N13O3
VH12C6NO4,mp-1195643,3.0515,1.41733014,0.23537001593750073,"{23: 1, 1: 12, 6: 6, 7: 1, 8: 4}","[1, 6, 7, 8, 23]",112667184231,V1H12C6N1O4
ZnH12C6(S2N)2,mp-1204777,2.4966,-0.44720912,0.13817973144000106,"{30: 1, 1: 12, 6: 6, 16: 4, 7: 2}","[1, 6, 7, 16, 30]",1126672164301,Zn1H12C6S4N2
SnH12C6(S2N)2,mp-1204716,2.8104999999999998,3.31771488,0.1301388561100003,"{50: 1, 1: 12, 6: 6, 16: 4, 7: 2}","[1, 6, 7, 16, 50]",1126672164501,Sn1H12C6S4N2
SnH12C6S2(NO)2,mp-1202452,3.4006,3.0710429,0.15260477692499386,"{50: 1, 1: 12, 6: 6, 16: 2, 7: 2, 8: 2}","[1, 6, 7, 8, 16, 50]",112667282162501,Sn1H12C6S2N2O2
SnH12C6(NO2)2,mp-1201486,4.244400000000001,2.92825388,0.12488538850000097,"{50: 1, 1: 12, 6: 6, 7: 2, 8: 4}","[1, 6, 7, 8, 50]",112667284501,Sn1H12C6N2O4
Ag2H12C6N3Cl,mp-567645,3.4853,-0.9212341,0.23910673897569446,"{47: 2, 1: 12, 6: 6, 7: 3, 17: 1}","[1, 6, 7, 17, 47]",1126673171472,Ag2H12C6N3Cl1
CrH12C6(NO4)3,mp-1182589,0.26290000000000013,-1.69176473,0.5311404552328467,"{24: 1, 1: 12, 6: 6, 7: 3, 8: 12}","[1, 6, 7, 8, 24]",1126673812241,Cr1H12C6N3O12
UH12C6N3O8,mp-1195272,2.2794,0.69599872,0.08389584999996735,"{92: 1, 1: 12, 6: 6, 7: 3, 8: 8}","[1, 6, 7, 8, 92]",112667388921,U1H12C6N3O8
SiH12C6(NO2)4,mp-1194648,3.5551000000000004,0.9977695,0.5405748872042961,"{14: 1, 1: 12, 6: 6, 7: 4, 8: 8}","[1, 6, 7, 8, 14]",112667488141,Si1H12C6N4O8
AgH12C6N5O3,mp-560619,2.9095000000000004,0.61971268,0.37472510507716095,"{47: 1, 1: 12, 6: 6, 7: 5, 8: 3}","[1, 6, 7, 8, 47]",112667583471,Ag1H12C6N5O3
H12PtC6(N3O4)2,mp-850513,2.2748999999999997,0.83417012,0.10195643239898722,"{1: 12, 78: 1, 6: 6, 7: 6, 8: 8}","[1, 6, 7, 8, 78]",112667688781,H12Pt1C6N6O8
SbH12C6(N3Cl2)3,mp-1204053,2.8794,0.34813173,0.10641991941175544,"{51: 1, 1: 12, 6: 6, 7: 9, 17: 6}","[1, 6, 7, 17, 51]",1126679176511,Sb1H12C6N9Cl6
H12C71F4,mp-1196283,1.1795,0.82903481,0.3279017637068966,"{1: 12, 6: 71, 9: 4}","[1, 6, 9]",11267194,H12C71F4
Nd2H12C7N2O17,mp-1197778,3.2262000000000004,2.95185785,0.01785626709374455,"{60: 2, 1: 12, 6: 7, 7: 2, 8: 17}","[1, 6, 7, 8, 60]",1126772817602,Nd2H12C7N2O17
H12RhC8NO6,mp-555813,1.0657,0.56807703,0.2134618007589335,"{1: 12, 45: 1, 6: 8, 7: 1, 8: 6}","[1, 6, 7, 8, 45]",112687186451,H12Rh1C8N1O6
CrH12C8S2(NO)2,mp-1194277,2.0106,1.47191963,0.1773471186527784,"{24: 1, 1: 12, 6: 8, 16: 2, 7: 2, 8: 2}","[1, 6, 7, 8, 16, 24]",112687282162241,Cr1H12C8S2N2O2
MnH12C8S2(NO)2,mp-1193229,2.5994,-1.11355291,0.16804338449073963,"{25: 1, 1: 12, 6: 8, 16: 2, 7: 2, 8: 2}","[1, 6, 7, 8, 16, 25]",112687282162251,Mn1H12C8S2N2O2
CoH12C8S2(N3O)2,mp-1203870,2.1355,1.15294839,0.3581858974059191,"{27: 1, 1: 12, 6: 8, 16: 2, 7: 6, 8: 2}","[1, 6, 7, 8, 16, 27]",112687682162271,Co1H12C8S2N6O2
SiH12C8(NO2)8,mp-1195524,3.6496,-1.98198746,0.5510537176913584,"{14: 1, 1: 12, 6: 8, 7: 8, 8: 16}","[1, 6, 7, 8, 14]",1126878816141,Si1H12C8N8O16
CrSb2H12(C2O)4,mp-698432,2.2893000000000003,0.40738356,0.32518152641203546,"{24: 1, 51: 2, 1: 12, 6: 8, 8: 4}","[1, 6, 8, 24, 51]",1126884241512,Cr1Sb2H12C8O4
CrSb2H12C8O5,mp-1196843,2.685,2.28132733,0.3257534200669614,"{24: 1, 51: 2, 1: 12, 6: 8, 8: 5}","[1, 6, 8, 24, 51]",1126885241512,Cr1Sb2H12C8O5
CrH12(CF)8,mp-1213766,0.2085999999999999,1.38310685,1.5402561293318993,"{24: 1, 1: 12, 6: 8, 9: 8}","[1, 6, 9, 24]",1126898241,Cr1H12C8F8
Zn3H12C9O13,mp-1202110,3.7954,2.40989337,0.14599336972972488,"{30: 3, 1: 12, 6: 9, 8: 13}","[1, 6, 8, 30]",11269813303,Zn3H12C9O13
CsB10H13C,mp-759303,4.842499999999999,-1.47851427,0.03370561175060516,"{55: 1, 5: 10, 1: 13, 6: 1}","[1, 5, 6, 55]",11351061551,Cs1B10H13C1
B10H13CSN,mp-720401,2.9344,-1.82008552,0.16321894957978156,"{5: 10, 1: 13, 6: 1, 16: 1, 7: 1}","[1, 5, 6, 7, 16]",1135106171161,B10H13C1S1N1
KB11H13C2NO,mp-1195330,4.8833,-2.40905026,0.14341398412355666,"{19: 1, 5: 11, 1: 13, 6: 2, 7: 1, 8: 1}","[1, 5, 6, 7, 8, 19]",113511627181191,K1B11H13C2N1O1
BAsH13C3N,mp-1199944,4.006,2.01983248,0.22174662177631355,"{5: 1, 33: 1, 1: 13, 6: 3, 7: 1}","[1, 5, 6, 7, 33]",113516371331,B1As1H13C3N1
B2AsH13C3Br3N,mp-1197013,4.675000000000001,2.62777923,0.15476619016304127,"{5: 2, 33: 1, 1: 13, 6: 3, 35: 3, 7: 1}","[1, 5, 6, 7, 33, 35]",113526371331353,B2As1H13C3Br3N1
B6H13CN4,mp-1201564,5.2596,3.52306967,0.34530946786458383,"{5: 6, 1: 13, 6: 1, 7: 4}","[1, 5, 6, 7]",113566174,B6H13C1N4
H13(C5N)2,mp-605048,3.0363,-0.47624744,0.14707052957499833,"{1: 13, 6: 10, 7: 2}","[1, 6, 7]",11361072,H13C10N2
Nd2H13(CO)12,mp-1210672,0.0,-1.38876493,1.013959271282041,"{60: 2, 1: 13, 6: 12, 8: 12}","[1, 6, 8, 60]",113612812602,Nd2H13C12O12
KH13CBrNO7,mp-600177,1.783,-2.20701675,0.2344547682291651,"{19: 1, 1: 13, 6: 1, 35: 1, 7: 1, 8: 7}","[1, 6, 7, 8, 19, 35]",113617187191351,K1H13C1Br1N1O7
VP2H13CN3O11,mp-1100919,2.8281,3.03549146,0.04941296225803704,"{23: 1, 15: 2, 1: 13, 6: 1, 7: 3, 8: 11}","[1, 6, 7, 8, 15, 23]",1136173811152231,V1P2H13C1N3O11
Mo2H13CN3O13,mp-1202350,2.5377,0.03636822,0.5509403721316959,"{42: 2, 1: 13, 6: 1, 7: 3, 8: 13}","[1, 6, 7, 8, 42]",1136173813422,Mo2H13C1N3O13
CoP2H13C2NO9,mp-1202935,3.3787,3.3566545,0.09043774601933752,"{27: 1, 15: 2, 1: 13, 6: 2, 7: 1, 8: 9}","[1, 6, 7, 8, 15, 27]",113627189152271,Co1P2H13C2N1O9
CoH13C2N4O9,mp-1195455,2.8847000000000005,2.14711081,0.14847446843103285,"{27: 1, 1: 13, 6: 2, 7: 4, 8: 9}","[1, 6, 7, 8, 27]",113627489271,Co1H13C2N4O9
ZnP2H13C2(N3O4)2,mp-1207595,0.3175,-1.14624079,0.0711273985319032,"{30: 1, 15: 2, 1: 13, 6: 2, 7: 6, 8: 8}","[1, 6, 7, 8, 15, 30]",113627688152301,Zn1P2H13C2N6O8
H13C2Cl3O8,mp-1203272,4.5239,-1.88081371,0.0883282583173095,"{1: 13, 6: 2, 17: 3, 8: 8}","[1, 6, 8, 17]",1136288173,H13C2Cl3O8
H13C2Cl2O8F,mp-1202378,4.8344000000000005,-2.44695932,0.09067238024038549,"{1: 13, 6: 2, 17: 2, 8: 8, 9: 1}","[1, 6, 8, 9, 17]",113628891172,H13C2Cl2O8F1
H13C3NF4,mp-708997,7.284,-4.41489354,0.0774776833928561,"{1: 13, 6: 3, 7: 1, 9: 4}","[1, 6, 7, 9]",113637194,H13C3N1F4
H13PtC3N3Cl2O,mp-1200075,2.3108,0.13007733,0.1217407767663028,"{1: 13, 78: 1, 6: 3, 7: 3, 17: 2, 8: 1}","[1, 6, 7, 8, 17, 78]",113637381172781,H13Pt1C3N3Cl2O1
UH13C3N6ClO10,mp-1203169,2.3357,-0.97772945,0.2588133076307262,"{92: 1, 1: 13, 6: 3, 7: 6, 17: 1, 8: 10}","[1, 6, 7, 8, 17, 92]",1136376810171921,U1H13C3N6Cl1O10
LaH13C3S3O11,mp-698218,4.2977,-0.17268237,0.15588662576996803,"{57: 1, 1: 13, 6: 3, 16: 3, 8: 11}","[1, 6, 8, 16, 57]",11363811163571,La1H13C3S3O11
H13C4S2NO6,mp-1205249,2.7885,-1.58942442,0.23317328683379124,"{1: 13, 6: 4, 16: 2, 7: 1, 8: 6}","[1, 6, 7, 8, 16]",113647186162,H13C4S2N1O6
H13C4NF2,mp-554840,6.5367999999999995,-2.64340115,0.12236584750000024,"{1: 13, 6: 4, 7: 1, 9: 2}","[1, 6, 7, 9]",113647192,H13C4N1F2
GaH13(C2N)2,mp-570588,3.4495999999999998,-0.09875846,0.15183651718750113,"{31: 1, 1: 13, 6: 4, 7: 2}","[1, 6, 7, 31]",1136472311,Ga1H13C4N2
KH13C4(NO)2,mp-1201889,3.0343,2.40883272,0.2688602174715973,"{19: 1, 1: 13, 6: 4, 7: 2, 8: 2}","[1, 6, 7, 8, 19]",113647282191,K1H13C4N2O2
H13RuC5SN2(ClO)3,mp-1204771,1.8271,0.89697802,0.2863160698883922,"{1: 13, 44: 1, 6: 5, 16: 1, 7: 2, 17: 3, 8: 3}","[1, 6, 7, 8, 16, 17, 44]",113657283161173441,H13Ru1C5S1N2Cl3O3
H13RuC6SN4O8F9,mp-1203926,1.9684999999999997,0.11387428,0.16560522911706066,"{1: 13, 44: 1, 6: 6, 16: 1, 7: 4, 8: 8, 9: 9}","[1, 6, 7, 8, 9, 16, 44]",11366748899161441,H13Ru1C6S1N4O8F9
SmH13C8N6O13,mp-1210344,3.3989000000000003,-0.40259208,0.14504067652438302,"{62: 1, 1: 13, 6: 8, 7: 6, 8: 13}","[1, 6, 7, 8, 62]",1136876813621,Sm1H13C8N6O13
Mg3H13C9NO13,mp-605684,4.0947,-0.61768134,0.13422411570513404,"{12: 3, 1: 13, 6: 9, 7: 1, 8: 13}","[1, 6, 7, 8, 12]",1136971813123,Mg3H13C9N1O13
Ga4Si12H138C55S4,mp-1197409,3.7169,-1.669805,0.054858057911229,"{31: 4, 14: 12, 1: 138, 6: 55, 16: 4}","[1, 6, 14, 16, 31]",11386551412164314,Ga4Si12H138C55S4
NaBeHCO5,mp-1210975,0.0,-1.58722079,0.22656071236110797,"{11: 1, 4: 1, 1: 1, 6: 1, 8: 5}","[1, 4, 6, 8, 11]",11416185111,Na1Be1H1C1O5
B10H14C10S(OF2)3,mp-1194781,4.337199999999999,2.08576149,0.45031371541578125,"{5: 10, 1: 14, 6: 10, 16: 1, 8: 3, 9: 6}","[1, 5, 6, 8, 9, 16]",1145106108396161,B10H14C10S1O3F6
NaB7H14C2(NO7)2,mp-1195917,4.7153,4.49881624,0.04208101462784075,"{11: 1, 5: 7, 1: 14, 6: 2, 7: 2, 8: 14}","[1, 5, 6, 7, 8, 11]",114576272814111,Na1B7H14C2N2O14
CoH14C10(N4O)2,mp-698295,2.2936,-0.68610129,0.21977283746428533,"{27: 1, 1: 14, 6: 10, 7: 8, 8: 2}","[1, 6, 7, 8, 27]",1146107882271,Co1H14C10N8O2
Zn3H14C10O13,mp-1204132,3.8669,2.90586694,0.16346300684375414,"{30: 3, 1: 14, 6: 10, 8: 13}","[1, 6, 8, 30]",114610813303,Zn3H14C10O13
Na2H14CO10,mp-1198167,4.197,-1.10247773,0.017926386959872254,"{11: 2, 1: 14, 6: 1, 8: 10}","[1, 6, 8, 11]",11461810112,Na2H14C1O10
Ca3SiH14CSO10,mp-1214820,2.1723,-0.20794049,0.4847241397916635,"{20: 3, 14: 1, 1: 14, 6: 1, 16: 1, 8: 10}","[1, 6, 8, 14, 16, 20]",11461810141161203,Ca3Si1H14C1S1O10
ZnH14C2N10(ClO7)2,mp-1200184,3.2476000000000003,2.54374361,0.5093159670465086,"{30: 1, 1: 14, 6: 2, 7: 10, 17: 2, 8: 14}","[1, 6, 7, 8, 17, 30]",11462710814172301,Zn1H14C2N10Cl2O14
CoH14C2N10(ClO3)2,mp-1197397,1.7506,1.64869305,0.24520039317143016,"{27: 1, 1: 14, 6: 2, 7: 10, 17: 2, 8: 6}","[1, 6, 7, 8, 17, 27]",1146271086172271,Co1H14C2N10Cl2O6
ZnH14C2N10(ClO3)2,mp-1198181,3.2858,2.09960706,0.23485377871429947,"{30: 1, 1: 14, 6: 2, 7: 10, 17: 2, 8: 6}","[1, 6, 7, 8, 17, 30]",1146271086172301,Zn1H14C2N10Cl2O6
CoH14C2(NO)12,mp-1200629,1.6764999999999999,-0.3874656,0.44112522518292696,"{27: 1, 1: 14, 6: 2, 7: 12, 8: 12}","[1, 6, 7, 8, 27]",11462712812271,Co1H14C2N12O12
ZnH14C2(NO)12,mp-1203371,2.9048,-1.14388087,0.42036639213414784,"{30: 1, 1: 14, 6: 2, 7: 12, 8: 12}","[1, 6, 7, 8, 30]",11462712812301,Zn1H14C2N12O12
TeH14C2(NO2)4,mp-758675,2.6452,-0.27027132,0.08494097080459895,"{52: 1, 1: 14, 6: 2, 7: 4, 8: 8}","[1, 6, 7, 8, 52]",114627488521,Te1H14C2N4O8
ZnP2H14C2(NO)6,mp-757310,4.9663,-0.95119056,0.05032914166665137,"{30: 1, 15: 2, 1: 14, 6: 2, 7: 6, 8: 6}","[1, 6, 7, 8, 15, 30]",114627686152301,Zn1P2H14C2N6O6
ZnH14C2(N2Cl)4,mp-603910,3.8822,-0.76976123,0.06161399743534712,"{30: 1, 1: 14, 6: 2, 7: 8, 17: 4}","[1, 6, 7, 17, 30]",1146278174301,Zn1H14C2N8Cl4
H14C2N8O5,mp-1200580,2.7816,1.91275437,0.1630518950862081,"{1: 14, 6: 2, 7: 8, 8: 5}","[1, 6, 7, 8]",114627885,H14C2N8O5
ZrH14C2(N4F3)2,mp-722263,4.6251,-1.14882533,0.06536768492969802,"{40: 1, 1: 14, 6: 2, 7: 8, 9: 6}","[1, 6, 7, 9, 40]",114627896401,Zr1H14C2N8F6
H14C3NCl5,mp-1202436,5.3369,-2.46387122,0.05173703059782664,"{1: 14, 6: 3, 7: 1, 17: 5}","[1, 6, 7, 17]",1146371175,H14C3N1Cl5
MnH14C3NCl3O2,mp-600189,4.1336,-0.37253515,0.056964470156249725,"{25: 1, 1: 14, 6: 3, 7: 1, 17: 3, 8: 2}","[1, 6, 7, 8, 17, 25]",114637182173251,Mn1H14C3N1Cl3O2
CoH14C3NCl3O2,mp-600233,2.6521,-0.45380672,0.05479097463541738,"{27: 1, 1: 14, 6: 3, 7: 1, 17: 3, 8: 2}","[1, 6, 7, 8, 17, 27]",114637182173271,Co1H14C3N1Cl3O2
H14C3NF5,mp-561300,7.3363,-4.81203356,0.06801266342390822,"{1: 14, 6: 3, 7: 1, 9: 5}","[1, 6, 7, 9]",114637195,H14C3N1F5
AgH14C3S3N6ClO,mp-1200476,3.0284000000000004,0.35943504,0.02968698293104044,"{47: 1, 1: 14, 6: 3, 16: 3, 7: 6, 17: 1, 8: 1}","[1, 6, 7, 8, 16, 17, 47]",114637681163171471,Ag1H14C3S3N6Cl1O1
TeH14C3S3(N3F2)2,mp-849783,2.2372,0.40628381,0.0976821492474862,"{52: 1, 1: 14, 6: 3, 16: 3, 7: 6, 9: 4}","[1, 6, 7, 9, 16, 52]",114637694163521,Te1H14C3S3N6F4
KSi2H14C4N,mp-1198916,4.0663,2.7789071,0.04676305434888395,"{19: 1, 14: 2, 1: 14, 6: 4, 7: 1}","[1, 6, 7, 14, 19]",1146471142191,K1Si2H14C4N1
NbH14C4NO14,mp-758842,4.1183,-1.25800367,0.04757904368173005,"{41: 1, 1: 14, 6: 4, 7: 1, 8: 14}","[1, 6, 7, 8, 41]",1146471814411,Nb1H14C4N1O14
AlH14C4NOF4,mp-572874,5.1838,-2.84766521,0.180562483200001,"{13: 1, 1: 14, 6: 4, 7: 1, 8: 1, 9: 4}","[1, 6, 7, 8, 9, 13]",11464718194131,Al1H14C4N1O1F4
HfH14C4NOF5,mp-1204663,6.6662,-2.83370104,0.06542824792200364,"{72: 1, 1: 14, 6: 4, 7: 1, 8: 1, 9: 5}","[1, 6, 7, 8, 9, 72]",11464718195721,Hf1H14C4N1O1F5
VH14C4NO2F3,mp-560363,3.0679,-1.0694617,0.1168889123249981,"{23: 1, 1: 14, 6: 4, 7: 1, 8: 2, 9: 3}","[1, 6, 7, 8, 9, 23]",11464718293231,V1H14C4N1O2F3
PH14C4NO4,mp-1203912,5.5565,3.72695501,0.05071431885415656,"{15: 1, 1: 14, 6: 4, 7: 1, 8: 4}","[1, 6, 7, 8, 15]",114647184151,P1H14C4N1O4
H14C4NF3,mp-601774,7.115600000000001,-3.5744761,0.0979602427840911,"{1: 14, 6: 4, 7: 1, 9: 3}","[1, 6, 7, 9]",114647193,H14C4N1F3
SnH14C4(NCl2)2,mp-1202197,3.3127,1.56176783,0.10708228584999979,"{50: 1, 1: 14, 6: 4, 7: 2, 17: 4}","[1, 6, 7, 17, 50]",1146472174501,Sn1H14C4N2Cl4
SnH14C4(Br2N)2,mp-583589,2.2939999999999996,-1.15366157,0.12148879544999946,"{50: 1, 1: 14, 6: 4, 35: 4, 7: 2}","[1, 6, 7, 35, 50]",1146472354501,Sn1H14C4Br4N2
BiH14C4S8N5O,mp-1199579,2.8482000000000003,0.39924262,0.050927490332096426,"{83: 1, 1: 14, 6: 4, 16: 8, 7: 5, 8: 1}","[1, 6, 7, 8, 16, 83]",114647581168831,Bi1H14C4S8N5O1
ZnHg2H14C4N6O13,mp-540575,3.1841,-1.65283507,0.31497241037500334,"{30: 1, 80: 2, 1: 14, 6: 4, 7: 6, 8: 13}","[1, 6, 7, 8, 30, 80]",1146476813301802,Zn1Hg2H14C4N6O13
BiH14C4N8Cl5O2,mp-1204099,3.5429,3.04115378,0.0011653665563757798,"{83: 1, 1: 14, 6: 4, 7: 8, 17: 5, 8: 2}","[1, 6, 7, 8, 17, 83]",114647882175831,Bi1H14C4N8Cl5O2
SiH14C4S2(N4F3)2,mp-1209137,3.2855,2.63887936,0.035863081381580564,"{14: 1, 1: 14, 6: 4, 16: 2, 7: 8, 9: 6}","[1, 6, 7, 9, 14, 16]",114647896141162,Si1H14C4S2N8F6
H14C5(SN)2,mp-557333,2.6468,0.41833154,0.1021464359347819,"{1: 14, 6: 5, 16: 2, 7: 2}","[1, 6, 7, 16]",1146572162,H14C5S2N2
H14C5(NO)2,mp-556451,4.3708,-0.67154198,0.10428374902173854,"{1: 14, 6: 5, 7: 2, 8: 2}","[1, 6, 7, 8]",114657282,H14C5N2O2
CdH14C5(NCl)3,mp-1195040,3.9333,2.45996147,0.12242046201922463,"{48: 1, 1: 14, 6: 5, 7: 3, 17: 3}","[1, 6, 7, 17, 48]",1146573173481,Cd1H14C5N3Cl3
H14C5BrN3,mp-1203794,4.0874,2.68016841,0.11594154652174016,"{1: 14, 6: 5, 35: 1, 7: 3}","[1, 6, 7, 35]",1146573351,H14C5Br1N3
H14C5SN3ClO2,mp-1200704,2.8781,-1.27045253,0.18938863286538865,"{1: 14, 6: 5, 16: 1, 7: 3, 17: 1, 8: 2}","[1, 6, 7, 8, 16, 17]",114657382161171,H14C5S1N3Cl1O2
H14RhC6NClO4,mp-561074,1.7483999999999997,0.59239953,0.15133007032407164,"{1: 14, 45: 1, 6: 6, 7: 1, 17: 1, 8: 4}","[1, 6, 7, 8, 17, 45]",114667184171451,H14Rh1C6N1Cl1O4
SiH14C6(NO2)2,mp-1195368,5.2321,3.19488471,0.2492648687654313,"{14: 1, 1: 14, 6: 6, 7: 2, 8: 4}","[1, 6, 7, 8, 14]",114667284141,Si1H14C6N2O4
MoH14C6N2(O2F)2,mp-1200993,3.2580999999999998,-1.61519985,0.21330052048491055,"{42: 1, 1: 14, 6: 6, 7: 2, 8: 4, 9: 2}","[1, 6, 7, 8, 9, 42]",11466728492421,Mo1H14C6N2O4F2
UH14C6(NO2)6,mp-1217415,0.3539,-0.85436809,0.1712369104615732,"{92: 1, 1: 14, 6: 6, 7: 6, 8: 12}","[1, 6, 7, 8, 92]",1146676812921,U1H14C6N6O12
Na3CrH14(C3O8)2,mp-726543,3.2625,-1.43207602,0.09862550762499378,"{11: 3, 24: 1, 1: 14, 6: 6, 8: 16}","[1, 6, 8, 11, 24]",11466816113241,Na3Cr1H14C6O16
MnH14C8(NO3)2,mp-1198023,2.5846,2.29905692,0.14003230415322587,"{25: 1, 1: 14, 6: 8, 7: 2, 8: 6}","[1, 6, 7, 8, 25]",114687286251,Mn1H14C8N2O6
CdH14C8(NO3)2,mp-1204503,3.4366000000000003,2.12793009,0.15189885024193472,"{48: 1, 1: 14, 6: 8, 7: 2, 8: 6}","[1, 6, 7, 8, 48]",114687286481,Cd1H14C8N2O6
H14Pb6C8O13,mp-1197902,2.9109999999999996,4.12172882,0.0756382888414624,"{1: 14, 82: 6, 6: 8, 8: 13}","[1, 6, 8, 82]",11468813826,H14Pb6C8O13
CrP2H14C9O4,mp-1198661,3.1304000000000003,2.5123068,0.30137610765499634,"{24: 1, 15: 2, 1: 14, 6: 9, 8: 4}","[1, 6, 8, 15, 24]",1146984152241,Cr1P2H14C9O4
AgBHC12(NF2)9,mp-1215142,3.448,-0.55191821,0.15043143318452046,"{47: 1, 5: 1, 1: 1, 6: 12, 7: 9, 9: 18}","[1, 5, 6, 7, 9, 47]",115161279918471,Ag1B1H1C12N9F18
SiBHC3NCl2,mp-698440,0.7866,-0.11874464,0.9100825894159348,"{14: 1, 5: 1, 1: 1, 6: 3, 7: 1, 17: 2}","[1, 5, 6, 7, 14, 17]",11516371141172,Si1B1H1C3N1Cl2
CsBHC3OF9,mp-1199273,5.7833000000000006,-1.4914561,0.3750450075781284,"{55: 1, 5: 1, 1: 1, 6: 3, 8: 1, 9: 9}","[1, 5, 6, 8, 9, 55]",1151638199551,Cs1B1H1C3O1F9
B5H15C3N,mp-600191,4.1616,-1.00713796,0.17841786543981453,"{5: 5, 1: 15, 6: 3, 7: 1}","[1, 5, 6, 7]",115556371,B5H15C3N1
PH15C18INCl2,mp-601200,2.3111,-0.22703009,0.22330681216713533,"{15: 1, 1: 15, 6: 18, 53: 1, 7: 1, 17: 2}","[1, 6, 7, 15, 17, 53]",11561871151172531,P1H15C18I1N1Cl2
CoP3H15C3NO12,mp-1196080,0.8513000000000001,-0.00012883,0.18333101507589777,"{27: 1, 15: 3, 1: 15, 6: 3, 7: 1, 8: 12}","[1, 6, 7, 8, 15, 27]",1156371812153271,Co1P3H15C3N1O12
MnPH15C3N(ClO)3,mp-1200911,4.114,3.43537513,0.04727818362139846,"{25: 1, 15: 1, 1: 15, 6: 3, 7: 1, 17: 3, 8: 3}","[1, 6, 7, 8, 15, 17, 25]",115637183151173251,Mn1P1H15C3N1Cl3O3