formula,material_id,band_gap,efermi,energy_above_hull,comp_atoms,sorted_keys_comp_atoms,comp_number,new_formula
TiSiC7NCl3,mp-1179366,0.16570000000000001,-0.3072095,1.4815224819117736,"{22: 1, 14: 1, 6: 7, 7: 1, 17: 3}","[6, 7, 14, 17, 22]",6771141173221,Ti1Si1C7N1Cl3
TiC7(NO)12,mp-1201103,0.027200000000000113,-3.73614785,1.7367775394531257,"{22: 1, 6: 7, 7: 12, 8: 12}","[6, 7, 8, 22]",67712812221,Ti1C7N12O12
Lu4C7,mp-15178,0.0,4.00163089,0.0,"{71: 4, 6: 7}","[6, 71]",67714,Lu4C7
Lu5Re2C7,mp-1104880,0.0,5.41265141,0.0,"{71: 5, 75: 2, 6: 7}","[6, 71, 75]",67715752,Lu5Re2C7
Mo3C7Br3NCl3O7,mp-1181015,0.3186,-0.77088811,0.7432970199479172,"{42: 3, 6: 7, 35: 3, 7: 1, 17: 3, 8: 7}","[6, 7, 8, 17, 35, 42]",677187173353423,Mo3C7Br3N1Cl3O7
W3C7NCl6O7,mp-1179461,1.3245,-0.45206534,0.9083913351979165,"{74: 3, 6: 7, 7: 1, 17: 6, 8: 7}","[6, 7, 8, 17, 74]",677187176743,W3C7N1Cl6O7
C7SeNF5,mp-683911,3.0328,-0.69699928,0.3193870236272325,"{6: 7, 34: 1, 7: 1, 9: 5}","[6, 7, 9, 34]",677195341,C7Se1N1F5
CrC7N2O5,mp-565390,0.1382,0.2503386,1.0655116712083297,"{24: 1, 6: 7, 7: 2, 8: 5}","[6, 7, 8, 24]",677285241,Cr1C7N2O5
CdC7S3N4,mp-728419,0.0,-1.65399,1.0746429510238098,"{48: 1, 6: 7, 16: 3, 7: 4}","[6, 7, 16, 48]",6774163481,Cd1C7S3N4
C7I3N4,mp-729795,0.0,-0.56277477,0.7917277164285705,"{6: 7, 53: 3, 7: 4}","[6, 7, 53]",6774533,C7I3N4
K2C7N4O,mp-1212134,3.0065999999999997,2.38971328,0.22022081117062875,"{19: 2, 6: 7, 7: 4, 8: 1}","[6, 7, 8, 19]",677481192,K2C7N4O1
K5MoC7N7O,mp-1190879,0.8609,-0.01930223,0.3177789353538385,"{19: 5, 42: 1, 6: 7, 7: 7, 8: 1}","[6, 7, 8, 19, 42]",677781195421,K5Mo1C7N7O1
K3ZrC7O16,mp-1198105,1.0261,-0.75704115,0.4770246446527837,"{19: 3, 40: 1, 6: 7, 8: 16}","[6, 8, 19, 40]",67816193401,K3Zr1C7O16
K3SnC7O16,mp-1196323,0.07839999999999991,-0.57987419,0.4052697719675926,"{19: 3, 50: 1, 6: 7, 8: 16}","[6, 8, 19, 50]",67816193501,K3Sn1C7O16
Mn2C7S2O7,mp-630859,2.5791999999999997,-0.47458772,0.6060368525892894,"{25: 2, 6: 7, 16: 2, 8: 7}","[6, 8, 16, 25]",6787162252,Mn2C7S2O7
Co3C7S2O7,mp-707110,1.5411000000000001,-0.58558354,0.440895893075659,"{27: 3, 6: 7, 16: 2, 8: 7}","[6, 8, 16, 27]",6787162273,Co3C7S2O7
W2C7Br4O7,mp-650538,1.8225,-0.19647296,0.43374126314583705,"{74: 2, 6: 7, 35: 4, 8: 7}","[6, 8, 35, 74]",6787354742,W2C7Br4O7
Os2(CO)7,mp-28636,1.9918,-0.18934929,0.22508629164062555,"{76: 2, 6: 7, 8: 7}","[6, 8, 76]",6787762,Os2C7O7
C7F3,mp-645316,1.4237999999999997,0.9128728,0.25972570946250073,"{6: 7, 9: 3}","[6, 9]",6793,C7F3
Ti12AlSi3C8,mp-1197979,0.0,7.25703528,0.007103588333334798,"{22: 12, 13: 1, 14: 3, 6: 8}","[6, 13, 14, 22]",681311432212,Ti12Al1Si3C8
Al3(V3C2)4,mp-1214915,0.0,7.3558274,0.0,"{13: 3, 23: 12, 6: 8}","[6, 13, 23]",681332312,Al3V12C8
C8Cl5,mp-1214421,2.0397,1.0213429,0.13090027257211467,"{6: 8, 17: 5}","[6, 17]",68175,C8Cl5
La8C8Cl5,mp-568190,0.0,7.45071978,0.04125547999999668,"{57: 8, 6: 8, 17: 5}","[6, 17, 57]",68175578,La8C8Cl5
Ce8C8Cl5,mp-583042,0.0,7.18802413,0.0,"{58: 8, 6: 8, 17: 5}","[6, 17, 58]",68175588,Ce8C8Cl5
Pr8C8Cl5,mp-1196511,0.0,4.65003326,0.0,"{59: 8, 6: 8, 17: 5}","[6, 17, 59]",68175598,Pr8C8Cl5
KC8,mp-28930,0.0,4.35346854,0.0,"{19: 1, 6: 8}","[6, 19]",68191,K1C8
Ca11Sn3C8,mp-1198370,0.6589000000000005,3.89929658,0.0,"{20: 11, 50: 3, 6: 8}","[6, 20, 50]",682011503,Ca11Sn3C8
RbC8,mp-568643,0.0,4.13407378,0.0,"{37: 1, 6: 8}","[6, 37]",68371,Rb1C8
CsC8,mp-28861,0.0,4.31819688,0.0,"{55: 1, 6: 8}","[6, 55]",68551,Cs1C8
LaU3C8,mp-1222759,0.0,9.1104706,0.28687328333333184,"{57: 1, 92: 3, 6: 8}","[6, 57, 92]",68571923,La1U3C8
La3DyC8,mp-1223073,0.0,6.74675012,0.038674161638886595,"{57: 3, 66: 1, 6: 8}","[6, 57, 66]",68573661,La3Dy1C8
CeNd3C8,mp-1226600,0.0,5.11895084,0.032429723749999084,"{58: 1, 60: 3, 6: 8}","[6, 58, 60]",68581603,Ce1Nd3C8
Ce3NdC8,mp-1226856,0.0,6.3997309,0.052906155416664546,"{58: 3, 60: 1, 6: 8}","[6, 58, 60]",68583601,Ce3Nd1C8
Si9C8NO19,mp-1201218,0.0,-0.14597879,0.9344569992905392,"{14: 9, 6: 8, 7: 1, 8: 19}","[6, 7, 8, 14]",6871819149,Si9C8N1O19
CdGe4C8(S5N)2,mp-1190520,0.026699999999999946,1.47785803,1.1886646968071428,"{48: 1, 32: 4, 6: 8, 16: 10, 7: 2}","[6, 7, 16, 32, 48]",68721610324481,Cd1Ge4C8S10N2
Mo3C8S13N2,mp-1180280,0.16680000000000006,1.21405481,0.9148365661057642,"{42: 3, 6: 8, 16: 13, 7: 2}","[6, 7, 16, 42]",68721613423,Mo3C8S13N2
SnC8(S3N)2,mp-1179442,0.0,2.59996988,0.8309438728361327,"{50: 1, 6: 8, 16: 6, 7: 2}","[6, 7, 16, 50]",6872166501,Sn1C8S6N2
MnC8(NCl2)2,mp-1180720,0.05069999999999997,-2.12217467,1.685146870944445,"{25: 1, 6: 8, 7: 2, 17: 4}","[6, 7, 17, 25]",6872174251,Mn1C8N2Cl4
CoC8(NCl2)2,mp-1204050,0.19920000000000004,-1.87024022,1.4730295404444451,"{27: 1, 6: 8, 7: 2, 17: 4}","[6, 7, 17, 27]",6872174271,Co1C8N2Cl4
ZnC8(NCl2)2,mp-728136,0.7426000000000001,-1.7475989,1.2348244702777773,"{30: 1, 6: 8, 7: 2, 17: 4}","[6, 7, 17, 30]",6872174301,Zn1C8N2Cl4
HgC8(NCl2)2,mp-1202107,1.9370999999999998,-1.86277867,0.7854214191111124,"{80: 1, 6: 8, 7: 2, 17: 4}","[6, 7, 17, 80]",6872174801,Hg1C8N2Cl4
ZrC8(NCl3)2,mp-731917,0.0,0.06114911,1.5811836583333312,"{40: 1, 6: 8, 7: 2, 17: 6}","[6, 7, 17, 40]",6872176401,Zr1C8N2Cl6
PdC8(NCl3)2,mp-1180959,0.12770000000000015,1.46714353,1.496275682561273,"{46: 1, 6: 8, 7: 2, 17: 6}","[6, 7, 17, 46]",6872176461,Pd1C8N2Cl6
SnC8(NCl3)2,mp-1198081,0.6509,-0.06106435,2.2790046623774494,"{50: 1, 6: 8, 7: 2, 17: 6}","[6, 7, 17, 50]",6872176501,Sn1C8N2Cl6
PtC8(NCl3)2,mp-1189040,0.04469999999999996,0.9558086,2.34658961716299,"{78: 1, 6: 8, 7: 2, 17: 6}","[6, 7, 17, 78]",6872176781,Pt1C8N2Cl6
MnC8(Br2N)2,mp-1180463,0.0029999999999998916,-1.57829431,1.7115552157291658,"{25: 1, 6: 8, 35: 4, 7: 2}","[6, 7, 25, 35]",6872251354,Mn1C8Br4N2
Mo3C8Se13N2,mp-1180460,0.4103,0.83637774,0.7932691522536066,"{42: 3, 6: 8, 34: 13, 7: 2}","[6, 7, 34, 42]",68723413423,Mo3C8Se13N2
HgC8(I2N)2,mp-1204359,1.7803999999999998,-1.39917943,1.1422484983749994,"{80: 1, 6: 8, 53: 4, 7: 2}","[6, 7, 53, 80]",6872534801,Hg1C8I4N2
Sn5C8Se10N2O,mp-1179459,0.0,1.88903255,0.9022058976442295,"{50: 5, 6: 8, 34: 10, 7: 2, 8: 1}","[6, 7, 8, 34, 50]",6872813410505,Sn5C8Se10N2O1
Si6C8N2O19,mp-1204030,0.8808999999999999,-0.84150634,1.403123844892856,"{14: 6, 6: 8, 7: 2, 8: 19}","[6, 7, 8, 14]",6872819146,Si6C8N2O19
Si6C8N2Cl4O3,mp-728532,0.0,-2.79585216,1.105455668940885,"{14: 6, 6: 8, 7: 2, 17: 4, 8: 3}","[6, 7, 8, 14, 17]",687283146174,Si6C8N2Cl4O3
Mo2C8Br8N2O3,mp-1182454,0.48770000000000024,-2.59641695,1.4211206002038068,"{42: 2, 6: 8, 35: 8, 7: 2, 8: 3}","[6, 7, 8, 35, 42]",687283358422,Mo2C8Br8N2O3
Na2Nb2C8S4N3ClO19,mp-1223113,0.383,-0.87571696,0.6616647451625459,"{11: 2, 41: 2, 6: 8, 16: 4, 7: 3, 17: 1, 8: 19}","[6, 7, 8, 11, 16, 17, 41]",6873819112164171412,Na2Nb2C8S4N3Cl1O19
OsC8I4N3OF,mp-1180681,0.1366,-0.17134398,1.1097571860069433,"{76: 1, 6: 8, 53: 4, 7: 3, 8: 1, 9: 1}","[6, 7, 8, 9, 53, 76]",68738191534761,Os1C8I4N3O1F1
AgC8S4N4Cl,mp-1183010,0.0,-0.79988219,0.9134744278174605,"{47: 1, 6: 8, 16: 4, 7: 4, 17: 1}","[6, 7, 16, 17, 47]",6874164171471,Ag1C8S4N4Cl1
MoC8N4Cl7,mp-1197329,0.08450000000000002,-0.4971497,1.1353799522360823,"{42: 1, 6: 8, 7: 4, 17: 7}","[6, 7, 17, 42]",6874177421,Mo1C8N4Cl7
RhC8N4Cl7,mp-1179740,0.4453999999999999,-0.78353388,1.0876508649166672,"{45: 1, 6: 8, 7: 4, 17: 7}","[6, 7, 17, 45]",6874177451,Rh1C8N4Cl7
HoC8N4Cl7,mp-1181658,1.0403,-0.83523395,1.0820977596666665,"{67: 1, 6: 8, 7: 4, 17: 7}","[6, 7, 17, 67]",6874177671,Ho1C8N4Cl7
ErC8N4Cl7,mp-1203936,0.9905,-0.66423232,1.101008484166667,"{68: 1, 6: 8, 7: 4, 17: 7}","[6, 7, 17, 68]",6874177681,Er1C8N4Cl7
TmC8N4Cl7,mp-1201967,1.0143999999999997,-2.11052409,1.0824740464166656,"{69: 1, 6: 8, 7: 4, 17: 7}","[6, 7, 17, 69]",6874177691,Tm1C8N4Cl7
BiC8N4Cl7,mp-1182466,0.7131000000000001,-2.04856184,1.036460799416667,"{83: 1, 6: 8, 7: 4, 17: 7}","[6, 7, 17, 83]",6874177831,Bi1C8N4Cl7
C8I3N4,mp-727063,0.0,-0.29379994,1.2347939531666663,"{6: 8, 53: 3, 7: 4}","[6, 7, 53]",6874533,C8I3N4
CeC8N4(Cl2O3)2,mp-1191020,0.0,0.31458808,1.8594720907487918,"{58: 1, 6: 8, 7: 4, 17: 4, 8: 6}","[6, 7, 8, 17, 58]",687486174581,Ce1C8N4Cl4O6
U5Re3C8,mp-680561,0.0,10.71616156,0.0,"{92: 5, 75: 3, 6: 8}","[6, 75, 92]",68753925,U5Re3C8
Mg(C4N3)2,mp-1246252,2.9284,2.81179769,0.2721391688333341,"{12: 1, 6: 8, 7: 6}","[6, 7, 12]",6876121,Mg1C8N6
Cr3C8(NCl2)6,mp-1182750,0.0,-0.61290797,1.138499302241378,"{24: 3, 6: 8, 7: 6, 17: 12}","[6, 7, 17, 24]",68761712243,Cr3C8N6Cl12
Ca(C4N3)2,mp-1193904,3.0202,2.07719174,0.2598717828333328,"{20: 1, 6: 8, 7: 6}","[6, 7, 20]",6876201,Ca1C8N6
V(C4N3)2,mp-1247329,0.0,2.14209164,0.31994656033333513,"{23: 1, 6: 8, 7: 6}","[6, 7, 23]",6876231,V1C8N6
Cr(C4N3)2,mp-1247236,0.0,0.73902406,0.34072656033333537,"{24: 1, 6: 8, 7: 6}","[6, 7, 24]",6876241,Cr1C8N6
Mn(C4N3)2,mp-1245734,0.0,2.02500353,0.29943363333333295,"{25: 1, 6: 8, 7: 6}","[6, 7, 25]",6876251,Mn1C8N6
Co(C4N3)2,mp-1246539,0.5181,-0.33333926,0.3286915050000019,"{27: 1, 6: 8, 7: 6}","[6, 7, 27]",6876271,Co1C8N6
Zn(C4N3)2,mp-1245475,3.0359000000000003,2.7524649,0.32514789416666545,"{30: 1, 6: 8, 7: 6}","[6, 7, 30]",6876301,Zn1C8N6
Sr(C4N3)2,mp-1246489,3.2435,1.99177818,0.24681285849999846,"{38: 1, 6: 8, 7: 6}","[6, 7, 38]",6876381,Sr1C8N6
Ru(C4N3)2,mp-1246365,1.8155999999999999,2.03955551,0.2679888713333334,"{44: 1, 6: 8, 7: 6}","[6, 7, 44]",6876441,Ru1C8N6
Pd(C4N3)2,mp-1245403,1.4506999999999999,0.06108618,0.38031578911111197,"{46: 1, 6: 8, 7: 6}","[6, 7, 46]",6876461,Pd1C8N6
Cd(C4N3)2,mp-1245934,3.3710000000000004,2.57652489,0.29302056250000064,"{48: 1, 6: 8, 7: 6}","[6, 7, 48]",6876481,Cd1C8N6
In(C4N3)2,mp-1247257,0.0,1.35779297,0.3710701438055608,"{49: 1, 6: 8, 7: 6}","[6, 7, 49]",6876491,In1C8N6
Sn(C4N3)2,mp-1246898,3.1357,-0.70369525,0.3017850934444457,"{50: 1, 6: 8, 7: 6}","[6, 7, 50]",6876501,Sn1C8N6
Pt(C4N3)2,mp-1247310,2.3639,-0.77115195,0.3617588836666652,"{78: 1, 6: 8, 7: 6}","[6, 7, 78]",6876781,Pt1C8N6
Pb(C4N3)2,mp-1246920,3.3209,2.48480437,0.2941315554999999,"{82: 1, 6: 8, 7: 6}","[6, 7, 82]",6876821,Pb1C8N6
K5Nb(CN)8,mp-569711,1.7548000000000001,1.11730494,0.14335465561931748,"{19: 5, 41: 1, 6: 8, 7: 8}","[6, 7, 19, 41]",6878195411,K5Nb1C8N8
Tl4Mo(CN)8,mp-654165,2.1969,1.35673994,0.21504829495237843,"{81: 4, 42: 1, 6: 8, 7: 8}","[6, 7, 42, 81]",6878421814,Tl4Mo1C8N8
Cs5Ag4C8IN8,mp-683972,2.6729,-0.4790646,0.11498357301282258,"{55: 5, 47: 4, 6: 8, 53: 1, 7: 8}","[6, 7, 47, 53, 55]",6878474531555,Cs5Ag4C8I1N8
K2Hg3C8(NO)8,mp-561386,3.3100000000000005,-1.08821794,0.10399329331896734,"{19: 2, 80: 3, 6: 8, 7: 8, 8: 8}","[6, 7, 8, 19, 80]",687888192803,K2Hg3C8N8O8
Mn2NbC8(NO)8,mp-1196709,0.0,-1.05901354,1.5021884011607032,"{25: 2, 41: 1, 6: 8, 7: 8, 8: 8}","[6, 7, 8, 25, 41]",687888252411,Mn2Nb1C8N8O8
ZrCd(CO2)8,mp-728418,0.0,-3.48143795,0.2340360798878205,"{40: 1, 48: 1, 6: 8, 8: 16}","[6, 8, 40, 48]",68816401481,Zr1Cd1C8O16
Na4ZrC8O19,mp-1197594,0.0,-1.01615001,0.6792457133463552,"{11: 4, 40: 1, 6: 8, 8: 19}","[6, 8, 11, 40]",68819114401,Na4Zr1C8O19
Na4HfC8O19,mp-1211061,0.06820000000000004,-0.86492635,0.44498504514323134,"{11: 4, 72: 1, 6: 8, 8: 19}","[6, 8, 11, 72]",68819114721,Na4Hf1C8O19
K4Th(C2O5)4,mp-1197458,0.6105,-0.38804916,0.7328456404545474,"{19: 4, 90: 1, 6: 8, 8: 20}","[6, 8, 19, 90]",68820194901,K4Th1C8O20
K4ZrC8O21,mp-1213545,0.24360000000000004,-0.99366734,0.8495073679411798,"{19: 4, 40: 1, 6: 8, 8: 21}","[6, 8, 19, 40]",68821194401,K4Zr1C8O21
K4HfC8O21,mp-1204255,0.5168999999999999,-0.9475488,0.6486747805147051,"{19: 4, 72: 1, 6: 8, 8: 21}","[6, 8, 19, 72]",68821194721,K4Hf1C8O21
K4Ti2C8O23,mp-1181261,0.6403000000000001,-0.72702579,0.6362371136486384,"{19: 4, 22: 2, 6: 8, 8: 23}","[6, 8, 19, 22]",68823194222,K4Ti2C8O23
Na2ZrCd(CO3)8,mp-1212421,0.0,-1.09766017,0.8044357821527779,"{11: 2, 40: 1, 48: 1, 6: 8, 8: 24}","[6, 8, 11, 40, 48]",68824112401481,Na2Zr1Cd1C8O24
C8Cl4O3,mp-1214363,2.4919000000000002,-0.48236289,0.12908552816666763,"{6: 8, 17: 4, 8: 3}","[6, 8, 17]",6883174,C8Cl4O3
TeC8(OF3)4,mp-556053,3.5635,-0.90614497,0.3318998873999961,"{52: 1, 6: 8, 8: 4, 9: 12}","[6, 8, 9, 52]",6884912521,Te1C8O4F12
AlC8BrO5,mp-1196181,0.0,-1.27124682,0.663659691416667,"{13: 1, 6: 8, 35: 1, 8: 5}","[6, 8, 13, 35]",6885131351,Al1C8Br1O5
Os3C8SO8,mp-648289,1.7639,1.63331257,0.19503320887500308,"{76: 3, 6: 8, 16: 1, 8: 8}","[6, 8, 16, 76]",6888161763,Os3C8S1O8
Os3C8(SO4)2,mp-679948,2.7668,1.6756497,0.16119192541666827,"{76: 3, 6: 8, 16: 2, 8: 8}","[6, 8, 16, 76]",6888162763,Os3C8S2O8
Co2SnC8(ClO4)2,mp-653922,2.3373,-1.30788243,0.3457895763095191,"{27: 2, 50: 1, 6: 8, 17: 2, 8: 8}","[6, 8, 17, 27, 50]",6888172272501,Co2Sn1C8Cl2O8
CsRu2C8(ClO4)2,mp-1198675,0.0,-0.6639658,1.2126561340079354,"{55: 1, 44: 2, 6: 8, 17: 2, 8: 8}","[6, 8, 17, 44, 55]",6888172442551,Cs1Ru2C8Cl2O8
GeOs2C8(ClO2)4,mp-648843,2.9678,1.57267287,0.1584732660144894,"{32: 1, 76: 2, 6: 8, 17: 4, 8: 8}","[6, 8, 17, 32, 76]",6888174321762,Ge1Os2C8Cl4O8
Co2SnC8SeO8,mp-1199318,1.81,-0.57686693,0.38590755421874867,"{27: 2, 50: 1, 6: 8, 34: 1, 8: 8}","[6, 8, 27, 34, 50]",6888272341501,Co2Sn1C8Se1O8
Co2Hg(CO)8,mp-1203471,2.9240000000000004,-1.47459369,0.3698826623684113,"{27: 2, 80: 1, 6: 8, 8: 8}","[6, 8, 27, 80]",6888272801,Co2Hg1C8O8
Ir3(CO)8,mp-667545,2.4415,2.42838396,0.20269902894736802,"{77: 3, 6: 8, 8: 8}","[6, 8, 77]",6888773,Ir3C8O8
CoC8(SF3)4,mp-1195784,0.8569,0.59391513,0.2101314167785704,"{27: 1, 6: 8, 16: 4, 9: 12}","[6, 9, 16, 27]",68912164271,Co1C8S4F12
PtC8(SF3)4,mp-1200138,1.047,-0.15077798,0.13618580291428373,"{78: 1, 6: 8, 16: 4, 9: 12}","[6, 9, 16, 78]",68912164781,Pt1C8S4F12
C8Cl3F2,mp-1214185,2.1547,3.45039746,0.16749841877403693,"{6: 8, 17: 3, 9: 2}","[6, 9, 17]",6892173,C8Cl3F2
C9Cl,mp-1196206,1.3897,1.87241299,0.23395824271874943,"{6: 9, 17: 1}","[6, 17]",69171,C9Cl1
Zr10C9,mp-684623,0.0,5.18821097,0.0,"{40: 10, 6: 9}","[6, 40]",694010,Zr10C9
La7Os4C9,mp-570292,0.0,8.02652716,0.0,"{57: 7, 76: 4, 6: 9}","[6, 57, 76]",69577764,La7Os4C9
AgWC9S4N3,mp-1201087,0.3596,-0.29362898,0.9942537089732131,"{47: 1, 74: 1, 6: 9, 16: 4, 7: 3}","[6, 7, 16, 47, 74]",6973164471741,Ag1W1C9S4N3
PdC9N3Cl5,mp-1180428,0.6641999999999999,-1.59749977,1.1435155959722207,"{46: 1, 6: 9, 7: 3, 17: 5}","[6, 7, 17, 46]",6973175461,Pd1C9N3Cl5
Sb2C9(NCl3)3,mp-1199592,0.04160000000000008,-2.00329866,0.9598739913664645,"{51: 2, 6: 9, 7: 3, 17: 9}","[6, 7, 17, 51]",6973179512,Sb2C9N3Cl9
Cd2C9Br7N3,mp-1199939,0.0,-0.46265806,1.4630333581026793,"{48: 2, 6: 9, 35: 7, 7: 3}","[6, 7, 35, 48]",6973357482,Cd2C9Br7N3
Os3C9SO13,mp-733755,0.4398,-0.13920399,0.31921310456730545,"{76: 3, 6: 9, 16: 1, 8: 13}","[6, 8, 16, 76]",69813161763,Os3C9S1O13
Re2C9S3O8,mp-680277,2.2827,-0.43097773,0.25278288235795365,"{75: 2, 6: 9, 16: 3, 8: 8}","[6, 8, 16, 75]",6988163752,Re2C9S3O8
Co3C9SO9,mp-704489,1.0603,0.06423821,0.4482812714417612,"{27: 3, 6: 9, 16: 1, 8: 9}","[6, 8, 16, 27]",6989161273,Co3C9S1O9
Os3C9SO9,mp-1204647,0.10660000000000001,0.18962808,0.22964542130681842,"{76: 3, 6: 9, 16: 1, 8: 9}","[6, 8, 16, 76]",6989161763,Os3C9S1O9
Os3C9S2O9,mp-608431,2.5069,-0.26692427,0.14516534266304504,"{76: 3, 6: 9, 16: 2, 8: 9}","[6, 8, 16, 76]",6989162763,Os3C9S2O9
Mn2SnC9ClO9,mp-699647,2.7555,-0.10549404,0.6030796635227142,"{25: 2, 50: 1, 6: 9, 17: 1, 8: 9}","[6, 8, 17, 25, 50]",6989171252501,Mn2Sn1C9Cl1O9
Mn2SnC9BrO9,mp-704550,2.198,-0.71642066,0.618003598863627,"{25: 2, 50: 1, 6: 9, 35: 1, 8: 9}","[6, 8, 25, 35, 50]",6989252351501,Mn2Sn1C9Br1O9
Mn2In(CO)9,mp-643670,2.4416,0.32398711,0.6601739145535692,"{25: 2, 49: 1, 6: 9, 8: 9}","[6, 8, 25, 49]",6989252491,Mn2In1C9O9
Co3C9SeO9,mp-745113,1.0421,0.5530787,0.42177121099431325,"{27: 3, 6: 9, 34: 1, 8: 9}","[6, 8, 27, 34]",6989273341,Co3C9Se1O9
Co3Bi(CO)9,mp-562048,2.2249,-1.08336298,0.40639826589015104,"{27: 3, 83: 1, 6: 9, 8: 9}","[6, 8, 27, 83]",6989273831,Co3Bi1C9O9
GaRe2(CO)9,mp-650814,2.8405,0.08438693,0.295864077053567,"{31: 1, 75: 2, 6: 9, 8: 9}","[6, 8, 31, 75]",6989311752,Ga1Re2C9O9
Ru3C9Se2O9,mp-1203202,2.2011000000000003,-0.58082882,0.15427037603260807,"{44: 3, 6: 9, 34: 2, 8: 9}","[6, 8, 34, 44]",6989342443,Ru3C9Se2O9
Os3C9Se2O9,mp-649754,2.3869000000000002,-0.37871186,0.12886376864130433,"{76: 3, 6: 9, 34: 2, 8: 9}","[6, 8, 34, 76]",6989342763,Os3C9Se2O9
BiRu3(CO)9,mp-1214383,0.34550000000000003,-0.06667681,0.3553735524715913,"{83: 1, 44: 3, 6: 9, 8: 9}","[6, 8, 44, 83]",6989443831,Bi1Ru3C9O9
Bi2Ru3(CO)9,mp-652711,2.1361,0.02702965,0.21322050336956444,"{83: 2, 44: 3, 6: 9, 8: 9}","[6, 8, 44, 83]",6989443832,Bi2Ru3C9O9
InRe2(CO)9,mp-1196269,1.9165999999999999,0.50449334,0.26175281395832783,"{49: 1, 75: 2, 6: 9, 8: 9}","[6, 8, 49, 75]",6989491752,In1Re2C9O9
TeOs3(CO)9,mp-733538,0.9063,-0.47300477,0.2582219835227306,"{52: 1, 76: 3, 6: 9, 8: 9}","[6, 8, 52, 76]",6989521763,Te1Os3C9O9
Os2Pt(CO)9,mp-650695,2.2001,-0.29856761,0.22044372845238058,"{76: 2, 78: 1, 6: 9, 8: 9}","[6, 8, 76, 78]",6989762781,Os2Pt1C9O9
BiOs3(CO)9,mp-1237295,0.1279,-0.13015696,0.31589019065341084,"{83: 1, 76: 3, 6: 9, 8: 9}","[6, 8, 76, 83]",6989763831,Bi1Os3C9O9
BiIr3(CO)9,mp-647708,2.5458,-0.08562766,0.21838879656249865,"{83: 1, 77: 3, 6: 9, 8: 9}","[6, 8, 77, 83]",6989773831,Bi1Ir3C9O9
C9F5,mp-1199402,1.4988,0.99047441,0.22119529096726165,"{6: 9, 9: 5}","[6, 9]",6995,C9F5