formula,material_id,band_gap,efermi,energy_above_hull,comp_atoms,sorted_keys_comp_atoms,comp_number,new_formula
La5C2Cl9,mp-619791,1.6330999999999998,5.54928545,0.0,"{57: 5, 6: 2, 17: 9}","[6, 17, 57]",62179575,La5C2Cl9
Ce5C2Cl9,mp-657985,0.08760000000000012,5.66134705,0.021058181145818367,"{58: 5, 6: 2, 17: 9}","[6, 17, 58]",62179585,Ce5C2Cl9
Pr5C2Cl9,mp-567555,1.6350000000000002,3.73213695,0.0031210814285707045,"{59: 5, 6: 2, 17: 9}","[6, 17, 59]",62179595,Pr5C2Cl9
Gd5C2Cl9,mp-1199531,0.5501999999999998,2.02551094,0.0,"{64: 5, 6: 2, 17: 9}","[6, 17, 64]",62179645,Gd5C2Cl9
Cr(C7O2)3,mp-1198466,0.6001000000000001,-1.18501068,1.2104215837276753,"{24: 1, 6: 21, 8: 6}","[6, 8, 24]",62186241,Cr1C21O6
KC2,mp-2285616,0.0,-2.36165142,1.3131485948541677,"{19: 1, 6: 2}","[6, 19]",62191,K1C2
KAgC2,mp-10102,2.4768999999999997,-1.26616299,0.37895314360937427,"{19: 1, 47: 1, 6: 2}","[6, 19, 47]",62191471,K1Ag1C2
CsKC2,mp-1189043,3.4730999999999996,3.64893266,0.32113045262715456,"{55: 1, 19: 1, 6: 2}","[6, 19, 55]",62191551,Cs1K1C2
KAuC2,mp-10423,2.0249,-0.56845792,0.3357716156822903,"{19: 1, 79: 1, 6: 2}","[6, 19, 79]",62191791,K1Au1C2
KHgC2,mp-567381,0.0,-0.2793112,0.35625664125000167,"{19: 1, 80: 1, 6: 2}","[6, 19, 80]",62191801,K1Hg1C2
K2PdC2,mp-1068977,1.4304000000000001,0.40715556,0.02782118746250095,"{19: 2, 46: 1, 6: 2}","[6, 19, 46]",62192461,K2Pd1C2
K2PtC2,mp-976876,0.9937999999999998,1.18412465,0.0,"{19: 2, 78: 1, 6: 2}","[6, 19, 78]",62192781,K2Pt1C2
CaC2,mp-917,2.3396,0.80555092,0.014441561666666658,"{20: 1, 6: 2}","[6, 20]",62201,Ca1C2
ScC2,mp-1219333,0.0,8.35394505,0.5693214522222245,"{21: 1, 6: 2}","[6, 21]",62211,Sc1C2
ScCrC2,mp-4992,0.0,7.4639045,0.0,"{21: 1, 24: 1, 6: 2}","[6, 21, 24]",62211241,Sc1Cr1C2
ScCoC2,mp-615314,0.0,6.4122506,0.0,"{21: 1, 27: 1, 6: 2}","[6, 21, 27]",62211271,Sc1Co1C2
Sc6C2I11,mp-541102,0.3740999999999999,3.2922083,0.0,"{21: 6, 6: 2, 53: 11}","[6, 21, 53]",622165311,Sc6C2I11
TiC2,mp-1217054,0.0,6.34640605,0.7268282408333313,"{22: 1, 6: 2}","[6, 22]",62221,Ti1C2
TiVC2,mp-1216691,0.0,7.86093999,0.031365983715277324,"{22: 1, 23: 1, 6: 2}","[6, 22, 23]",62221231,Ti1V1C2
ZrTiC2,mp-1215182,0.0,6.66313005,0.06348851749999973,"{40: 1, 22: 1, 6: 2}","[6, 22, 40]",62221401,Zr1Ti1C2
TiNbC2,mp-1216707,0.0,7.45965931,0.0,"{22: 1, 41: 1, 6: 2}","[6, 22, 41]",62221411,Ti1Nb1C2
TiMoC2,mp-1216711,0.0,8.667535,0.047972206562501896,"{22: 1, 42: 1, 6: 2}","[6, 22, 42]",62221421,Ti1Mo1C2
HfTiC2,mp-1224274,0.0,7.01621996,0.04542485750000047,"{72: 1, 22: 1, 6: 2}","[6, 22, 72]",62221721,Hf1Ti1C2
TaTiC2,mp-1217904,0.0,7.92361173,0.0,"{73: 1, 22: 1, 6: 2}","[6, 22, 73]",62221731,Ta1Ti1C2
TiWC2,mp-1216690,0.0,8.38103556,0.06950497500000097,"{22: 1, 74: 1, 6: 2}","[6, 22, 74]",62221741,Ti1W1C2
Ti3C2,mp-1094034,0.0,6.59587989,0.04971524400000149,"{22: 3, 6: 2}","[6, 22]",62223,Ti3C2
Ti3GeC2,mp-1095505,0.0,7.60476869,0.0,"{22: 3, 32: 1, 6: 2}","[6, 22, 32]",62223321,Ti3Ge1C2
Ti3SnC2,mp-21023,0.0,8.41313464,0.0,"{22: 3, 50: 1, 6: 2}","[6, 22, 50]",62223501,Ti3Sn1C2
VCrC2,mp-1216383,0.0,8.32429878,0.18767970246527987,"{23: 1, 24: 1, 6: 2}","[6, 23, 24]",62231241,V1Cr1C2
V(CrC)2,mp-4253,0.0,8.03682169,0.08296427584723354,"{23: 1, 24: 2, 6: 2}","[6, 23, 24]",62231242,V1Cr2C2
NbVC2,mp-1220365,0.0,7.41229839,0.11373223715277803,"{41: 1, 23: 1, 6: 2}","[6, 23, 41]",62231411,Nb1V1C2
TaVC2,mp-1217822,0.0,7.82960058,0.0749181112152808,"{73: 1, 23: 1, 6: 2}","[6, 23, 73]",62231731,Ta1V1C2
Ta2VC2,mp-1217976,0.0,7.09089836,0.055100831555554564,"{73: 2, 23: 1, 6: 2}","[6, 23, 73]",62231732,Ta2V1C2
VWC2,mp-1216248,0.0,8.58164706,0.22475890871528037,"{23: 1, 74: 1, 6: 2}","[6, 23, 74]",62231741,V1W1C2
UVC2,mp-7810,0.0,9.9491543,0.0,"{92: 1, 23: 1, 6: 2}","[6, 23, 92]",62231921,U1V1C2
V3C2,mp-1216509,0.0,6.88963797,0.14251277270833285,"{23: 3, 6: 2}","[6, 23]",62233,V3C2
Ta6V3Co3C2,mp-1218094,0.0,6.09503254,0.0,"{73: 6, 23: 3, 27: 3, 6: 2}","[6, 23, 27, 73]",62233273736,Ta6V3Co3C2
UCrC2,mp-1190293,0.0,10.38573893,0.0,"{92: 1, 24: 1, 6: 2}","[6, 24, 92]",62241921,U1Cr1C2
Cr3C2,mp-20937,0.0,8.30546813,0.0,"{24: 3, 6: 2}","[6, 24]",62243,Cr3C2
Ta6Cr3Co3C2,mp-1218084,0.0,6.28015862,0.021652277619049087,"{73: 6, 24: 3, 27: 3, 6: 2}","[6, 24, 27, 73]",62243273736,Ta6Cr3Co3C2
Cr3Ru3C2,mp-1226231,0.0,7.7086216,0.11708212656250083,"{24: 3, 44: 3, 6: 2}","[6, 24, 44]",62243443,Cr3Ru3C2
La2Mn17C2,mp-1223491,0.0,6.77071541,0.04327638135103129,"{57: 2, 25: 17, 6: 2}","[6, 25, 57]",622517572,La2Mn17C2
Ce2Mn17C2,mp-1227057,0.0,6.76655527,0.0,"{58: 2, 25: 17, 6: 2}","[6, 25, 58]",622517582,Ce2Mn17C2
Pr2Mn17C2,mp-1220018,0.0,5.62487424,0.03207931012588716,"{59: 2, 25: 17, 6: 2}","[6, 25, 59]",622517592,Pr2Mn17C2
Nd2Mn17C2,mp-1220651,0.0,5.64528845,0.021338115688559256,"{60: 2, 25: 17, 6: 2}","[6, 25, 60]",622517602,Nd2Mn17C2
Sm2Mn17C2,mp-1219352,0.0,5.62182819,0.004836940942526624,"{62: 2, 25: 17, 6: 2}","[6, 25, 62]",622517622,Sm2Mn17C2
Th2Mn17C2,mp-1217454,0.0,6.67282404,0.0,"{90: 2, 25: 17, 6: 2}","[6, 25, 90]",622517902,Th2Mn17C2
UMnC2,mp-1207882,0.0,10.27932128,0.0,"{92: 1, 25: 1, 6: 2}","[6, 25, 92]",62251921,U1Mn1C2
Mn5C2,mp-22749,0.0,7.53468823,0.01772275065217066,"{25: 5, 6: 2}","[6, 25]",62255,Mn5C2
Mn6ZnGaC2,mp-1221882,0.0,1.99143048,2.0539219205091976,"{25: 6, 30: 1, 31: 1, 6: 2}","[6, 25, 30, 31]",62256301311,Mn6Zn1Ga1C2
Mn6ZnSnC2,mp-1222042,0.0,2.10562154,2.237262619433108,"{25: 6, 30: 1, 50: 1, 6: 2}","[6, 25, 30, 50]",62256301501,Mn6Zn1Sn1C2
LaCoC2,mp-1078624,0.04219999999999935,8.42327351,0.0,"{57: 1, 27: 1, 6: 2}","[6, 27, 57]",62271571,La1Co1C2
CeCoC2,mp-20753,0.0,8.24416339,0.0,"{58: 1, 27: 1, 6: 2}","[6, 27, 58]",62271581,Ce1Co1C2
PrCoC2,mp-567341,0.0,5.54322569,0.0,"{59: 1, 27: 1, 6: 2}","[6, 27, 59]",62271591,Pr1Co1C2
NdCoC2,mp-8761,0.0,5.49027289,0.0,"{60: 1, 27: 1, 6: 2}","[6, 27, 60]",62271601,Nd1Co1C2
SmCoC2,mp-1079121,0.0,5.31951122,0.0,"{62: 1, 27: 1, 6: 2}","[6, 27, 62]",62271621,Sm1Co1C2
GdCoC2,mp-1018146,0.0,5.19123605,0.0,"{64: 1, 27: 1, 6: 2}","[6, 27, 64]",62271641,Gd1Co1C2
TbCoC2,mp-5106,0.0,5.5804848,0.0,"{65: 1, 27: 1, 6: 2}","[6, 27, 65]",62271651,Tb1Co1C2
DyCoC2,mp-3847,0.0,5.51978552,0.0,"{66: 1, 27: 1, 6: 2}","[6, 27, 66]",62271661,Dy1Co1C2
HoCoC2,mp-9241,0.0,5.46054627,0.0,"{67: 1, 27: 1, 6: 2}","[6, 27, 67]",62271671,Ho1Co1C2
ErCoC2,mp-13501,0.0,5.49203116,0.0,"{68: 1, 27: 1, 6: 2}","[6, 27, 68]",62271681,Er1Co1C2
TmCoC2,mp-13502,0.0,5.47271522,0.0,"{69: 1, 27: 1, 6: 2}","[6, 27, 69]",62271691,Tm1Co1C2
LuCoC2,mp-1001614,0.0,5.51971252,0.0,"{71: 1, 27: 1, 6: 2}","[6, 27, 71]",62271711,Lu1Co1C2
ThCoC2,mp-999088,0.0,8.11906491,0.0,"{90: 1, 27: 1, 6: 2}","[6, 27, 90]",62271901,Th1Co1C2
UCoC2,mp-1079701,0.0,10.83917766,0.0,"{92: 1, 27: 1, 6: 2}","[6, 27, 92]",62271921,U1Co1C2
PuCoC2,mp-999290,0.0,9.73248444,0.0,"{94: 1, 27: 1, 6: 2}","[6, 27, 94]",62271941,Pu1Co1C2
ZnC2,mp-1207473,2.7077999999999998,1.41069851,1.1256620624999991,"{30: 1, 6: 2}","[6, 30]",62301,Zn1C2
Ce3C2Br3,mp-1215059,0.0,5.8369529,0.0,"{58: 3, 6: 2, 35: 3}","[6, 35, 58]",62353583,Ce3C2Br3
Tb4C2Br3,mp-1208505,0.0,4.29224802,0.0,"{65: 4, 6: 2, 35: 3}","[6, 35, 65]",62353654,Tb4C2Br3
La4C2Br5,mp-569873,0.0,5.70624051,0.0,"{57: 4, 6: 2, 35: 5}","[6, 35, 57]",62355574,La4C2Br5
Ce4C2Br5,mp-574262,0.0,5.7137012,0.02137486411363465,"{58: 4, 6: 2, 35: 5}","[6, 35, 58]",62355584,Ce4C2Br5
Pr4C2Br5,mp-1220591,0.0,4.18823554,0.0,"{59: 4, 6: 2, 35: 5}","[6, 35, 59]",62355594,Pr4C2Br5
Pr5(CBr4)2,mp-571575,0.6061000000000001,2.68151144,0.0,"{59: 5, 6: 2, 35: 8}","[6, 35, 59]",62358595,Pr5C2Br8
La5C2Br9,mp-29070,1.7523999999999997,4.21610175,0.0,"{57: 5, 6: 2, 35: 9}","[6, 35, 57]",62359575,La5C2Br9
Ce5C2Br9,mp-623670,0.0,4.74974184,0.02457740023437438,"{58: 5, 6: 2, 35: 9}","[6, 35, 58]",62359585,Ce5C2Br9
Pr5C2Br9,mp-29416,1.4388999999999998,2.34197295,0.011060888102673694,"{59: 5, 6: 2, 35: 9}","[6, 35, 59]",62359595,Pr5C2Br9
Tb5C2Br9,mp-30229,0.6579000000000002,1.59541676,0.0,"{65: 5, 6: 2, 35: 9}","[6, 35, 65]",62359655,Tb5C2Br9
Dy5C2Br9,mp-567407,0.7994000000000001,1.63341817,0.0,"{66: 5, 6: 2, 35: 9}","[6, 35, 66]",62359665,Dy5C2Br9
Er5C2Br9,mp-29401,1.7638000000000003,1.65937588,0.0,"{68: 5, 6: 2, 35: 9}","[6, 35, 68]",62359685,Er5C2Br9
RbC2,mp-1077369,0.03699999999999992,-2.38576851,1.3277282393750003,"{37: 1, 6: 2}","[6, 37]",62371,Rb1C2
RbAgC2,mp-1207136,2.6814,-1.29057665,0.3864455853645845,"{37: 1, 47: 1, 6: 2}","[6, 37, 47]",62371471,Rb1Ag1C2
RbPr6(CI6)2,mp-567940,0.16620000000000035,2.9999315,0.0,"{37: 1, 59: 6, 6: 2, 53: 12}","[6, 37, 53, 59]",623715312596,Rb1Pr6C2I12
CsRbC2,mp-1191554,3.3415999999999997,0.2082792,0.34906494943965427,"{55: 1, 37: 1, 6: 2}","[6, 37, 55]",62371551,Cs1Rb1C2
RbAuC2,mp-10421,2.1955999999999998,-0.63355496,0.3262020140625008,"{37: 1, 79: 1, 6: 2}","[6, 37, 79]",62371791,Rb1Au1C2
Rb2PdC2,mp-10918,1.5802,0.68622944,0.05310481912500098,"{37: 2, 46: 1, 6: 2}","[6, 37, 46]",62372461,Rb2Pd1C2
Rb2PtC2,mp-10919,1.1361999999999999,1.2735678,0.0,"{37: 2, 78: 1, 6: 2}","[6, 37, 78]",62372781,Rb2Pt1C2
SrC2,mp-10497,2.2919,0.30261601,0.05353003777777854,"{38: 1, 6: 2}","[6, 38]",62381,Sr1C2
Os10C23S2O23,mp-649186,1.1232,0.19418454,0.39073276868534457,"{76: 10, 6: 23, 16: 2, 8: 23}","[6, 8, 16, 76]",6238231627610,Os10C23S2O23
ZrNbC2,mp-1215222,0.0,6.55646779,0.0,"{40: 1, 41: 1, 6: 2}","[6, 40, 41]",62401411,Zr1Nb1C2
ZrMoC2,mp-1215218,0.0,7.6852081,0.09357743406249952,"{40: 1, 42: 1, 6: 2}","[6, 40, 42]",62401421,Zr1Mo1C2
HfZrC2,mp-1224170,0.0,5.69140449,0.003474472500000658,"{72: 1, 40: 1, 6: 2}","[6, 40, 72]",62401721,Hf1Zr1C2
ZrTaC2,mp-1215219,0.0,7.00926103,0.0,"{40: 1, 73: 1, 6: 2}","[6, 40, 73]",62401731,Zr1Ta1C2
ZrWC2,mp-1215167,0.0,7.43461614,0.10734300750000081,"{40: 1, 74: 1, 6: 2}","[6, 40, 74]",62401741,Zr1W1C2
ZrUC2,mp-1215195,0.0,8.45572041,0.0,"{40: 1, 92: 1, 6: 2}","[6, 40, 92]",62401921,Zr1U1C2
NbMoC2,mp-1220406,0.0,8.46142173,0.1724612900000011,"{41: 1, 42: 1, 6: 2}","[6, 41, 42]",62411421,Nb1Mo1C2
HfNbC2,mp-1224334,0.0,6.85592642,0.0,"{72: 1, 41: 1, 6: 2}","[6, 41, 72]",62411721,Hf1Nb1C2
TaNbC2,mp-1217924,0.0,7.55253092,0.0170514709375027,"{73: 1, 41: 1, 6: 2}","[6, 41, 73]",62411731,Ta1Nb1C2
UNbC2,mp-1216653,0.0,9.54651312,0.0,"{92: 1, 41: 1, 6: 2}","[6, 41, 92]",62411921,U1Nb1C2
Pr2MoC2,mp-31258,0.0,5.50764881,0.0,"{59: 2, 42: 1, 6: 2}","[6, 42, 59]",62421592,Pr2Mo1C2
Nd2MoC2,mp-603912,0.0,5.41622453,0.0,"{60: 2, 42: 1, 6: 2}","[6, 42, 60]",62421602,Nd2Mo1C2
GdMoC2,mp-1106263,0.0,5.7408069,0.056556943437499285,"{64: 1, 42: 1, 6: 2}","[6, 42, 64]",62421641,Gd1Mo1C2
TbMoC2,mp-1188505,0.0,6.44001665,0.05844308718749858,"{65: 1, 42: 1, 6: 2}","[6, 42, 65]",62421651,Tb1Mo1C2
DyMoC2,mp-1189253,0.0,6.42899801,0.056596125937501185,"{66: 1, 42: 1, 6: 2}","[6, 42, 66]",62421661,Dy1Mo1C2
HoMoC2,mp-1188132,0.0,6.39446333,0.05576534093749963,"{67: 1, 42: 1, 6: 2}","[6, 42, 67]",62421671,Ho1Mo1C2
ErMoC2,mp-1188769,0.0,6.42313209,0.05533133843750093,"{68: 1, 42: 1, 6: 2}","[6, 42, 68]",62421681,Er1Mo1C2
TmMoC2,mp-1190031,0.0,6.40233381,0.05479747843749827,"{69: 1, 42: 1, 6: 2}","[6, 42, 69]",62421691,Tm1Mo1C2
HfMoC2,mp-1224308,0.0,7.69408975,0.16478402406250225,"{72: 1, 42: 1, 6: 2}","[6, 42, 72]",62421721,Hf1Mo1C2
TaMoC2,mp-1217919,0.0,8.86325737,0.14963882656249972,"{73: 1, 42: 1, 6: 2}","[6, 42, 73]",62421731,Ta1Mo1C2
MoWC2,mp-1221393,0.0,8.61663343,0.0008007765625013263,"{42: 1, 74: 1, 6: 2}","[6, 42, 74]",62421741,Mo1W1C2
ReMoC2,mp-1219523,0.0,9.57019404,0.6212460537500011,"{75: 1, 42: 1, 6: 2}","[6, 42, 75]",62421751,Re1Mo1C2
UMoC2,mp-3991,0.0,10.59648973,0.0,"{92: 1, 42: 1, 6: 2}","[6, 42, 92]",62421921,U1Mo1C2
PuMoC2,mp-1209553,0.0,10.57747824,0.0,"{94: 1, 42: 1, 6: 2}","[6, 42, 94]",62421941,Pu1Mo1C2
Mo3C2,mp-1221473,0.0,8.9628742,0.13346324724999903,"{42: 3, 6: 2}","[6, 42]",62423,Mo3C2
Mo3Ru3C2,mp-1221490,0.0,8.44179399,0.2358105809375015,"{42: 3, 44: 3, 6: 2}","[6, 42, 44]",62423443,Mo3Ru3C2
Mo3Os3C2,mp-1221496,0.0,8.7234842,0.24041282453124957,"{42: 3, 76: 3, 6: 2}","[6, 42, 76]",62423763,Mo3Os3C2
UTcC2,mp-1188570,0.0,10.95250332,0.0,"{92: 1, 43: 1, 6: 2}","[6, 43, 92]",62431921,U1Tc1C2
GdRuC2,mp-582826,0.0,5.7499805,0.0,"{64: 1, 44: 1, 6: 2}","[6, 44, 64]",62441641,Gd1Ru1C2
URuC2,mp-1207917,0.0,10.77101208,0.13436930662499869,"{92: 1, 44: 1, 6: 2}","[6, 44, 92]",62441921,U1Ru1C2
U2RuC2,mp-1069160,0.0,10.74470883,0.0,"{92: 2, 44: 1, 6: 2}","[6, 44, 92]",62441922,U2Ru1C2
Ru3W3C2,mp-1219510,0.0,7.74678216,0.5565246712500009,"{44: 3, 74: 3, 6: 2}","[6, 44, 74]",62443743,Ru3W3C2
LaRhC2,mp-3380,0.0,8.11922664,0.039483034999999944,"{57: 1, 45: 1, 6: 2}","[6, 45, 57]",62451571,La1Rh1C2
CeRhC2,mp-637637,0.0,7.96614166,0.11972936124999833,"{58: 1, 45: 1, 6: 2}","[6, 45, 58]",62451581,Ce1Rh1C2
PrRhC2,mp-999287,0.0,5.58686792,0.06669376624999845,"{59: 1, 45: 1, 6: 2}","[6, 45, 59]",62451591,Pr1Rh1C2
NdRhC2,mp-8540,0.0,5.68721826,0.06665758499999974,"{60: 1, 45: 1, 6: 2}","[6, 45, 60]",62451601,Nd1Rh1C2
SmRhC2,mp-8758,0.0,5.54913161,0.07116301124999858,"{62: 1, 45: 1, 6: 2}","[6, 45, 62]",62451621,Sm1Rh1C2
U2RhC2,mp-1069790,0.0,10.59878389,0.0,"{92: 2, 45: 1, 6: 2}","[6, 45, 92]",62451922,U2Rh1C2
Cs2PdC2,mp-505824,1.7513999999999998,1.7106094,0.06632127262068899,"{55: 2, 46: 1, 6: 2}","[6, 46, 55]",62461552,Cs2Pd1C2
CsAgC2,mp-10101,2.6118,-0.95197837,0.3875278965229878,"{55: 1, 47: 1, 6: 2}","[6, 47, 55]",62471551,Cs1Ag1C2
Co8C24(SO7)3,mp-651461,1.4797,-0.17504507,0.48412085422152806,"{27: 8, 6: 24, 16: 3, 8: 21}","[6, 8, 16, 27]",624821163278,Co8C24S3O21
Ge(C6F5)4,mp-1197268,0.5082,0.67500339,0.9391446834444439,"{32: 1, 6: 24, 9: 20}","[6, 9, 32]",624920321,Ge1C24F20
Sn(C6F5)4,mp-1199905,3.5275999999999996,2.67683594,0.375326114541668,"{50: 1, 6: 24, 9: 20}","[6, 9, 50]",624920501,Sn1C24F20
Cs4Pr6C2I13,mp-505186,0.0,4.29267086,0.014017503246157581,"{55: 4, 59: 6, 6: 2, 53: 13}","[6, 53, 55, 59]",625313554596,Cs4Pr6C2I13
La3C2I3,mp-569686,0.03289999999999971,6.80543312,0.0,"{57: 3, 6: 2, 53: 3}","[6, 53, 57]",62533573,La3C2I3
La4C2I5,mp-1223222,0.0,6.19638617,0.0,"{57: 4, 6: 2, 53: 5}","[6, 53, 57]",62535574,La4C2I5
La5C2I9,mp-571432,1.4151999999999996,3.99710616,0.0,"{57: 5, 6: 2, 53: 9}","[6, 53, 57]",62539575,La5C2I9
Dy5C2I9,mp-570607,1.4272,2.79348921,0.0,"{66: 5, 6: 2, 53: 9}","[6, 53, 66]",62539665,Dy5C2I9
CsAuC2,mp-1065405,2.0644,-0.36461938,0.32780480875000073,"{55: 1, 79: 1, 6: 2}","[6, 55, 79]",62551791,Cs1Au1C2
Cs2PtC2,mp-505825,1.2698,2.20073198,0.0,"{55: 2, 78: 1, 6: 2}","[6, 55, 78]",62552781,Cs2Pt1C2
LaC2,mp-2367,0.0,7.17532524,0.0,"{57: 1, 6: 2}","[6, 57]",62571,La1C2
CeC2,mp-2839,0.0,7.09884809,0.05365206874999551,"{58: 1, 6: 2}","[6, 58]",62581,Ce1C2
CeThC2,mp-1226555,0.0,6.95181475,0.09262732520832984,"{58: 1, 90: 1, 6: 2}","[6, 58, 90]",62581901,Ce1Th1C2
Ce2WC2,mp-567492,0.0,8.54571238,0.0,"{58: 2, 74: 1, 6: 2}","[6, 58, 74]",62582741,Ce2W1C2
Ce2ReC2,mp-985704,0.0,7.82445866,0.0,"{58: 2, 75: 1, 6: 2}","[6, 58, 75]",62582751,Ce2Re1C2
PrC2,mp-1995,0.0,4.20835635,0.014935701250002431,"{59: 1, 6: 2}","[6, 59]",62591,Pr1C2
Pr2WC2,mp-568326,0.0,5.35246996,0.0,"{59: 2, 74: 1, 6: 2}","[6, 59, 74]",62592741,Pr2W1C2
Pr2ReC2,mp-22561,0.0,4.86201156,0.0,"{59: 2, 75: 1, 6: 2}","[6, 59, 75]",62592751,Pr2Re1C2
NdC2,mp-2297,0.0,4.16190565,0.019172788749998837,"{60: 1, 6: 2}","[6, 60]",62601,Nd1C2
Nd2WC2,mp-569275,0.0,5.24705243,0.0,"{60: 2, 74: 1, 6: 2}","[6, 60, 74]",62602741,Nd2W1C2
Nd2ReC2,mp-864686,0.0,4.73237874,0.0,"{60: 2, 75: 1, 6: 2}","[6, 60, 75]",62602751,Nd2Re1C2
SmC2,mp-12764,0.0,4.01032861,0.02263802125000236,"{62: 1, 6: 2}","[6, 62]",62621,Sm1C2
Sm2ReC2,mp-978850,0.0,4.53111132,0.0,"{62: 2, 75: 1, 6: 2}","[6, 62, 75]",62622751,Sm2Re1C2
EuC2,mp-1077301,0.0,2.84417689,0.03836215388888675,"{63: 1, 6: 2}","[6, 63]",62631,Eu1C2
GdC2,mp-12765,0.0,4.18198477,0.015514419583331218,"{64: 1, 6: 2}","[6, 64]",62641,Gd1C2
GdWC2,mp-1212572,0.0,5.8417714,0.0,"{64: 1, 74: 1, 6: 2}","[6, 64, 74]",62641741,Gd1W1C2
Gd2ReC2,mp-864979,0.0,4.55822558,0.0,"{64: 2, 75: 1, 6: 2}","[6, 64, 75]",62642751,Gd2Re1C2
TbC2,mp-2119,0.0,4.40364321,0.0437705460416673,"{65: 1, 6: 2}","[6, 65]",62651,Tb1C2
TbWC2,mp-1190096,0.0,6.18789709,0.0,"{65: 1, 74: 1, 6: 2}","[6, 65, 74]",62651741,Tb1W1C2
Tb2ReC2,mp-972246,0.0,4.72745697,0.0,"{65: 2, 75: 1, 6: 2}","[6, 65, 75]",62652751,Tb2Re1C2
DyC2,mp-541840,0.0,4.40015673,0.05472946655555955,"{66: 1, 6: 2}","[6, 66]",62661,Dy1C2
DyWC2,mp-1181428,0.0,6.19152726,0.0,"{66: 1, 74: 1, 6: 2}","[6, 66, 74]",62661741,Dy1W1C2
Dy2ReC2,mp-1188135,0.0,4.6739668,0.0,"{66: 2, 75: 1, 6: 2}","[6, 66, 75]",62662751,Dy2Re1C2
Dy2OsC2,mp-1213167,0.0,5.26732741,0.0,"{66: 2, 76: 1, 6: 2}","[6, 66, 76]",62662761,Dy2Os1C2
HoC2,mp-1423,0.0,4.36922083,0.07491460916666437,"{67: 1, 6: 2}","[6, 67]",62671,Ho1C2
HoWC2,mp-1181041,0.0,6.14586204,0.0,"{67: 1, 74: 1, 6: 2}","[6, 67, 74]",62671741,Ho1W1C2
Ho2ReC2,mp-1184737,0.0,4.57274291,0.0,"{67: 2, 75: 1, 6: 2}","[6, 67, 75]",62672751,Ho2Re1C2
Ho2OsC2,mp-1212373,0.0,5.14728449,0.0,"{67: 2, 76: 1, 6: 2}","[6, 67, 76]",62672761,Ho2Os1C2
ErC2,mp-1579,0.0,4.42875929,0.08034501604166877,"{68: 1, 6: 2}","[6, 68]",62681,Er1C2
ErWC2,mp-1188587,0.0,6.17861882,0.0,"{68: 1, 74: 1, 6: 2}","[6, 68, 74]",62681741,Er1W1C2
Er2ReC2,mp-20799,0.0,4.58895175,0.0,"{68: 2, 75: 1, 6: 2}","[6, 68, 75]",62682751,Er2Re1C2
Er2OsC2,mp-1213006,0.0,5.16750197,0.0,"{68: 2, 76: 1, 6: 2}","[6, 68, 76]",62682761,Er2Os1C2
TmC2,mp-269,0.0,4.42749677,0.08949843854166861,"{69: 1, 6: 2}","[6, 69]",62691,Tm1C2
TmWC2,mp-1178946,0.0,6.16411307,0.0,"{69: 1, 74: 1, 6: 2}","[6, 69, 74]",62691741,Tm1W1C2
Tm2ReC2,mp-1105554,0.0,4.54135577,0.0,"{69: 2, 75: 1, 6: 2}","[6, 69, 75]",62692751,Tm2Re1C2
C2N,mp-2718,3.1189999999999998,-3.63512737,0.37433172625000033,"{6: 2, 7: 1}","[6, 7]",6271,C2N1
Mg11(CN5)2,mp-1246307,0.6030999999999995,5.27822099,0.10191111396738961,"{12: 11, 6: 2, 7: 10}","[6, 7, 12]",627101211,Mg11C2N10
Ca11(CN5)2,mp-4800,0.7760000000000002,3.30954147,0.0038877775000001336,"{20: 11, 6: 2, 7: 10}","[6, 7, 20]",627102011,Ca11C2N10
Mn11(CN5)2,mp-1245334,0.0,6.11620925,0.3355635409782618,"{25: 11, 6: 2, 7: 10}","[6, 7, 25]",627102511,Mn11C2N10
Co11(CN5)2,mp-1246536,0.0,5.69421091,0.2958902584782592,"{27: 11, 6: 2, 7: 10}","[6, 7, 27]",627102711,Co11C2N10
Zn11(CN5)2,mp-1247337,0.0,3.47961512,0.14406164586956471,"{30: 11, 6: 2, 7: 10}","[6, 7, 30]",627103011,Zn11C2N10
Sr11(CN5)2,mp-1245742,0.5311000000000003,2.58245332,0.0021929539130409736,"{38: 11, 6: 2, 7: 10}","[6, 7, 38]",627103811,Sr11C2N10
Cd11(CN5)2,mp-1247120,0.2017000000000002,2.63443872,0.34134998630434854,"{48: 11, 6: 2, 7: 10}","[6, 7, 48]",627104811,Cd11C2N10
In11(CN5)2,mp-1246655,0.0,4.77318136,0.3451193388647349,"{49: 11, 6: 2, 7: 10}","[6, 7, 49]",627104911,In11C2N10
Sn11(CN5)2,mp-1246777,0.0,5.83698137,0.2024362626086944,"{50: 11, 6: 2, 7: 10}","[6, 7, 50]",627105011,Sn11C2N10
Pb11(CN5)2,mp-1246742,0.0,5.66654202,0.4001219947826087,"{82: 11, 6: 2, 7: 10}","[6, 7, 82]",627108211,Pb11C2N10
LuC2,mp-8371,0.0,4.48816351,0.10826372062500145,"{71: 1, 6: 2}","[6, 71]",62711,Lu1C2
C2S2NCl3,mp-1214223,1.3064999999999998,0.34988717,0.21159570194568467,"{6: 2, 16: 2, 7: 1, 17: 3}","[6, 7, 16, 17]",6271162173,C2S2N1Cl3
C2NCl,mp-1189989,1.5194,-2.87568518,1.6561767702083339,"{6: 2, 7: 1, 17: 1}","[6, 7, 17]",6271171,C2N1Cl1
GaC2NCl4,mp-1181463,1.9303,-0.99766665,0.6804805419791666,"{31: 1, 6: 2, 7: 1, 17: 4}","[6, 7, 17, 31]",6271174311,Ga1C2N1Cl4
ReC2NCl4,mp-1202145,0.0023999999999999577,-0.86178054,0.8084190687847217,"{75: 1, 6: 2, 7: 1, 17: 4}","[6, 7, 17, 75]",6271174751,Re1C2N1Cl4
NbC2NCl8,mp-864879,2.3156,-0.93479849,0.08949238703125051,"{41: 1, 6: 2, 7: 1, 17: 8}","[6, 7, 17, 41]",6271178411,Nb1C2N1Cl8
Lu2ReC2,mp-1188244,0.0,4.4922176,0.0,"{71: 2, 75: 1, 6: 2}","[6, 71, 75]",62712751,Lu2Re1C2
HgC2Br3N,mp-1181520,0.0,-1.83885382,0.6873448510193452,"{80: 1, 6: 2, 35: 3, 7: 1}","[6, 7, 35, 80]",6271353801,Hg1C2Br3N1
Ho7C2I12N,mp-1212285,1.2612999999999999,2.4744702,0.0,"{67: 7, 6: 2, 53: 12, 7: 1}","[6, 7, 53, 67]",62715312677,Ho7C2I12N1