formula,material_id,band_gap,efermi,energy_above_hull,comp_atoms,sorted_keys_comp_atoms,comp_number,new_formula
NaH4CS2N3O2,mp-1203484,2.6265,-0.22477357,0.2137614023005865,"{11: 1, 1: 4, 6: 1, 16: 2, 7: 3, 8: 2}","[1, 6, 7, 8, 11, 16]",14617382111162,Na1H4C1S2N3O2
H4CS(NO)3,mp-721301,3.3221000000000003,-0.01766303,0.3954519874133995,"{1: 4, 6: 1, 16: 1, 7: 3, 8: 3}","[1, 6, 7, 8, 16]",14617383161,H4C1S1N3O3
H4CN4O,mp-1212551,2.0661,0.8303601,0.13034156224999993,"{1: 4, 6: 1, 7: 4, 8: 1}","[1, 6, 7, 8]",14617481,H4C1N4O1
H4C(N2O)2,mp-707535,2.3823,-0.80028792,0.2805228118686873,"{1: 4, 6: 1, 7: 4, 8: 2}","[1, 6, 7, 8]",14617482,H4C1N4O2
H4CN4O3,mp-1201465,2.1607,1.22824055,0.4547653564930547,"{1: 4, 6: 1, 7: 4, 8: 3}","[1, 6, 7, 8]",14617483,H4C1N4O3
H4CN5Cl,mp-696231,3.3852,-1.13064014,0.11410325664983123,"{1: 4, 6: 1, 7: 5, 17: 1}","[1, 6, 7, 17]",146175171,H4C1N5Cl1
H4CN5O,mp-1212807,2.2373000000000003,-1.46273419,0.2702360486363631,"{1: 4, 6: 1, 7: 5, 8: 1}","[1, 6, 7, 8]",14617581,H4C1N5O1
H4C(N3O)2,mp-1212607,2.9397,-2.10913142,0.2848201340811958,"{1: 4, 6: 1, 7: 6, 8: 2}","[1, 6, 7, 8]",14617682,H4C1N6O2
H4C(N2O)4,mp-1212577,2.9450000000000003,1.55141478,0.5581962005882346,"{1: 4, 6: 1, 7: 8, 8: 4}","[1, 6, 7, 8]",14617884,H4C1N8O4
Ca7Si6H4CO23,mp-733443,4.581099999999999,1.51609327,0.014773936829270973,"{20: 7, 14: 6, 1: 4, 6: 1, 8: 23}","[1, 6, 8, 14, 20]",1461823146207,Ca7Si6H4C1O23
NaLaP2H4CO7,mp-1195950,4.7036,6.05979316,0.11329755151041532,"{11: 1, 57: 1, 15: 2, 1: 4, 6: 1, 8: 7}","[1, 6, 8, 11, 15, 57]",146187111152571,Na1La1P2H4C1O7
NaPrP2H4CO7,mp-1199704,4.8134999999999994,5.5480452,0.07352956348958006,"{11: 1, 59: 1, 15: 2, 1: 4, 6: 1, 8: 7}","[1, 6, 8, 11, 15, 59]",146187111152591,Na1Pr1P2H4C1O7
NaSmP2H4CO7,mp-1203390,5.1941,6.20463447,0.059698761770834885,"{11: 1, 62: 1, 15: 2, 1: 4, 6: 1, 8: 7}","[1, 6, 8, 11, 15, 62]",146187111152621,Na1Sm1P2H4C1O7
NaEuP2H4CO7,mp-1199131,0.0,0.7578301,0.08794832031249644,"{11: 1, 63: 1, 15: 2, 1: 4, 6: 1, 8: 7}","[1, 6, 8, 11, 15, 63]",146187111152631,Na1Eu1P2H4C1O7
PuP2H4CO7,mp-1200565,0.13359999999999994,2.38416144,0.056254861002172696,"{94: 1, 15: 2, 1: 4, 6: 1, 8: 7}","[1, 6, 8, 15, 94]",146187152941,Pu1P2H4C1O7
InH4CSeO7,mp-1192992,3.4718,0.05628398,0.04632103991350078,"{49: 1, 1: 4, 6: 1, 34: 1, 8: 7}","[1, 6, 8, 34, 49]",146187341491,In1H4C1Se1O7
Ho2H4CO7,mp-697339,4.9922,0.28258092,0.0,"{67: 2, 1: 4, 6: 1, 8: 7}","[1, 6, 8, 67]",146187672,Ho2H4C1O7
Na4P2H4CO9,mp-696155,2.1219,0.86640671,0.13541326425000388,"{11: 4, 15: 2, 1: 4, 6: 1, 8: 9}","[1, 6, 8, 11, 15]",146189114152,Na4P2H4C1O9
Re5H4(CO)20,mp-723248,1.0372000000000001,-1.97528189,0.2947525233928552,"{75: 5, 1: 4, 6: 20, 8: 20}","[1, 6, 8, 75]",14620820755,Re5H4C20O20
H4C2NO2,mp-1189886,2.8327999999999998,-1.10813593,0.16321869180555737,"{1: 4, 6: 2, 7: 1, 8: 2}","[1, 6, 7, 8]",14627182,H4C2N1O2
SnH4C2NO4F,mp-561270,2.6395,0.50514221,0.05194070134615458,"{50: 1, 1: 4, 6: 2, 7: 1, 8: 4, 9: 1}","[1, 6, 7, 8, 9, 50]",1462718491501,Sn1H4C2N1O4F1
NaH4C2I(NO)2,mp-1190848,4.5176,3.13695288,0.3215579015625236,"{11: 1, 1: 4, 6: 2, 53: 1, 7: 2, 8: 2}","[1, 6, 7, 8, 11, 53]",14627282111531,Na1H4C2I1N2O2
AgH4C2S2N3,mp-1215034,2.8954,3.20683471,0.068887327998298,"{47: 1, 1: 4, 6: 2, 16: 2, 7: 3}","[1, 6, 7, 16, 47]",146273162471,Ag1H4C2S2N3
H4C2N3Cl,mp-1205005,4.0759,2.90821686,0.13220066784722206,"{1: 4, 6: 2, 7: 3, 17: 1}","[1, 6, 7, 17]",146273171,H4C2N3Cl1
H4C2SN4,mp-1212588,3.3520000000000003,4.24865062,0.10337449766958429,"{1: 4, 6: 2, 16: 1, 7: 4}","[1, 6, 7, 16]",146274161,H4C2S1N4
ZnH4C2(N2Cl)2,mp-1200530,4.7302,2.84072074,0.03443864852563383,"{30: 1, 1: 4, 6: 2, 7: 4, 17: 2}","[1, 6, 7, 17, 30]",146274172301,Zn1H4C2N4Cl2
HgH4C2(N2Cl)2,mp-1104235,2.2824,-0.77751463,0.08863966197552386,"{80: 1, 1: 4, 6: 2, 7: 4, 17: 2}","[1, 6, 7, 17, 80]",146274172801,Hg1H4C2N4Cl2
UH4C2SeN4O7,mp-1196277,0.49760000000000004,-0.65389174,0.4602454777421423,"{92: 1, 1: 4, 6: 2, 34: 1, 7: 4, 8: 7}","[1, 6, 7, 8, 34, 92]",14627487341921,U1H4C2Se1N4O7
HgH4C2S2(N3Cl)2,mp-1202516,3.0082,-2.58637435,0.1690484646958872,"{80: 1, 1: 4, 6: 2, 16: 2, 7: 6, 17: 2}","[1, 6, 7, 16, 17, 80]",146276162172801,Hg1H4C2S2N6Cl2
TeH4C2(NCl)6,mp-1217518,0.0494,-0.32500917,0.3426562450121722,"{52: 1, 1: 4, 6: 2, 7: 6, 17: 6}","[1, 6, 7, 17, 52]",146276176521,Te1H4C2N6Cl6
H4C2O,mp-995219,5.4072,-1.89171629,0.18852892857142844,"{1: 4, 6: 2, 8: 1}","[1, 6, 8]",146281,H4C2O1
SmAgH4C2SO10,mp-1196380,2.5559,0.88681735,0.06473847536550892,"{62: 1, 47: 1, 1: 4, 6: 2, 16: 1, 8: 10}","[1, 6, 8, 16, 47, 62]",1462810161471621,Sm1Ag1H4C2S1O10
ThUP4H4(CO8)2,mp-1200542,0.030600000000000016,-0.44630876,0.6076142463392831,"{90: 1, 92: 1, 15: 4, 1: 4, 6: 2, 8: 16}","[1, 6, 8, 15, 90, 92]",1462816154901921,Th1U1P4H4C2O16
NpUP4H4(CO8)2,mp-1197754,0.039100000000000024,0.35598914,0.4619724111160757,"{93: 1, 92: 1, 15: 4, 1: 4, 6: 2, 8: 16}","[1, 6, 8, 15, 92, 93]",1462816154921931,Np1U1P4H4C2O16
PuUP4H4(CO8)2,mp-1198593,0.041,0.04863551,0.5372256820758929,"{94: 1, 92: 1, 15: 4, 1: 4, 6: 2, 8: 16}","[1, 6, 8, 15, 92, 94]",1462816154921941,Pu1U1P4H4C2O16
Te4H4Pb12C2Cl3O29,mp-1217748,0.5747,3.62749296,0.025425918263871417,"{52: 4, 1: 4, 82: 12, 6: 2, 17: 3, 8: 29}","[1, 6, 8, 17, 52, 82]",14628291735248212,Te4H4Pb12C2Cl3O29
VH4(CO3)2,mp-601182,2.9939999999999998,-0.74068009,0.12387336139422445,"{23: 1, 1: 4, 6: 2, 8: 6}","[1, 6, 8, 23]",146286231,V1H4C2O6
MnH4(CO3)2,mp-23821,2.0943,0.35816371,0.03902894009614499,"{25: 1, 1: 4, 6: 2, 8: 6}","[1, 6, 8, 25]",146286251,Mn1H4C2O6
CoH4(CO3)2,mp-24296,1.96,0.10305273,0.028184179134606246,"{27: 1, 1: 4, 6: 2, 8: 6}","[1, 6, 8, 27]",146286271,Co1H4C2O6
ZnH4(CO3)2,mp-24714,3.1989,-0.76402551,0.026532549326915955,"{30: 1, 1: 4, 6: 2, 8: 6}","[1, 6, 8, 30]",146286301,Zn1H4C2O6
H4Pb(CO3)2,mp-600174,3.0104,0.42054359,0.0678739056730775,"{1: 4, 82: 1, 6: 2, 8: 6}","[1, 6, 8, 82]",146286821,H4Pb1C2O6
Na2CaH4(CO4)2,mp-1195650,4.735,0.55315402,0.0061595131740155296,"{11: 2, 20: 1, 1: 4, 6: 2, 8: 8}","[1, 6, 8, 11, 20]",146288112201,Na2Ca1H4C2O8
LaH4C2SO8,mp-1202607,2.8179999999999996,1.92191285,0.10207483020833408,"{57: 1, 1: 4, 6: 2, 16: 1, 8: 8}","[1, 6, 8, 16, 57]",146288161571,La1H4C2S1O8
HgH4C2S2(O4F3)2,mp-1200245,3.3164,1.38181455,0.1559124719704572,"{80: 1, 1: 4, 6: 2, 16: 2, 8: 8, 9: 6}","[1, 6, 8, 9, 16, 80]",14628896162801,Hg1H4C2S2O8F6
NaH4C3N3O4,mp-1210160,4.7301,3.50888889,0.0,"{11: 1, 1: 4, 6: 3, 7: 3, 8: 4}","[1, 6, 7, 8, 11]",14637384111,Na1H4C3N3O4
Rb4H4C3O10,mp-863420,4.0445,-0.16058932,0.0,"{37: 4, 1: 4, 6: 3, 8: 10}","[1, 6, 8, 37]",1463810374,Rb4H4C3O10
NdH4C3O8,mp-698317,3.2944000000000004,-0.20435157,0.04679698542967792,"{60: 1, 1: 4, 6: 3, 8: 8}","[1, 6, 8, 60]",146388601,Nd1H4C3O8
K2UH4C4SNO10,mp-1198363,1.6629,-0.40738266,0.08516750634834036,"{19: 2, 92: 1, 1: 4, 6: 4, 16: 1, 7: 1, 8: 10}","[1, 6, 7, 8, 16, 19, 92]",146471810161192921,K2U1H4C4S1N1O10
CrH4C4NO10,mp-1106046,0.0,-1.73997391,0.45394983641667075,"{24: 1, 1: 4, 6: 4, 7: 1, 8: 10}","[1, 6, 7, 8, 24]",146471810241,Cr1H4C4N1O10
LaH4C4NO8,mp-557512,3.2798000000000003,0.38242875,0.011504136180557012,"{57: 1, 1: 4, 6: 4, 7: 1, 8: 8}","[1, 6, 7, 8, 57]",14647188571,La1H4C4N1O8
CoH4C4(NCl2)2,mp-709540,0.0035000000000000586,-0.70493822,1.1537894343888873,"{27: 1, 1: 4, 6: 4, 7: 2, 17: 4}","[1, 6, 7, 17, 27]",146472174271,Co1H4C4N2Cl4
HgH4C4(NCl2)2,mp-736259,2.27,-2.22709098,0.9084291957222215,"{80: 1, 1: 4, 6: 4, 7: 2, 17: 4}","[1, 6, 7, 17, 80]",146472174801,Hg1H4C4N2Cl4
TeH4C4(NCl3)2,mp-1197706,0.5398,-0.15219533,0.4469217440931361,"{52: 1, 1: 4, 6: 4, 7: 2, 17: 6}","[1, 6, 7, 17, 52]",146472176521,Te1H4C4N2Cl6
HgH4C4(Br2N)2,mp-709400,2.2517,-2.31353521,0.9156891905997471,"{80: 1, 1: 4, 6: 4, 35: 4, 7: 2}","[1, 6, 7, 35, 80]",146472354801,Hg1H4C4Br4N2
V4CoH4C4(NO5)2,mp-1201407,0.8250000000000002,2.01081331,0.22883908236666972,"{23: 4, 27: 1, 1: 4, 6: 4, 7: 2, 8: 10}","[1, 6, 7, 8, 23, 27]",146472810234271,V4Co1H4C4N2O10
V2CoH4C4(NO3)2,mp-562114,1.9732999999999998,-0.17288508,0.2776298412171032,"{23: 2, 27: 1, 1: 4, 6: 4, 7: 2, 8: 6}","[1, 6, 7, 8, 23, 27]",14647286232271,V2Co1H4C4N2O6
CoH4C4(NO3)2,mp-1226354,0.8386,-0.3572099,0.5621051405882342,"{27: 1, 1: 4, 6: 4, 7: 2, 8: 6}","[1, 6, 7, 8, 27]",14647286271,Co1H4C4N2O6
Na2H4PtC4Br2(N2O)2,mp-706285,1.7953000000000001,-0.76026972,0.24836301897662239,"{11: 2, 1: 4, 78: 1, 6: 4, 35: 2, 7: 4, 8: 2}","[1, 6, 7, 8, 11, 35, 78]",14647482112352781,Na2H4Pt1C4Br2N4O2
CdH4C4(S2N3)2,mp-1213951,2.8573,3.57915276,0.16975108858082777,"{48: 1, 1: 4, 6: 4, 16: 4, 7: 6}","[1, 6, 7, 16, 48]",146476164481,Cd1H4C4S4N6
KScH4(C2O5)2,mp-554515,3.262,-1.7545485,0.018001597999993457,"{19: 1, 21: 1, 1: 4, 6: 4, 8: 10}","[1, 6, 8, 19, 21]",1464810191211,K1Sc1H4C4O10
KCrH4(C2O5)2,mp-1189653,3.2405,-0.98793943,0.03314972612499467,"{19: 1, 24: 1, 1: 4, 6: 4, 8: 10}","[1, 6, 8, 19, 24]",1464810191241,K1Cr1H4C4O10
RbCrH4(C2O5)2,mp-752822,2.8029,-1.00495627,0.018650012781249004,"{37: 1, 24: 1, 1: 4, 6: 4, 8: 10}","[1, 6, 8, 24, 37]",1464810241371,Rb1Cr1H4C4O10
ThH4(C2O5)2,mp-1202150,3.4342,-0.47756965,0.04642899828947478,"{90: 1, 1: 4, 6: 4, 8: 10}","[1, 6, 8, 90]",1464810901,Th1H4C4O10
UH4(C2O5)2,mp-1197308,0.15629999999999988,2.00702362,0.11474746096490929,"{92: 1, 1: 4, 6: 4, 8: 10}","[1, 6, 8, 92]",1464810921,U1H4C4O10
MgH4C4S4(OF)12,mp-1234282,3.8106,-0.81834847,0.2747067830022525,"{12: 1, 1: 4, 6: 4, 16: 4, 8: 12, 9: 12}","[1, 6, 8, 9, 12, 16]",1464812912121164,Mg1H4C4S4O12F12
Na5ScH4(C2O7)2,mp-24144,4.837,-0.50341897,0.0,"{11: 5, 21: 1, 1: 4, 6: 4, 8: 14}","[1, 6, 8, 11, 21]",1464814115211,Na5Sc1H4C4O14
Na5LuH4(C2O7)2,mp-1195683,4.793100000000001,-0.6891062,0.0,"{11: 5, 71: 1, 1: 4, 6: 4, 8: 14}","[1, 6, 8, 11, 71]",1464814115711,Na5Lu1H4C4O14
K2Mo2H4C4O15,mp-1196938,2.748,-1.19475369,0.09871238046297037,"{19: 2, 42: 2, 1: 4, 6: 4, 8: 15}","[1, 6, 8, 19, 42]",1464815192422,K2Mo2H4C4O15
Rb2Mo2H4C4O15,mp-554482,2.7138,-1.21786443,0.07855899013888656,"{37: 2, 42: 2, 1: 4, 6: 4, 8: 15}","[1, 6, 8, 37, 42]",1464815372422,Rb2Mo2H4C4O15
MgH4(CO)4,mp-1194668,4.4273,-1.27306409,0.13991487198717678,"{12: 1, 1: 4, 6: 4, 8: 4}","[1, 6, 8, 12]",146484121,Mg1H4C4O4
CaH4C4(SO)4,mp-1196609,1.3607,2.22637833,0.438536446754199,"{20: 1, 1: 4, 6: 4, 16: 4, 8: 4}","[1, 6, 8, 16, 20]",146484164201,Ca1H4C4S4O4
MnH4(C2O3)2,mp-1211095,2.1937,2.09894907,0.17518571575000141,"{25: 1, 1: 4, 6: 4, 8: 6}","[1, 6, 8, 25]",146486251,Mn1H4C4O6
CdH4(C2O3)2,mp-1182013,2.6837,-0.81117905,0.17725075263889067,"{48: 1, 1: 4, 6: 4, 8: 6}","[1, 6, 8, 48]",146486481,Cd1H4C4O6
VH4C4O6F,mp-1207872,1.6558000000000002,1.64223568,0.1550775110677094,"{23: 1, 1: 4, 6: 4, 8: 6, 9: 1}","[1, 6, 8, 9, 23]",14648691231,V1H4C4O6F1
Na2CoH4(CO2)4,mp-1203350,2.4491,-0.73581608,0.16417779745613892,"{11: 2, 27: 1, 1: 4, 6: 4, 8: 8}","[1, 6, 8, 11, 27]",146488112271,Na2Co1H4C4O8
K2VH4C4O9,mp-601242,2.6698,-0.9407794,0.1350573754687474,"{19: 2, 23: 1, 1: 4, 6: 4, 8: 9}","[1, 6, 8, 19, 23]",146489192231,K2V1H4C4O9
K2UH4C5(NO6)2,mp-1197429,0.46840000000000004,-0.79490794,0.2199534295592933,"{19: 2, 92: 1, 1: 4, 6: 5, 7: 2, 8: 12}","[1, 6, 7, 8, 19, 92]",146572812192921,K2U1H4C5N2O12
Na2H4RuC5(N2O)3,mp-695945,2.3134,-1.75105354,0.2652384054960386,"{11: 2, 1: 4, 44: 1, 6: 5, 7: 6, 8: 3}","[1, 6, 7, 8, 11, 44]",14657683112441,Na2H4Ru1C5N6O3
H4C5O2,mp-995218,3.3456,-1.38830945,0.17121010840909,"{1: 4, 6: 5, 8: 2}","[1, 6, 8]",146582,H4C5O2
SnH46C18(Br2N)2,mp-570929,4.0541,-1.116582,0.12505724389084438,"{50: 1, 1: 46, 6: 18, 35: 4, 7: 2}","[1, 6, 7, 35, 50]",14661872354501,Sn1H46C18Br4N2
K4H4PtC6S2(NO6)2,mp-698312,0.0,-0.69293305,0.43209619732526683,"{19: 4, 1: 4, 78: 1, 6: 6, 16: 2, 7: 2, 8: 12}","[1, 6, 7, 8, 16, 19, 78]",146672812162194781,K4H4Pt1C6S2N2O12
K2H4PtC6S6(N3O)2,mp-696056,1.5465,-0.2193247,0.2072383967592737,"{19: 2, 1: 4, 78: 1, 6: 6, 16: 6, 7: 6, 8: 2}","[1, 6, 7, 8, 16, 19, 78]",14667682166192781,K2H4Pt1C6S6N6O2
Cs2CaAg2H4C6S6(N3O)2,mp-1201374,3.2679,2.62403134,0.1135623988146568,"{55: 2, 20: 1, 47: 2, 1: 4, 6: 6, 16: 6, 7: 6, 8: 2}","[1, 6, 7, 8, 16, 20, 47, 55]",14667682166201472552,Cs2Ca1Ag2H4C6S6N6O2
K2HgH4PtC6(N3O)2,mp-1200735,3.1651,-2.57557783,0.23035660202021102,"{19: 2, 80: 1, 1: 4, 78: 1, 6: 6, 7: 6, 8: 2}","[1, 6, 7, 8, 19, 78, 80]",14667682192781801,K2Hg1H4Pt1C6N6O2
H4C6O,mp-995204,2.8404,0.41600032,0.1833011337499988,"{1: 4, 6: 6, 8: 1}","[1, 6, 8]",146681,H4C6O1
Rb3NbH4(C2O5)3,mp-555418,3.1076,-1.11589386,0.033539589769094214,"{37: 3, 41: 1, 1: 4, 6: 6, 8: 15}","[1, 6, 8, 37, 41]",1466815373411,Rb3Nb1H4C6O15
KH4C6O3F5,mp-1211718,2.3635,2.22622302,0.2914409616447404,"{19: 1, 1: 4, 6: 6, 8: 3, 9: 5}","[1, 6, 8, 9, 19]",14668395191,K1H4C6O3F5
SmH4(C3O4)2,mp-1209104,2.8017000000000003,3.46422255,0.2123423916118492,"{62: 1, 1: 4, 6: 6, 8: 8}","[1, 6, 8, 62]",146688621,Sm1H4C6O8
H4C7,mp-1097016,2.2582,-0.4240699,0.1327876406060602,"{1: 4, 6: 7}","[1, 6]",1467,H4C7
H4C7O,mp-30184,1.986,-0.96405132,0.2064777455208331,"{1: 4, 6: 7, 8: 1}","[1, 6, 8]",146781,H4C7O1
K4H4WC8(N4O)2,mp-735597,3.0212,-0.6889864,0.24904759753471772,"{19: 4, 1: 4, 74: 1, 6: 8, 7: 8, 8: 2}","[1, 6, 7, 8, 19, 74]",14687882194741,K4H4W1C8N8O2
H4Ru3C9N2O9,mp-720439,2.56,-0.17919147,0.1956028998148147,"{1: 4, 44: 3, 6: 9, 7: 2, 8: 9}","[1, 6, 7, 8, 44]",14697289443,H4Ru3C9N2O9
BeH48C20I6(N2O)4,mp-1201870,2.0372,-0.53549534,0.22461378988505487,"{4: 1, 1: 48, 6: 20, 53: 6, 7: 8, 8: 4}","[1, 4, 6, 7, 8, 53]",148416207884536,Be1H48C20I6N8O4
UCr4H48C14(N15O11)2,mp-1208461,2.3131,-0.97200974,0.1141211060955758,"{92: 1, 24: 4, 1: 48, 6: 14, 7: 30, 8: 22}","[1, 6, 7, 8, 24, 92]",148614730822244921,U1Cr4H48C14N30O22
TiSi7H48(C8O)2,mp-1199399,3.0433,-1.37838161,0.08320190046775888,"{22: 1, 14: 7, 1: 48, 6: 16, 8: 2}","[1, 6, 8, 14, 22]",14861682147221,Ti1Si7H48C16O2
H48PtC32S4(N3O4)2,mp-1202135,1.6557,0.54118289,0.24094841023484737,"{1: 48, 78: 1, 6: 32, 16: 4, 7: 6, 8: 8}","[1, 6, 7, 8, 16, 78]",1486327688164781,H48Pt1C32S4N6O8
Na5P3H48C4N(O9F)3,mp-738718,4.4658,-1.45408137,0.04956093568681119,"{11: 5, 15: 3, 1: 48, 6: 4, 7: 1, 8: 27, 9: 3}","[1, 6, 7, 8, 9, 11, 15]",148647182793115153,Na5P3H48C4N1O27F3
H48PtW6C8(NO)24,mp-773025,2.9777,-0.01195976,0.14356511666666627,"{1: 48, 78: 1, 74: 6, 6: 8, 7: 24, 8: 24}","[1, 6, 7, 8, 74, 78]",14868724824746781,H48Pt1W6C8N24O24
SiB2H50C21N2,mp-1201311,4.3716,-1.49395842,0.09984308186824897,"{14: 1, 5: 2, 1: 50, 6: 21, 7: 2}","[1, 5, 6, 7, 14]",1505262172141,Si1B2H50C21N2
Nb5H50C12(NO7)3,mp-1198193,3.5747,-1.53835903,0.07190573955471713,"{41: 5, 1: 50, 6: 12, 7: 3, 8: 21}","[1, 6, 7, 8, 41]",15061273821415,Nb5H50C12N3O21
CeP4H50C12Cl3O11,mp-1196668,0.20789999999999975,1.93922844,0.03751674428499285,"{58: 1, 15: 4, 1: 50, 6: 12, 17: 3, 8: 11}","[1, 6, 8, 15, 17, 58]",150612811154173581,Ce1P4H50C12Cl3O11
B3H52C16(NO)12,mp-699412,0.002000000000000224,-2.48370375,0.3292560234355326,"{5: 3, 1: 52, 6: 16, 7: 12, 8: 12}","[1, 5, 6, 7, 8]",15253616712812,B3H52C16N12O12
PuSi6H54(C6N)3,mp-686427,3.5219,-0.06488159,0.05528838846357509,"{94: 1, 14: 6, 1: 54, 6: 18, 7: 3}","[1, 6, 7, 14, 94]",15461873146941,Pu1Si6H54C18N3
USi6H54C18N3F,mp-1195463,0.2791,0.50542521,0.0551901252633451,"{92: 1, 14: 6, 1: 54, 6: 18, 7: 3, 9: 1}","[1, 6, 7, 9, 14, 92]",1546187391146921,U1Si6H54C18N3F1
Si6BiH54C18N4Cl,mp-1202078,2.3435,-0.47664069,0.14190396569376595,"{14: 6, 83: 1, 1: 54, 6: 18, 7: 4, 17: 1}","[1, 6, 7, 14, 17, 83]",15461874146171831,Si6Bi1H54C18N4Cl1
GaSi6BiH54C18(NCl)4,mp-1198245,1.3898,0.19828513,0.13225479120214256,"{31: 1, 14: 6, 83: 1, 1: 54, 6: 18, 7: 4, 17: 4}","[1, 6, 7, 14, 17, 31, 83]",15461874146174311831,Ga1Si6Bi1H54C18N4Cl4
P7H54Ir2C18ClF6,mp-1196516,1.031,0.68743897,0.07805476187784333,"{15: 7, 1: 54, 77: 2, 6: 18, 17: 1, 9: 6}","[1, 6, 9, 15, 17, 77]",15461896157171772,P7H54Ir2C18Cl1F6
BH5CN2,mp-696210,5.4699,-2.8949046,0.19692599513888975,"{5: 1, 1: 5, 6: 1, 7: 2}","[1, 5, 6, 7]",15516172,B1H5C1N2
BH5CSN2,mp-706606,3.9122,-0.68508991,0.2351081484500046,"{5: 1, 1: 5, 6: 1, 16: 1, 7: 2}","[1, 5, 6, 7, 16]",15516172161,B1H5C1S1N2
BH5C4(N2O)2,mp-706227,0.006900000000000017,-0.27832589,0.880366020109955,"{5: 1, 1: 5, 6: 4, 7: 4, 8: 2}","[1, 5, 6, 7, 8]",1551647482,B1H5C4N4O2
B5TeH5C,mp-1203749,2.1558,2.11331642,0.040108370821609896,"{5: 5, 52: 1, 1: 5, 6: 1}","[1, 5, 6, 52]",155561521,B5Te1H5C1
B5H5CI,mp-1202707,4.2014,-1.67538265,0.0,"{5: 5, 1: 5, 6: 1, 53: 1}","[1, 5, 6, 53]",155561531,B5H5C1I1
H5(C2N3)6,mp-1202134,0.04269999999999996,-1.13696739,0.053963785214278914,"{1: 5, 6: 12, 7: 18}","[1, 6, 7]",15612718,H5C12N18
Si2H5CNCl4,mp-1204656,5.026,3.72057455,0.10623763711538459,"{14: 2, 1: 5, 6: 1, 7: 1, 17: 4}","[1, 6, 7, 14, 17]",156171142174,Si2H5C1N1Cl4
H5CNO2,mp-555229,5.0248,-1.78514828,0.049184760555554874,"{1: 5, 6: 1, 7: 1, 8: 2}","[1, 6, 7, 8]",15617182,H5C1N1O2
CoH5CN(ClO)2,mp-1190433,1.7077,-0.06008224,0.01288216166666345,"{27: 1, 1: 5, 6: 1, 7: 1, 17: 2, 8: 2}","[1, 6, 7, 8, 17, 27]",15617182172271,Co1H5C1N1Cl2O2
H5CNO3,mp-560121,5.1511,-1.06646159,0.0,"{1: 5, 6: 1, 7: 1, 8: 3}","[1, 6, 7, 8]",15617183,H5C1N1O3
ZnPH5CNClO3,mp-1199092,4.6314,4.00944554,0.049907770312494826,"{30: 1, 15: 1, 1: 5, 6: 1, 7: 1, 17: 1, 8: 3}","[1, 6, 7, 8, 15, 17, 30]",15617183151171301,Zn1P1H5C1N1Cl1O3
GaAsH5CNO5,mp-1203028,0.2317,0.16492841,0.30250352011904624,"{31: 1, 33: 1, 1: 5, 6: 1, 7: 1, 8: 5}","[1, 6, 7, 8, 31, 33]",15617185311331,Ga1As1H5C1N1O5
GaGe2H5CNO6,mp-1197686,3.7018,-0.85427802,0.03184192624999849,"{31: 1, 32: 2, 1: 5, 6: 1, 7: 1, 8: 6}","[1, 6, 7, 8, 31, 32]",15617186311322,Ga1Ge2H5C1N1O6
H5CSN2Cl,mp-560045,4.3408,-1.26863969,0.06775801057143038,"{1: 5, 6: 1, 16: 1, 7: 2, 17: 1}","[1, 6, 7, 16, 17]",156172161171,H5C1S1N2Cl1
SnH5CN2Cl3,mp-2647030,1.7893000000000001,1.10511616,0.06752071770833368,"{50: 1, 1: 5, 6: 1, 7: 2, 17: 3}","[1, 6, 7, 17, 50]",156172173501,Sn1H5C1N2Cl3
H5PbCN2Cl3,mp-2646973,2.4370000000000003,0.4460642,0.07084029958333549,"{1: 5, 82: 1, 6: 1, 7: 2, 17: 3}","[1, 6, 7, 17, 82]",156172173821,H5Pb1C1N2Cl3
SnH5CBr3N2,mp-2646983,0.8425999999999998,1.31878738,0.06562237145833372,"{50: 1, 1: 5, 6: 1, 35: 3, 7: 2}","[1, 6, 7, 35, 50]",156172353501,Sn1H5C1Br3N2
H5PbCBr3N2,mp-2647056,1.7578,0.42054516,0.05857179276785551,"{1: 5, 82: 1, 6: 1, 35: 3, 7: 2}","[1, 6, 7, 35, 82]",156172353821,H5Pb1C1Br3N2
SnH5CI3N2,mp-1102654,0.5880000000000001,2.15708083,0.04068468930553948,"{50: 1, 1: 5, 6: 1, 53: 3, 7: 2}","[1, 6, 7, 50, 53]",156172501533,Sn1H5C1I3N2
H5PbCI3N2,mp-977014,1.4326,1.32780716,0.060055250277780914,"{1: 5, 82: 1, 6: 1, 53: 3, 7: 2}","[1, 6, 7, 53, 82]",156172533821,H5Pb1C1I3N2
PH5CN2O3,mp-1209891,4.3563,-0.93095442,0.08388959954366282,"{15: 1, 1: 5, 6: 1, 7: 2, 8: 3}","[1, 6, 7, 8, 15]",15617283151,P1H5C1N2O3
H5CSN2ClO4,mp-707816,2.4905,0.29349896,0.6176848010089282,"{1: 5, 6: 1, 16: 1, 7: 2, 17: 1, 8: 4}","[1, 6, 7, 8, 16, 17]",15617284161171,H5C1S1N2Cl1O4
H5CN3,mp-1196017,4.4276,-1.01386263,0.008928133333334642,"{1: 5, 6: 1, 7: 3}","[1, 6, 7]",156173,H5C1N3
H5CN3O4,mp-24232,3.5185,-1.33187692,0.2157236039102557,"{1: 5, 6: 1, 7: 3, 8: 4}","[1, 6, 7, 8]",15617384,H5C1N3O4
H5CN5O6,mp-1197497,2.0669,1.37935677,0.5413369171470581,"{1: 5, 6: 1, 7: 5, 8: 6}","[1, 6, 7, 8]",15617586,H5C1N5O6
H5CN6Cl,mp-1213381,3.7622,-0.48951195,0.17064684288461862,"{1: 5, 6: 1, 7: 6, 17: 1}","[1, 6, 7, 17]",156176171,H5C1N6Cl1
H5CN7O2,mp-1212560,2.4724,1.22403078,0.32992381651851765,"{1: 5, 6: 1, 7: 7, 8: 2}","[1, 6, 7, 8]",15617782,H5C1N7O2
H5CN9O4,mp-1213515,2.9505999999999997,-0.95488803,0.4045659574780682,"{1: 5, 6: 1, 7: 9, 8: 4}","[1, 6, 7, 8]",15617984,H5C1N9O4
AsH5COF6,mp-557908,5.0561,-3.69629892,0.16338249401785276,"{33: 1, 1: 5, 6: 1, 8: 1, 9: 6}","[1, 6, 8, 9, 33]",15618196331,As1H5C1O1F6
PH5CO3,mp-1204941,5.935700000000001,3.63182741,0.0,"{15: 1, 1: 5, 6: 1, 8: 3}","[1, 6, 8, 15]",156183151,P1H5C1O3
NaH5CO4,mp-1191547,5.1155,3.24448475,0.0511845728598459,"{11: 1, 1: 5, 6: 1, 8: 4}","[1, 6, 8, 11]",156184111,Na1H5C1O4
MnPH5CO4,mp-725508,3.3453999999999997,0.7407571,0.03166410170138434,"{25: 1, 15: 1, 1: 5, 6: 1, 8: 4}","[1, 6, 8, 15, 25]",156184151251,Mn1P1H5C1O4