formula,material_id,band_gap,efermi,energy_above_hull,comp_atoms,sorted_keys_comp_atoms,comp_number,new_formula
Ga2Sb2H16C4S7N2,mp-1202473,2.7559,0.35493406,0.021477376493938216,"{31: 2, 51: 2, 1: 16, 6: 4, 16: 7, 7: 2}","[1, 6, 7, 16, 31, 51]",1166472167312512,Ga2Sb2H16C4S7N2
In2Sb2H16C4S7N2,mp-1204176,2.6056,1.11207408,0.030790312560601052,"{49: 2, 51: 2, 1: 16, 6: 4, 16: 7, 7: 2}","[1, 6, 7, 16, 49, 51]",1166472167492512,In2Sb2H16C4S7N2
MnH16C4(NCl2)2,mp-568043,1.8256,0.73417725,0.034372486851854234,"{25: 1, 1: 16, 6: 4, 7: 2, 17: 4}","[1, 6, 7, 17, 25]",1166472174251,Mn1H16C4N2Cl4
CoH16C4(NCl2)2,mp-568314,0.9515,0.273047,0.051485654537036574,"{27: 1, 1: 16, 6: 4, 7: 2, 17: 4}","[1, 6, 7, 17, 27]",1166472174271,Co1H16C4N2Cl4
CdH16C4(NCl2)2,mp-568812,3.3931,-1.34276798,0.034473964351851905,"{48: 1, 1: 16, 6: 4, 7: 2, 17: 4}","[1, 6, 7, 17, 48]",1166472174481,Cd1H16C4N2Cl4
SbH16C4N2Cl5,mp-571548,3.2340999999999998,-0.6683608,0.04877452276785643,"{51: 1, 1: 16, 6: 4, 7: 2, 17: 5}","[1, 6, 7, 17, 51]",1166472175511,Sb1H16C4N2Cl5
BiH16C4N2Cl5,mp-1198262,3.9768,-1.23185693,0.041647748392855455,"{83: 1, 1: 16, 6: 4, 7: 2, 17: 5}","[1, 6, 7, 17, 83]",1166472175831,Bi1H16C4N2Cl5
TiH16C4(NCl3)2,mp-1203619,2.2255000000000003,0.68778806,0.054516717758624544,"{22: 1, 1: 16, 6: 4, 7: 2, 17: 6}","[1, 6, 7, 17, 22]",1166472176221,Ti1H16C4N2Cl6
SnH16C4(NCl3)2,mp-570712,2.8562000000000003,-1.36667066,0.05878292517241679,"{50: 1, 1: 16, 6: 4, 7: 2, 17: 6}","[1, 6, 7, 17, 50]",1166472176501,Sn1H16C4N2Cl6
H16PtC4(NCl3)2,mp-1194093,2.2425,-1.90616559,0.0583279039655169,"{1: 16, 78: 1, 6: 4, 7: 2, 17: 6}","[1, 6, 7, 17, 78]",1166472176781,H16Pt1C4N2Cl6
MnH16C4(Br2N)2,mp-24824,2.4529,-0.70409938,0.05852322166666468,"{25: 1, 1: 16, 6: 4, 35: 4, 7: 2}","[1, 6, 7, 25, 35]",1166472251354,Mn1H16C4Br4N2
ZnH16C4(Br2N)2,mp-567794,4.0725,-1.68302489,0.05600935956018471,"{30: 1, 1: 16, 6: 4, 35: 4, 7: 2}","[1, 6, 7, 30, 35]",1166472301354,Zn1H16C4Br4N2
In2Sb2H16C4Se7N2,mp-1205153,2.162,0.77469412,0.012962456658772048,"{49: 2, 51: 2, 1: 16, 6: 4, 34: 7, 7: 2}","[1, 6, 7, 34, 49, 51]",1166472347492512,In2Sb2H16C4Se7N2
CdH16C4(Br2N)2,mp-569847,3.7185,-1.71807851,0.06159387888888812,"{48: 1, 1: 16, 6: 4, 35: 4, 7: 2}","[1, 6, 7, 35, 48]",1166472354481,Cd1H16C4Br4N2
SnH16C4(Br3N)2,mp-570137,1.7128,-1.06610691,0.05625775043103509,"{50: 1, 1: 16, 6: 4, 35: 6, 7: 2}","[1, 6, 7, 35, 50]",1166472356501,Sn1H16C4Br6N2
NaAgH16C4S4(NO5)2,mp-605018,3.9407,-0.39350444,0.2704890888251805,"{11: 1, 47: 1, 1: 16, 6: 4, 16: 4, 7: 2, 8: 10}","[1, 6, 7, 8, 11, 16, 47]",1166472810111164471,Na1Ag1H16C4S4N2O10
MgH16C4S4N2(O4F3)4,mp-1181934,1.5647000000000002,-1.99485738,0.5327741145948854,"{12: 1, 1: 16, 6: 4, 16: 4, 7: 2, 8: 16, 9: 12}","[1, 6, 7, 8, 9, 12, 16]",1166472816912121164,Mg1H16C4S4N2O16F12
UH16C4(NO3)2,mp-1201731,2.019,1.66832385,0.20072736501436594,"{92: 1, 1: 16, 6: 4, 7: 2, 8: 6}","[1, 6, 7, 8, 92]",116647286921,U1H16C4N2O6
VH16C4(NO4)3,mp-698262,3.0852,-1.42971554,0.06519364871527689,"{23: 1, 1: 16, 6: 4, 7: 3, 8: 12}","[1, 6, 7, 8, 23]",1166473812231,V1H16C4N3O12
SnH16C4(NO4)3,mp-985670,0.26239999999999997,-1.03922941,0.1359209479340251,"{50: 1, 1: 16, 6: 4, 7: 3, 8: 12}","[1, 6, 7, 8, 50]",1166473812501,Sn1H16C4N3O12
UH16C4(NO3)4,mp-738654,1.9701,-0.06820455,0.09268911636490884,"{92: 1, 1: 16, 6: 4, 7: 4, 8: 12}","[1, 6, 7, 8, 92]",1166474812921,U1H16C4N4O12
CoH16C4(NO)7,mp-728656,2.2303,-0.04270657,0.3552646903138532,"{27: 1, 1: 16, 6: 4, 7: 7, 8: 7}","[1, 6, 7, 8, 27]",116647787271,Co1H16C4N7O7
MnH16C4S4(N4Cl)2,mp-1199490,1.6433999999999997,1.09747801,0.04755911559465531,"{25: 1, 1: 16, 6: 4, 16: 4, 7: 8, 17: 2}","[1, 6, 7, 16, 17, 25]",1166478164172251,Mn1H16C4S4N8Cl2
CoH16C4S4(N4Cl)2,mp-1199306,0.0,1.58292815,0.07574490345180696,"{27: 1, 1: 16, 6: 4, 16: 4, 7: 8, 17: 2}","[1, 6, 7, 16, 17, 27]",1166478164172271,Co1H16C4S4N8Cl2
H16PdC4S4(N4Cl)2,mp-766411,2.0412,0.19506607,0.03515615938036465,"{1: 16, 46: 1, 6: 4, 16: 4, 7: 8, 17: 2}","[1, 6, 7, 16, 17, 46]",1166478164172461,H16Pd1C4S4N8Cl2
CdH16C4S4(N4Cl)2,mp-699261,3.1973000000000003,-0.25328567,0.033523017857138626,"{48: 1, 1: 16, 6: 4, 16: 4, 7: 8, 17: 2}","[1, 6, 7, 16, 17, 48]",1166478164172481,Cd1H16C4S4N8Cl2
H16OsC4S4Br8N8O3,mp-1197449,0.11560000000000004,-0.91683251,0.38534892389321396,"{1: 16, 76: 1, 6: 4, 16: 4, 35: 8, 7: 8, 8: 3}","[1, 6, 7, 8, 16, 35, 76]",116647883164358761,H16Os1C4S4Br8N8O3
CaH16C4N8(ClO2)2,mp-1182729,5.0849,-1.10416955,0.0018643444285917354,"{20: 1, 1: 16, 6: 4, 7: 8, 17: 2, 8: 4}","[1, 6, 7, 8, 17, 20]",116647884172201,Ca1H16C4N8Cl2O4
NpH16C4N8ClO6,mp-698125,0.4292999999999998,1.65060759,0.009514238024686428,"{93: 1, 1: 16, 6: 4, 7: 8, 17: 1, 8: 6}","[1, 6, 7, 8, 17, 93]",116647886171931,Np1H16C4N8Cl1O6
CdRe2H16C4S4(NO)8,mp-733747,2.0845,0.06204577,0.09200155821705369,"{48: 1, 75: 2, 1: 16, 6: 4, 16: 4, 7: 8, 8: 8}","[1, 6, 7, 8, 16, 48, 75]",116647888164481752,Cd1Re2H16C4S4N8O8
LaH16C4Cl3O4,mp-1198888,4.2595,-1.40392797,0.1228853736607105,"{57: 1, 1: 16, 6: 4, 17: 3, 8: 4}","[1, 6, 8, 17, 57]",1166484173571,La1H16C4Cl3O4
CeH16C4Cl3O4,mp-554484,0.18480000000000008,1.71123631,0.126647236785713,"{58: 1, 1: 16, 6: 4, 17: 3, 8: 4}","[1, 6, 8, 17, 58]",1166484173581,Ce1H16C4Cl3O4
ZrH16C5N2O3F4,mp-738726,3.7171,-1.43542634,0.1351518120967734,"{40: 1, 1: 16, 6: 5, 7: 2, 8: 3, 9: 4}","[1, 6, 7, 8, 9, 40]",11665728394401,Zr1H16C5N2O3F4
Al6H16C5(Cl2O)6,mp-775365,5.515700000000001,-1.76425153,0.0716377565833346,"{13: 6, 1: 16, 6: 5, 17: 12, 8: 6}","[1, 6, 8, 13, 17]",11665861361712,Al6H16C5Cl12O6
SmP2H16C6NO13,mp-1197878,3.6671,-0.72382594,0.16187080211538607,"{62: 1, 15: 2, 1: 16, 6: 6, 7: 1, 8: 13}","[1, 6, 7, 8, 15, 62]",1166671813152621,Sm1P2H16C6N1O13
PH16C6S2NO4,mp-559674,4.4863,-0.53553724,0.29030129105356917,"{15: 1, 1: 16, 6: 6, 16: 2, 7: 1, 8: 4}","[1, 6, 7, 8, 15, 16]",116667184151162,P1H16C6S2N1O4
P2H16PbC6(NO3)2,mp-1195389,3.2384,-0.51396596,0.49168881325757585,"{15: 2, 1: 16, 82: 1, 6: 6, 7: 2, 8: 6}","[1, 6, 7, 8, 15, 82]",116667286152821,P2H16Pb1C6N2O6
ZnH16C6S2(N2Cl)2,mp-722401,4.1405,-0.58082275,0.11847268312903392,"{30: 1, 1: 16, 6: 6, 16: 2, 7: 4, 17: 2}","[1, 6, 7, 16, 17, 30]",1166674162172301,Zn1H16C6S2N4Cl2
HgH16C6(N2Cl)2,mp-736272,3.7758000000000003,-1.37164426,0.158344349353448,"{80: 1, 1: 16, 6: 6, 7: 4, 17: 2}","[1, 6, 7, 17, 80]",1166674172801,Hg1H16C6N4Cl2
H16AuC6S2N4ClO4,mp-705526,3.3875,-0.20196715,0.38179496154412007,"{1: 16, 79: 1, 6: 6, 16: 2, 7: 4, 17: 1, 8: 4}","[1, 6, 7, 8, 16, 17, 79]",116667484162171791,H16Au1C6S2N4Cl1O4
UH16C6Se(NO2)4,mp-1196281,1.4899,-0.19957383,0.19665581590711234,"{92: 1, 1: 16, 6: 6, 34: 1, 7: 4, 8: 8}","[1, 6, 7, 8, 34, 92]",116667488341921,U1H16C6Se1N4O8
ZnH16C6(N3O5)2,mp-698329,3.3406000000000002,-0.88750691,0.03983331944445023,"{30: 1, 1: 16, 6: 6, 7: 6, 8: 10}","[1, 6, 7, 8, 30]",1166676810301,Zn1H16C6N6O10
VH16C6N6O7F2,mp-558613,2.3148,-0.38087407,0.10454885367873512,"{23: 1, 1: 16, 6: 6, 7: 6, 8: 7, 9: 2}","[1, 6, 7, 8, 9, 23]",11666768792231,V1H16C6N6O7F2
CoH16C6(N3O4)2,mp-1199782,1.2872,1.40134834,0.3922519963738722,"{27: 1, 1: 16, 6: 6, 7: 6, 8: 8}","[1, 6, 7, 8, 27]",116667688271,Co1H16C6N6O8
MnSnH16C6S3O11,mp-1203956,2.7708000000000004,2.85509761,0.09846429335996287,"{25: 1, 50: 1, 1: 16, 6: 6, 16: 3, 8: 11}","[1, 6, 8, 16, 25, 50]",11666811163251501,Mn1Sn1H16C6S3O11
AlH16(C3O7)2,mp-1201838,3.3858,-0.89120757,0.04641487282094303,"{13: 1, 1: 16, 6: 6, 8: 14}","[1, 6, 8, 13]",11666814131,Al1H16C6O14
H16Ru3C6(Cl3O7)2,mp-758573,0.20540000000000003,1.61800194,0.06850778216666598,"{1: 16, 44: 3, 6: 6, 17: 6, 8: 14}","[1, 6, 8, 17, 44]",11666814176443,H16Ru3C6Cl6O14
AlSi2HC6NCl3,mp-1248231,1.0668,-0.1492689,0.8435283803336473,"{13: 1, 14: 2, 1: 1, 6: 6, 7: 1, 17: 3}","[1, 6, 7, 13, 14, 17]",116671131142173,Al1Si2H1C6N1Cl3
SiAgH16C7S3(OF)3,mp-1204104,3.2777000000000003,2.23149483,0.32614481935750206,"{14: 1, 47: 1, 1: 16, 6: 7, 16: 3, 8: 3, 9: 3}","[1, 6, 8, 9, 14, 16, 47]",116678393141163471,Si1Ag1H16C7S3O3F3
VH16C7O6,mp-1202014,2.8977999999999997,-2.46530687,0.17252643277083113,"{23: 1, 1: 16, 6: 7, 8: 6}","[1, 6, 8, 23]",1166786231,V1H16C7O6
CoHRu(CO)6,mp-728942,2.2321,-0.47564419,0.3109003194583302,"{27: 1, 1: 1, 44: 1, 6: 6, 8: 6}","[1, 6, 8, 27, 44]",116686271441,Co1H1Ru1C6O6
HRuRh(CO)6,mp-1225095,1.9221,1.05766137,0.21053101179166678,"{1: 1, 44: 1, 45: 1, 6: 6, 8: 6}","[1, 6, 8, 44, 45]",116686441451,H1Ru1Rh1C6O6
Cd3H16C8(N10F)2,mp-1214170,2.9772,4.06256598,0.02772944139455813,"{48: 3, 1: 16, 6: 8, 7: 20, 9: 2}","[1, 6, 7, 9, 48]",1166872092483,Cd3H16C8N20F2
SiH16C8(NO2)4,mp-1194877,5.4024,3.98379354,0.2680860219369521,"{14: 1, 1: 16, 6: 8, 7: 4, 8: 8}","[1, 6, 7, 8, 14]",116687488141,Si1H16C8N4O8
K2CaZrH16(CO3)8,mp-1201289,3.0774999999999997,-1.53279176,0.04216600591346609,"{19: 2, 20: 1, 40: 1, 1: 16, 6: 8, 8: 24}","[1, 6, 8, 19, 20, 40]",11668824192201401,K2Ca1Zr1H16C8O24
K2ZrCdH16(CO3)8,mp-698292,2.9671000000000003,-1.28329559,0.04183463158653922,"{19: 2, 40: 1, 48: 1, 1: 16, 6: 8, 8: 24}","[1, 6, 8, 19, 40, 48]",11668824192401481,K2Zr1Cd1H16C8O24
Ca4H16C8O25,mp-1227890,0.16290000000000004,-1.00514342,0.1395983902594331,"{20: 4, 1: 16, 6: 8, 8: 25}","[1, 6, 8, 20]",11668825204,Ca4H16C8O25
CrHC7NO5F2,mp-1197579,3.566,-1.51706379,0.5439488447426495,"{24: 1, 1: 1, 6: 7, 7: 1, 8: 5, 9: 2}","[1, 6, 7, 8, 9, 24]",1167718592241,Cr1H1C7N1O5F2
HC9N10Cl7,mp-1212770,3.6654999999999998,-2.29349308,0.0026180954012362534,"{1: 1, 6: 9, 7: 10, 17: 7}","[1, 6, 7, 17]",1169710177,H1C9N10Cl7
HW2C9NO10,mp-1224650,1.8538999999999999,0.99209962,0.5867333402427519,"{1: 1, 74: 2, 6: 9, 7: 1, 8: 10}","[1, 6, 7, 8, 74]",116971810742,H1W2C9N1O10
BH17C5N2,mp-1194718,4.2447,2.42953298,0.20113471034999897,"{5: 1, 1: 17, 6: 5, 7: 2}","[1, 5, 6, 7]",117516572,B1H17C5N2
BH17C6NCl,mp-1204476,5.0663,2.95259589,0.12437806995192702,"{5: 1, 1: 17, 6: 6, 7: 1, 17: 1}","[1, 5, 6, 7, 17]",117516671171,B1H17C6N1Cl1
UH17C10N3O10,mp-1196522,2.0539,-1.19000424,0.14795768298785195,"{92: 1, 1: 17, 6: 10, 7: 3, 8: 10}","[1, 6, 7, 8, 92]",11761073810921,U1H17C10N3O10
SiH17C11N,mp-571097,3.9636,-0.83769664,0.10097463213114022,"{14: 1, 1: 17, 6: 11, 7: 1}","[1, 6, 7, 14]",11761171141,Si1H17C11N1
CoH17C(NO)8,mp-734885,0.939,-0.78372903,0.18032220221428563,"{27: 1, 1: 17, 6: 1, 7: 8, 8: 8}","[1, 6, 7, 8, 27]",117617888271,Co1H17C1N8O8
P2H17C4NO8,mp-559679,4.9499,-0.81287954,0.0958374904687771,"{15: 2, 1: 17, 6: 4, 7: 1, 8: 8}","[1, 6, 7, 8, 15]",117647188152,P2H17C4N1O8
Al2P3H17C4(NO6)2,mp-709723,5.226100000000001,-0.66632393,0.05884888419786538,"{13: 2, 15: 3, 1: 17, 6: 4, 7: 2, 8: 12}","[1, 6, 7, 8, 13, 15]",1176472812132153,Al2P3H17C4N2O12
V2As3H17C4N8O17,mp-746324,2.2969,-0.83139573,0.0917446269308293,"{23: 2, 33: 3, 1: 17, 6: 4, 7: 8, 8: 17}","[1, 6, 7, 8, 23, 33]",1176478817232333,V2As3H17C4N8O17
PH17C4S2(N2O)4,mp-1210347,3.0984,2.85010602,0.06716605831212163,"{15: 1, 1: 17, 6: 4, 16: 2, 7: 8, 8: 4}","[1, 6, 7, 8, 15, 16]",117647884151162,P1H17C4S2N8O4
VH17C4S4(O5F3)4,mp-1197884,2.8513,-1.57109202,0.13870374232675342,"{23: 1, 1: 17, 6: 4, 16: 4, 8: 20, 9: 12}","[1, 6, 8, 9, 16, 23]",11764820912164231,V1H17C4S4O20F12
MoH17C5(NO)4,mp-705911,0.6504000000000001,-1.33419633,0.18746166754032245,"{42: 1, 1: 17, 6: 5, 7: 4, 8: 4}","[1, 6, 7, 8, 42]",117657484421,Mo1H17C5N4O4
P2H17C6NO2,mp-1201894,4.4609,3.05143317,0.08590761545982062,"{15: 2, 1: 17, 6: 6, 7: 1, 8: 2}","[1, 6, 7, 8, 15]",117667182152,P2H17C6N1O2
B10H18C2S,mp-1202352,2.1031000000000004,-1.03107539,0.11005515927936305,"{5: 10, 1: 18, 6: 2, 16: 1}","[1, 5, 6, 16]",11851062161,B10H18C2S1
B11H18C4S2NCl,mp-1198154,3.5256,-0.19247429,0.1561753311215215,"{5: 11, 1: 18, 6: 4, 16: 2, 7: 1, 17: 1}","[1, 5, 6, 7, 16, 17]",1185116471162171,B11H18C4S2N1Cl1
Si2BH18C31SO3F23,mp-1205251,3.5495,-0.79641824,0.5070850380718781,"{14: 2, 5: 1, 1: 18, 6: 31, 16: 1, 8: 3, 9: 23}","[1, 5, 6, 8, 9, 14, 16]",1185163183923142161,Si2B1H18C31S1O3F23
AlB2H18C4N,mp-1194655,5.5447,-2.95889082,0.16800638843833138,"{13: 1, 5: 2, 1: 18, 6: 4, 7: 1}","[1, 5, 6, 7, 13]",118526471131,Al1B2H18C4N1
TbB3H18C2S,mp-2647157,3.6786,-1.76143202,0.1143269824777784,"{65: 1, 5: 3, 1: 18, 6: 2, 16: 1}","[1, 5, 6, 16, 65]",1185362161651,Tb1B3H18C2S1
DyB3H18C2S,mp-2647168,3.717,-1.76034495,0.11465394294444486,"{66: 1, 5: 3, 1: 18, 6: 2, 16: 1}","[1, 5, 6, 16, 66]",1185362161661,Dy1B3H18C2S1
HoB3H18C2S,mp-2647158,3.7569,-1.79480418,0.11552786556666828,"{67: 1, 5: 3, 1: 18, 6: 2, 16: 1}","[1, 5, 6, 16, 67]",1185362161671,Ho1B3H18C2S1
ErB3H18C2S,mp-2647152,3.7953,-1.78282059,0.11616939024444672,"{68: 1, 5: 3, 1: 18, 6: 2, 16: 1}","[1, 5, 6, 16, 68]",1185362161681,Er1B3H18C2S1
TmB3H18C2S,mp-2646922,3.8426,-1.71888171,0.11787510677222368,"{69: 1, 5: 3, 1: 18, 6: 2, 16: 1}","[1, 5, 6, 16, 69]",1185362161691,Tm1B3H18C2S1
LuB3H18C2S,mp-2647154,3.9249,-1.70197436,0.14362600208633314,"{71: 1, 5: 3, 1: 18, 6: 2, 16: 1}","[1, 5, 6, 16, 71]",1185362161711,Lu1B3H18C2S1
B8P2H18IrC8Cl,mp-1198815,0.29660000000000003,0.0782847,0.46849118232034304,"{5: 8, 15: 2, 1: 18, 77: 1, 6: 8, 17: 1}","[1, 5, 6, 15, 17, 77]",1185868152171771,B8P2H18Ir1C8Cl1
AlH18CS2N3O14,mp-721813,5.2842,-0.7983704,0.018169943963681767,"{13: 1, 1: 18, 6: 1, 16: 2, 7: 3, 8: 14}","[1, 6, 7, 8, 13, 16]",1186173814131162,Al1H18C1S2N3O14
CoH18CN6ClO3,mp-1204043,2.3067,0.13932731,0.0,"{27: 1, 1: 18, 6: 1, 7: 6, 17: 1, 8: 3}","[1, 6, 7, 8, 17, 27]",118617683171271,Co1H18C1N6Cl1O3
K2Mn7H18(C9O20)2,mp-746793,0.0,-0.87775566,0.3001221975441135,"{19: 2, 25: 7, 1: 18, 6: 18, 8: 40}","[1, 6, 8, 19, 25]",118618840192257,K2Mn7H18C18O40
NdAgH18C20(NO2)6,mp-1221003,3.0324999999999998,2.73122677,0.22342392145831358,"{60: 1, 47: 1, 1: 18, 6: 20, 7: 6, 8: 12}","[1, 6, 7, 8, 47, 60]",11862076812471601,Nd1Ag1H18C20N6O12
TbAgH18C20(NO2)6,mp-1217856,2.9866,2.78808594,0.21865939239223486,"{65: 1, 47: 1, 1: 18, 6: 20, 7: 6, 8: 12}","[1, 6, 7, 8, 47, 65]",11862076812471651,Tb1Ag1H18C20N6O12
CoH18C2(NO)16,mp-1198099,1.8012000000000001,1.60261319,0.41882839451887666,"{27: 1, 1: 18, 6: 2, 7: 16, 8: 16}","[1, 6, 7, 8, 27]",11862716816271,Co1H18C2N16O16
SiH18C2N8(OF3)2,mp-766429,4.9958,-1.11915902,0.09011034080579527,"{14: 1, 1: 18, 6: 2, 7: 8, 8: 2, 9: 6}","[1, 6, 7, 8, 9, 14]",11862788296141,Si1H18C2N8O2F6
SbH18C3(NCl2)3,mp-569604,2.9469000000000003,-0.04313021,0.029692754798384513,"{51: 1, 1: 18, 6: 3, 7: 3, 17: 6}","[1, 6, 7, 17, 51]",1186373176511,Sb1H18C3N3Cl6
Al3P4H18C3N3O16,mp-738697,5.2174000000000005,-0.78787406,0.03138742921099169,"{13: 3, 15: 4, 1: 18, 6: 3, 7: 3, 8: 16}","[1, 6, 7, 8, 13, 15]",1186373816133154,Al3P4H18C3N3O16
Sb2H18C3(IN)9,mp-1202009,2.4614000000000003,0.13255521,0.0,"{51: 2, 1: 18, 6: 3, 53: 9, 7: 9}","[1, 6, 7, 51, 53]",1186379512539,Sb2H18C3I9N9
Bi2H18C3(IN)9,mp-1016214,2.786,0.09339052,0.0,"{83: 2, 1: 18, 6: 3, 53: 9, 7: 9}","[1, 6, 7, 53, 83]",1186379539832,Bi2H18C3I9N9
AlH18C3(N3F2)3,mp-24554,5.3017,-1.34535725,0.0,"{13: 1, 1: 18, 6: 3, 7: 9, 9: 6}","[1, 6, 7, 9, 13]",118637996131,Al1H18C3N9F6
GaH18C3(N3F2)3,mp-23984,4.9737,-1.41871302,0.0,"{31: 1, 1: 18, 6: 3, 7: 9, 9: 6}","[1, 6, 7, 9, 31]",118637996311,Ga1H18C3N9F6
LaH18C3S3(O2F)9,mp-540953,5.3933,-2.21731013,0.14447055743735682,"{57: 1, 1: 18, 6: 3, 16: 3, 8: 18, 9: 9}","[1, 6, 8, 9, 16, 57]",1186381899163571,La1H18C3S3O18F9
NdH18C3S3(O2F)9,mp-543032,6.0476,-2.41345677,0.14834418564248608,"{60: 1, 1: 18, 6: 3, 16: 3, 8: 18, 9: 9}","[1, 6, 8, 9, 16, 60]",1186381899163601,Nd1H18C3S3O18F9
GdH18C3S3(O2F)9,mp-707824,5.9201,-2.45532646,0.13528165876747789,"{64: 1, 1: 18, 6: 3, 16: 3, 8: 18, 9: 9}","[1, 6, 8, 9, 16, 64]",1186381899163641,Gd1H18C3S3O18F9
HoH18C3S3(O2F)9,mp-541101,5.9498,-2.16303201,0.145091799680932,"{67: 1, 1: 18, 6: 3, 16: 3, 8: 18, 9: 9}","[1, 6, 8, 9, 16, 67]",1186381899163671,Ho1H18C3S3O18F9
LuH18C3S3(O2F)9,mp-540955,5.7735,-1.98758426,0.1462980133027445,"{71: 1, 1: 18, 6: 3, 16: 3, 8: 18, 9: 9}","[1, 6, 8, 9, 16, 71]",1186381899163711,Lu1H18C3S3O18F9
BiH18C3S3(O2F)9,mp-1199850,0.00010000000000021103,3.49217089,0.14191475679633392,"{83: 1, 1: 18, 6: 3, 16: 3, 8: 18, 9: 9}","[1, 6, 8, 9, 16, 83]",1186381899163831,Bi1H18C3S3O18F9
PuH18C3S3(O2F)9,mp-505716,0.0,1.20164862,0.14862084810131115,"{94: 1, 1: 18, 6: 3, 16: 3, 8: 18, 9: 9}","[1, 6, 8, 9, 16, 94]",1186381899163941,Pu1H18C3S3O18F9
UH18C4N10O13,mp-1199760,1.7439,-0.77521568,0.14653885933573463,"{92: 1, 1: 18, 6: 4, 7: 10, 8: 13}","[1, 6, 7, 8, 92]",11864710813921,U1H18C4N10O13
UH18C4Se2N2O11,mp-1195161,2.3095,1.25172507,0.2856741209293139,"{92: 1, 1: 18, 6: 4, 34: 2, 7: 2, 8: 11}","[1, 6, 7, 8, 34, 92]",1186472811342921,U1H18C4Se2N2O11
U2H18C4Se3N2O17,mp-1195410,2.307,-1.09205383,0.3232364650735988,"{92: 2, 1: 18, 6: 4, 34: 3, 7: 2, 8: 17}","[1, 6, 7, 8, 34, 92]",1186472817343922,U2H18C4Se3N2O17
SnH18W3C4(NO2)6,mp-1198359,0.1794,-1.19011412,0.23218645383263947,"{50: 1, 1: 18, 74: 3, 6: 4, 7: 6, 8: 12}","[1, 6, 7, 8, 50, 74]",1186476812501743,Sn1H18W3C4N6O12
GdH18C4N6Cl3O8,mp-1213594,3.1385,-1.58197608,0.01847525041665321,"{64: 1, 1: 18, 6: 4, 7: 6, 17: 3, 8: 8}","[1, 6, 7, 8, 17, 64]",118647688173641,Gd1H18C4N6Cl3O8
CoH18C4N7O8,mp-562903,2.7884,-0.95746895,0.4046591108851647,"{27: 1, 1: 18, 6: 4, 7: 7, 8: 8}","[1, 6, 7, 8, 27]",118647788271,Co1H18C4N7O8
H18RhC4N7O8,mp-1194707,2.6578999999999997,-1.22146559,0.37251088938596233,"{1: 18, 45: 1, 6: 4, 7: 7, 8: 8}","[1, 6, 7, 8, 45]",118647788451,H18Rh1C4N7O8
AgH18C4S4BrN8O,mp-1200682,3.103,-0.14198553,0.023276665279281517,"{47: 1, 1: 18, 6: 4, 16: 4, 35: 1, 7: 8, 8: 1}","[1, 6, 7, 8, 16, 35, 47]",118647881164351471,Ag1H18C4S4Br1N8O1
MnH18C4N8(ClO)4,mp-735514,3.8965,0.5584588,0.022421599085457267,"{25: 1, 1: 18, 6: 4, 7: 8, 17: 4, 8: 4}","[1, 6, 7, 8, 17, 25]",118647884174251,Mn1H18C4N8Cl4O4
CoH18C4N8(ClO)4,mp-728733,3.0187,-0.18286676,0.01998341882478538,"{27: 1, 1: 18, 6: 4, 7: 8, 17: 4, 8: 4}","[1, 6, 7, 8, 17, 27]",118647884174271,Co1H18C4N8Cl4O4
SiH18C4N8(O2F3)2,mp-720721,5.474,-1.31307092,0.029689395860435397,"{14: 1, 1: 18, 6: 4, 7: 8, 8: 4, 9: 6}","[1, 6, 7, 8, 9, 14]",11864788496141,Si1H18C4N8O4F6
MgH18C4SN8O9,mp-707938,5.0242,-0.85775239,0.01148607777390609,"{12: 1, 1: 18, 6: 4, 16: 1, 7: 8, 8: 9}","[1, 6, 7, 8, 12, 16]",118647889121161,Mg1H18C4S1N8O9
CrH18C5(NO)4,mp-867518,2.9703,-1.64533806,0.1744566338867184,"{24: 1, 1: 18, 6: 5, 7: 4, 8: 4}","[1, 6, 7, 8, 24]",118657484241,Cr1H18C5N4O4
MoH18C5(NO)4,mp-867519,4.346500000000001,-1.7877395,0.11579134478515307,"{42: 1, 1: 18, 6: 5, 7: 4, 8: 4}","[1, 6, 7, 8, 42]",118657484421,Mo1H18C5N4O4
AlSnPH18(C3Cl2)2,mp-1199681,5.2635000000000005,-2.52663136,0.037001641915323624,"{13: 1, 50: 1, 15: 1, 1: 18, 6: 6, 17: 4}","[1, 6, 13, 15, 17, 50]",11866131151174501,Al1Sn1P1H18C6Cl4
AlP2H18(C2Cl)3,mp-1197086,4.8347,-1.57742144,0.008629583407737229,"{13: 1, 15: 2, 1: 18, 6: 6, 17: 3}","[1, 6, 13, 15, 17]",11866131152173,Al1P2H18C6Cl3
SiP2H18(C3Cl2)2,mp-1200839,3.8574,-1.0645071,0.021046804902073113,"{14: 1, 15: 2, 1: 18, 6: 6, 17: 4}","[1, 6, 14, 15, 17]",11866141152174,Si1P2H18C6Cl4
SiP2H18(C3Br2)2,mp-1198259,2.746,-0.81675822,0.01634336679723436,"{14: 1, 15: 2, 1: 18, 6: 6, 35: 4}","[1, 6, 14, 15, 35]",11866141152354,Si1P2H18C6Br4
Si2Te(H3C)6,mp-1194741,3.4202,-1.09346416,0.017056872911306087,"{14: 2, 52: 1, 1: 18, 6: 6}","[1, 6, 14, 52]",11866142521,Si2Te1H18C6
MoP2H18(C3Cl)2,mp-1197741,1.2965,0.08453111,0.10738413650861833,"{42: 1, 15: 2, 1: 18, 6: 6, 17: 2}","[1, 6, 15, 17, 42]",11866152172421,Mo1P2H18C6Cl2
TcP2H18(C3Br)2,mp-1196787,1.1176,0.53949321,0.023932763192529016,"{43: 1, 15: 2, 1: 18, 6: 6, 35: 2}","[1, 6, 15, 35, 43]",11866152352431,Tc1P2H18C6Br2
H18RuC6(SCl)3,mp-759409,3.1839000000000004,0.35888381,0.05706714599366336,"{1: 18, 44: 1, 6: 6, 16: 3, 17: 3}","[1, 6, 16, 17, 44]",11866163173441,H18Ru1C6S3Cl3
SiPH18C6INCl,mp-738707,2.7535,-0.96602818,0.09588396046759406,"{14: 1, 15: 1, 1: 18, 6: 6, 53: 1, 7: 1, 17: 1}","[1, 6, 7, 14, 15, 17, 53]",1186671141151171531,Si1P1H18C6I1N1Cl1
RbSi2H18C6N,mp-567899,3.1473,-0.37780967,0.027760643861355128,"{37: 1, 14: 2, 1: 18, 6: 6, 7: 1}","[1, 6, 7, 14, 37]",1186671142371,Rb1Si2H18C6N1