formula,material_id,band_gap,efermi,energy_above_hull,comp_atoms,sorted_keys_comp_atoms,comp_number,new_formula
H2Pb4C(Cl3O2)2,mp-734875,3.55,2.04697354,0.03257668808823588,"{1: 2, 82: 4, 6: 1, 17: 6, 8: 4}","[1, 6, 8, 17, 82]",126184176824,H2Pb4C1Cl6O4
CaH2CO4,mp-560832,5.217,0.54300237,0.02282208059028079,"{20: 1, 1: 2, 6: 1, 8: 4}","[1, 6, 8, 20]",126184201,Ca1H2C1O4
NaH2CSO4F3,mp-601202,5.766400000000001,-1.46618549,0.1694395404136344,"{11: 1, 1: 2, 6: 1, 16: 1, 8: 4, 9: 3}","[1, 6, 8, 9, 11, 16]",12618493111161,Na1H2C1S1O4F3
SbH2C(O2F3)2,mp-1179607,1.7239,0.17101042,0.0479564572916642,"{51: 1, 1: 2, 6: 1, 8: 4, 9: 6}","[1, 6, 8, 9, 51]",12618496511,Sb1H2C1O4F6
NaAlH2CO5,mp-644506,4.943,0.82828263,0.0,"{11: 1, 13: 1, 1: 2, 6: 1, 8: 5}","[1, 6, 8, 11, 13]",126185111131,Na1Al1H2C1O5
KAlH2CO5,mp-644285,5.0845,0.52932433,0.0,"{19: 1, 13: 1, 1: 2, 6: 1, 8: 5}","[1, 6, 8, 13, 19]",126185131191,K1Al1H2C1O5
Ti2H2CSe4Cl16O5,mp-1200489,2.4765,-1.54334547,0.10701021549132239,"{22: 2, 1: 2, 6: 1, 34: 4, 17: 16, 8: 5}","[1, 6, 8, 17, 22, 34]",1261851716222344,Ti2H2C1Se4Cl16O5
Co2H2CO5,mp-1202876,2.3651999999999997,1.62051191,0.02688312724999875,"{27: 2, 1: 2, 6: 1, 8: 5}","[1, 6, 8, 27]",126185272,Co2H2C1O5
MnPH2CO6,mp-760042,2.8021,1.26387599,0.020107186988629344,"{25: 1, 15: 1, 1: 2, 6: 1, 8: 6}","[1, 6, 8, 15, 25]",126186151251,Mn1P1H2C1O6
LaP2H2CO6,mp-1191399,0.0,1.31000662,0.24806936542500324,"{57: 1, 15: 2, 1: 2, 6: 1, 8: 6}","[1, 6, 8, 15, 57]",126186152571,La1P2H2C1O6
CeP2H2CO6,mp-1190805,1.3065,2.80466379,0.0783593301517751,"{58: 1, 15: 2, 1: 2, 6: 1, 8: 6}","[1, 6, 8, 15, 58]",126186152581,Ce1P2H2C1O6
PrP2H2CO6,mp-1190971,0.020199999999999996,0.45932297,0.23483338136011156,"{59: 1, 15: 2, 1: 2, 6: 1, 8: 6}","[1, 6, 8, 15, 59]",126186152591,Pr1P2H2C1O6
NdP2H2CO6,mp-1191082,0.005099999999999993,0.4602682,0.23304393819344504,"{60: 1, 15: 2, 1: 2, 6: 1, 8: 6}","[1, 6, 8, 15, 60]",126186152601,Nd1P2H2C1O6
SmP2H2CO6,mp-1191715,0.022399999999999975,0.53107669,0.23337914836011198,"{62: 1, 15: 2, 1: 2, 6: 1, 8: 6}","[1, 6, 8, 15, 62]",126186152621,Sm1P2H2C1O6
PuP2H2CO6,mp-1191555,0.15259999999999962,3.38285809,0.04701084730519689,"{94: 1, 15: 2, 1: 2, 6: 1, 8: 6}","[1, 6, 8, 15, 94]",126186152941,Pu1P2H2C1O6
NaCeP2H2CO7,mp-1196604,0.7201000000000002,2.08290213,0.3012252191964304,"{11: 1, 58: 1, 15: 2, 1: 2, 6: 1, 8: 7}","[1, 6, 8, 11, 15, 58]",126187111152581,Na1Ce1P2H2C1O7
NaNdP2H2CO7,mp-1195779,0.25029999999999997,0.53229485,0.418149526398814,"{11: 1, 60: 1, 15: 2, 1: 2, 6: 1, 8: 7}","[1, 6, 8, 11, 15, 60]",126187111152601,Na1Nd1P2H2C1O7
NaGdP2H2CO7,mp-1202938,0.27149999999999996,0.843552,0.41664138104167137,"{11: 1, 64: 1, 15: 2, 1: 2, 6: 1, 8: 7}","[1, 6, 8, 11, 15, 64]",126187111152641,Na1Gd1P2H2C1O7
NaTbP2H2CO7,mp-1199113,0.43610000000000004,0.77287446,0.4181004315773844,"{11: 1, 65: 1, 15: 2, 1: 2, 6: 1, 8: 7}","[1, 6, 8, 11, 15, 65]",126187111152651,Na1Tb1P2H2C1O7
NaDyP2H2CO7,mp-1204537,0.45809999999999995,0.78852434,0.41908575318452357,"{11: 1, 66: 1, 15: 2, 1: 2, 6: 1, 8: 7}","[1, 6, 8, 11, 15, 66]",126187111152661,Na1Dy1P2H2C1O7
NaLuP2H2CO7,mp-1221113,0.1746,0.01032513,0.44295987937499515,"{11: 1, 71: 1, 15: 2, 1: 2, 6: 1, 8: 7}","[1, 6, 8, 11, 15, 71]",126187111152711,Na1Lu1P2H2C1O7
Mn2PH2CO7,mp-758109,1.0754000000000001,2.44170795,0.016817738750028788,"{25: 2, 15: 1, 1: 2, 6: 1, 8: 7}","[1, 6, 8, 15, 25]",126187151252,Mn2P1H2C1O7
Co2PH2CO7,mp-23823,2.4370000000000003,1.34113194,0.022314489086531886,"{27: 2, 15: 1, 1: 2, 6: 1, 8: 7}","[1, 6, 8, 15, 27]",126187151272,Co2P1H2C1O7
Zn2PH2CO7,mp-23838,3.4344,0.38403173,0.02103804947114707,"{30: 2, 15: 1, 1: 2, 6: 1, 8: 7}","[1, 6, 8, 15, 30]",126187151302,Zn2P1H2C1O7
UP2H2CO7,mp-1197788,1.7621,1.06646325,0.1557811674999936,"{92: 1, 15: 2, 1: 2, 6: 1, 8: 7}","[1, 6, 8, 15, 92]",126187152921,U1P2H2C1O7
UAg2P2H2CO8,mp-1194811,1.3522999999999998,3.03008692,0.1959415221354206,"{92: 1, 47: 2, 15: 2, 1: 2, 6: 1, 8: 8}","[1, 6, 8, 15, 47, 92]",126188152472921,U1Ag2P2H2C1O8
ThP2H2CO8,mp-1199323,1.9858,1.71799024,0.7290199021428698,"{90: 1, 15: 2, 1: 2, 6: 1, 8: 8}","[1, 6, 8, 15, 90]",126188152901,Th1P2H2C1O8
NpP2H2CO8,mp-1198291,0.12,0.65911036,0.3997248727976235,"{93: 1, 15: 2, 1: 2, 6: 1, 8: 8}","[1, 6, 8, 15, 93]",126188152931,Np1P2H2C1O8
H2Ru6C18SO20,mp-720807,1.1982,0.12216573,0.17545553984042606,"{1: 2, 44: 6, 6: 18, 16: 1, 8: 20}","[1, 6, 8, 16, 44]",12618820161446,H2Ru6C18S1O20
Cd3H2CSeO8,mp-697981,2.763,0.61740567,0.005206933166665095,"{48: 3, 1: 2, 6: 1, 34: 1, 8: 8}","[1, 6, 8, 34, 48]",126188341483,Cd3H2C1Se1O8
UP2H2CO9,mp-1199367,0.30879999999999996,-0.43750407,0.7271370362499914,"{92: 1, 15: 2, 1: 2, 6: 1, 8: 9}","[1, 6, 8, 15, 92]",126189152921,U1P2H2C1O9
H2C2S,mp-1096982,0.0,6.04192461,0.9651976602857149,"{1: 2, 6: 2, 16: 1}","[1, 6, 16]",1262161,H2C2S1
Hg2H2C2NCl5,mp-736665,0.5335000000000001,-1.55469882,0.7324692067013898,"{80: 2, 1: 2, 6: 2, 7: 1, 17: 5}","[1, 6, 7, 17, 80]",126271175802,Hg2H2C2N1Cl5
AsH2C2NCl2O,mp-690847,0.4762,-0.45183666,0.43517374435185285,"{33: 1, 1: 2, 6: 2, 7: 1, 17: 2, 8: 1}","[1, 6, 7, 8, 17, 33]",12627181172331,As1H2C2N1Cl2O1
CeH2C2SNO9,mp-1202043,0.6019999999999999,0.41298393,0.38177729910466773,"{58: 1, 1: 2, 6: 2, 16: 1, 7: 1, 8: 9}","[1, 6, 7, 8, 16, 58]",12627189161581,Ce1H2C2S1N1O9
GdH2C2SNO9,mp-1200033,0.3791,0.19906932,0.4562342181712937,"{64: 1, 1: 2, 6: 2, 16: 1, 7: 1, 8: 9}","[1, 6, 7, 8, 16, 64]",12627189161641,Gd1H2C2S1N1O9
TbH2C2SNO9,mp-1203992,0.4855,0.49026196,0.4563346050520858,"{65: 1, 1: 2, 6: 2, 16: 1, 7: 1, 8: 9}","[1, 6, 7, 8, 16, 65]",12627189161651,Tb1H2C2S1N1O9
DyH2C2SNO9,mp-1198602,0.4111,0.54204136,0.4607168999218736,"{66: 1, 1: 2, 6: 2, 16: 1, 7: 1, 8: 9}","[1, 6, 7, 8, 16, 66]",12627189161661,Dy1H2C2S1N1O9
ErH2C2SNO9,mp-1199285,0.4595,0.38998171,0.4660787216666673,"{68: 1, 1: 2, 6: 2, 16: 1, 7: 1, 8: 9}","[1, 6, 7, 8, 16, 68]",12627189161681,Er1H2C2S1N1O9
H2C2N2O,mp-707727,3.9224,-2.182372,0.22371486575396649,"{1: 2, 6: 2, 7: 2, 8: 1}","[1, 6, 7, 8]",12627281,H2C2N2O1
K2H2C2S2N2O,mp-722245,2.3712000000000004,0.04137986,0.09075391969114133,"{19: 2, 1: 2, 6: 2, 16: 2, 7: 2, 8: 1}","[1, 6, 7, 8, 16, 19]",12627281162192,K2H2C2S2N2O1
H2C2S3N2(OF)6,mp-723065,5.8983,-1.20876033,0.24556545576835287,"{1: 2, 6: 2, 16: 3, 7: 2, 8: 6, 9: 6}","[1, 6, 7, 8, 9, 16]",1262728696163,H2C2S3N2O6F6
AgSbH2C2(NF3)2,mp-690698,2.8326000000000002,-1.41601534,0.16101502581845217,"{47: 1, 51: 1, 1: 2, 6: 2, 7: 2, 9: 6}","[1, 6, 7, 9, 47, 51]",12627296471511,Ag1Sb1H2C2N2F6
H2C2N3,mp-1212626,3.9448999999999996,1.76259027,0.22561301749999263,"{1: 2, 6: 2, 7: 3}","[1, 6, 7]",126273,H2C2N3
NaH2C2N3O,mp-758632,3.7863,-0.34036982,0.06827175920782125,"{11: 1, 1: 2, 6: 2, 7: 3, 8: 1}","[1, 6, 7, 8, 11]",12627381111,Na1H2C2N3O1
AgH2C2N3O,mp-707277,3.2954,0.03485559,0.15227740754629782,"{47: 1, 1: 2, 6: 2, 7: 3, 8: 1}","[1, 6, 7, 8, 47]",12627381471,Ag1H2C2N3O1
CoH2(CN2)2,mp-1181855,0.0,2.09353104,0.24778724055556012,"{27: 1, 1: 2, 6: 2, 7: 4}","[1, 6, 7, 27]",126274271,Co1H2C2N4
Ag2H2C2N6O13,mp-1196868,1.8311000000000002,1.43451154,0.3936339904000006,"{47: 2, 1: 2, 6: 2, 7: 6, 8: 13}","[1, 6, 7, 8, 47]",126276813472,Ag2H2C2N6O13
K3VH2(CO5)2,mp-559433,2.2312,0.21799323,0.17283015638889765,"{19: 3, 23: 1, 1: 2, 6: 2, 8: 10}","[1, 6, 8, 19, 23]",1262810193231,K3V1H2C2O10
MgH2(CO2)2,mp-1197697,4.7463999999999995,3.24223266,0.11939457939815057,"{12: 1, 1: 2, 6: 2, 8: 4}","[1, 6, 8, 12]",126284121,Mg1H2C2O4
CaH2(CO2)2,mp-23685,4.6455,-0.98570013,0.12843500472222757,"{20: 1, 1: 2, 6: 2, 8: 4}","[1, 6, 8, 20]",126284201,Ca1H2C2O4
MnH2(CO2)2,mp-558013,3.4661,-0.03050495,0.13303513833333103,"{25: 1, 1: 2, 6: 2, 8: 4}","[1, 6, 8, 25]",126284251,Mn1H2C2O4
CoH2(CO2)2,mp-1203827,2.1843,-1.77694107,0.16277003314814742,"{27: 1, 1: 2, 6: 2, 8: 4}","[1, 6, 8, 27]",126284271,Co1H2C2O4
ZnH2(CO2)2,mp-557581,4.5082,-2.50042152,0.1188848367592632,"{30: 1, 1: 2, 6: 2, 8: 4}","[1, 6, 8, 30]",126284301,Zn1H2C2O4
SrH2(CO2)2,mp-556478,4.6789,-0.73732166,0.13300812472222923,"{38: 1, 1: 2, 6: 2, 8: 4}","[1, 6, 8, 38]",126284381,Sr1H2C2O4
MoH2(CO2)2,mp-558250,0.9979,0.94230106,0.32849474986111016,"{42: 1, 1: 2, 6: 2, 8: 4}","[1, 6, 8, 42]",126284421,Mo1H2C2O4
CdH2(CO2)2,mp-644265,4.2235,-1.18207471,0.14389708333333306,"{48: 1, 1: 2, 6: 2, 8: 4}","[1, 6, 8, 48]",126284481,Cd1H2C2O4
H2Pb(CO2)2,mp-1197463,3.9997000000000003,4.7945499,0.13608335111111192,"{1: 2, 82: 1, 6: 2, 8: 4}","[1, 6, 8, 82]",126284821,H2Pb1C2O4
K2H2C2O5,mp-1190598,3.3983999999999996,-0.70020277,0.04496886886362805,"{19: 2, 1: 2, 6: 2, 8: 5}","[1, 6, 8, 19]",126285192,K2H2C2O5
CaH2C2O5,mp-557769,3.5377,-0.38290054,0.03609173025000256,"{20: 1, 1: 2, 6: 2, 8: 5}","[1, 6, 8, 20]",126285201,Ca1H2C2O5
Rb2H2C2O5,mp-974667,3.433,-0.71049604,0.04416106659090602,"{37: 2, 1: 2, 6: 2, 8: 5}","[1, 6, 8, 37]",126285372,Rb2H2C2O5
Cs2H2C2O5,mp-1190751,3.4412000000000003,-0.25154126,0.03643083594696872,"{55: 2, 1: 2, 6: 2, 8: 5}","[1, 6, 8, 55]",126285552,Cs2H2C2O5
NaZnPH2(CO3)2,mp-1202889,4.4997,5.14933335,0.1589655676923023,"{11: 1, 30: 1, 15: 1, 1: 2, 6: 2, 8: 6}","[1, 6, 8, 11, 15, 30]",126286111151301,Na1Zn1P1H2C2O6
CsMoH2C2SO7,mp-1238260,0.017600000000000005,-0.0882655,0.34638229087053585,"{55: 1, 42: 1, 1: 2, 6: 2, 16: 1, 8: 7}","[1, 6, 8, 16, 42, 55]",126287161421551,Cs1Mo1H2C2S1O7
K2MoH2(CO4)2,mp-557603,3.1134,-1.08317086,0.09483365733333304,"{19: 2, 42: 1, 1: 2, 6: 2, 8: 8}","[1, 6, 8, 19, 42]",126288192421,K2Mo1H2C2O8
KGdH2C2SO9,mp-1212322,2.7929999999999997,2.94509998,0.03505149994318213,"{19: 1, 64: 1, 1: 2, 6: 2, 16: 1, 8: 9}","[1, 6, 8, 16, 19, 64]",126289161191641,K1Gd1H2C2S1O9
KTbH2C2SO9,mp-1199480,3.0575,0.31554106,0.033986197919034566,"{19: 1, 65: 1, 1: 2, 6: 2, 16: 1, 8: 9}","[1, 6, 8, 16, 19, 65]",126289161191651,K1Tb1H2C2S1O9
KDyH2C2SO9,mp-605166,3.0287,0.25316301,0.03521473854225743,"{19: 1, 66: 1, 1: 2, 6: 2, 16: 1, 8: 9}","[1, 6, 8, 16, 19, 66]",126289161191661,K1Dy1H2C2S1O9
TbAgH2C2SO9,mp-866806,2.9054,0.71497761,0.05122598545138679,"{65: 1, 47: 1, 1: 2, 6: 2, 16: 1, 8: 9}","[1, 6, 8, 16, 47, 65]",126289161471651,Tb1Ag1H2C2S1O9
DyAgH2C2SO9,mp-866657,2.9023,0.6161081,0.061159473715277635,"{66: 1, 47: 1, 1: 2, 6: 2, 16: 1, 8: 9}","[1, 6, 8, 16, 47, 66]",126289161471661,Dy1Ag1H2C2S1O9
PrH2C2Cl2O9,mp-1200964,0.6214000000000001,0.91582776,0.2675892550130179,"{59: 1, 1: 2, 6: 2, 17: 2, 8: 9}","[1, 6, 8, 17, 59]",126289172591,Pr1H2C2Cl2O9
NdH2C2Cl2O9,mp-1197929,0.8022,1.09598885,0.277316966957466,"{60: 1, 1: 2, 6: 2, 17: 2, 8: 9}","[1, 6, 8, 17, 60]",126289172601,Nd1H2C2Cl2O9
H2C3,mp-995217,1.9102000000000001,0.26249259,0.14342072074999912,"{1: 2, 6: 3}","[1, 6]",1263,H2C3
H2C3NClOF4,mp-1212621,4.3321000000000005,-1.85875925,0.11605621781539455,"{1: 2, 6: 3, 7: 1, 17: 1, 8: 1, 9: 4}","[1, 6, 7, 8, 9, 17]",1263718194171,H2C3N1Cl1O1F4
H2C3N2O3,mp-1212515,2.7327,-1.35346637,0.08768997870833317,"{1: 2, 6: 3, 7: 2, 8: 3}","[1, 6, 7, 8]",12637283,H2C3N2O3
H2C3(N2Cl)2,mp-698476,3.4962,-0.5069534,0.01623510724747579,"{1: 2, 6: 3, 7: 4, 17: 2}","[1, 6, 7, 17]",126374172,H2C3N4Cl2
H2C3O4,mp-559232,3.4866,-1.84120715,0.2616166084722238,"{1: 2, 6: 3, 8: 4}","[1, 6, 8]",126384,H2C3O4
H2RuC3(ClO2)2,mp-758659,3.0263,-0.85434503,0.052640786770833614,"{1: 2, 44: 1, 6: 3, 17: 2, 8: 4}","[1, 6, 8, 17, 44]",126384172441,H2Ru1C3Cl2O4
NaMgH2C3O7,mp-1202242,3.6929,-0.77353433,0.04192495165178922,"{11: 1, 12: 1, 1: 2, 6: 3, 8: 7}","[1, 6, 8, 11, 12]",126387111121,Na1Mg1H2C3O7
NaMnH2C3O7,mp-1210269,2.5658,2.62317866,0.05026802236607342,"{11: 1, 25: 1, 1: 2, 6: 3, 8: 7}","[1, 6, 8, 11, 25]",126387111251,Na1Mn1H2C3O7
NaCoH2C3O7,mp-758128,2.4523,0.02584383,0.04377192843750244,"{11: 1, 27: 1, 1: 2, 6: 3, 8: 7}","[1, 6, 8, 11, 27]",126387111271,Na1Co1H2C3O7
NaZnH2C3O7,mp-1195353,3.4034,-0.73358888,0.037797745758931356,"{11: 1, 30: 1, 1: 2, 6: 3, 8: 7}","[1, 6, 8, 11, 30]",126387111301,Na1Zn1H2C3O7
K2H2C3S2O7F6,mp-699253,5.4139,-0.81136924,0.25323169489324826,"{19: 2, 1: 2, 6: 3, 16: 2, 8: 7, 9: 6}","[1, 6, 8, 9, 16, 19]",12638796162192,K2H2C3S2O7F6
Na2NpH2(CO3)3,mp-560905,0.1942999999999997,2.31150268,0.053857259191173235,"{11: 2, 93: 1, 1: 2, 6: 3, 8: 9}","[1, 6, 8, 11, 93]",126389112931,Na2Np1H2C3O9
KH2C4N3O4,mp-1212361,1.5912,-1.31476168,0.7682588252678597,"{19: 1, 1: 2, 6: 4, 7: 3, 8: 4}","[1, 6, 7, 8, 19]",12647384191,K1H2C4N3O4
ZnH2C4(S3N2)2,mp-1207565,2.3203,3.3880398,0.1922412415966379,"{30: 1, 1: 2, 6: 4, 16: 6, 7: 4}","[1, 6, 7, 16, 30]",126474166301,Zn1H2C4S6N4
CdH2C4(S3N2)2,mp-1199936,2.3750999999999998,0.9534749,0.19063933056722515,"{48: 1, 1: 2, 6: 4, 16: 6, 7: 4}","[1, 6, 7, 16, 48]",126474166481,Cd1H2C4S6N4
KH2AuC4N4O,mp-1196083,4.2733,1.38133692,0.35020375017095073,"{19: 1, 1: 2, 79: 1, 6: 4, 7: 4, 8: 1}","[1, 6, 7, 8, 19, 79]",12647481191791,K1H2Au1C4N4O1
Na7AlH2C4(O3F)4,mp-707443,4.805499999999999,0.44492619,0.0,"{11: 7, 13: 1, 1: 2, 6: 4, 8: 12, 9: 4}","[1, 6, 8, 9, 11, 13]",126481294117131,Na7Al1H2C4O12F4
Na4Cd3H2(C2O7)2,mp-1195487,2.6660000000000004,3.33094958,0.0,"{11: 4, 48: 3, 1: 2, 6: 4, 8: 14}","[1, 6, 8, 11, 48]",1264814114483,Na4Cd3H2C4O14
SnH2C4O3,mp-1049181,0.08800000000000008,2.33622752,0.7007717522499979,"{50: 1, 1: 2, 6: 4, 8: 3}","[1, 6, 8, 50]",126483501,Sn1H2C4O3
H2C4(OF2)3,mp-1201866,5.2961,2.45725429,0.14166090308333512,"{1: 2, 6: 4, 8: 3, 9: 6}","[1, 6, 8, 9]",12648396,H2C4O3F6
MnPH2(CO)4,mp-727956,3.9228,-0.69701562,0.7426045618576369,"{25: 1, 15: 1, 1: 2, 6: 4, 8: 4}","[1, 6, 8, 15, 25]",126484151251,Mn1P1H2C4O4
GeH2(C2F5)2,mp-1194908,6.3321000000000005,-3.57435833,0.34967441397058696,"{32: 1, 1: 2, 6: 4, 9: 10}","[1, 6, 9, 32]",1264910321,Ge1H2C4F10
AgB10H26C6N,mp-738633,3.8864,-0.81929027,0.14357852718434216,"{47: 1, 5: 10, 1: 26, 6: 6, 7: 1}","[1, 5, 6, 7, 47]",1265106671471,Ag1B10H26C6N1
B2H26C8N20Cl2O,mp-1204048,4.1207,-0.38209211,0.0,"{5: 2, 1: 26, 6: 8, 7: 20, 17: 2, 8: 1}","[1, 5, 6, 7, 8, 17]",126526872081172,B2H26C8N20Cl2O1
Na2LaH2C5O11,mp-1200522,3.4055000000000004,3.3569622,0.03448751342261236,"{11: 2, 57: 1, 1: 2, 6: 5, 8: 11}","[1, 6, 8, 11, 57]",1265811112571,Na2La1H2C5O11
Na2CeH2C5O11,mp-1204151,0.2017000000000002,2.94714155,0.03401362247023609,"{11: 2, 58: 1, 1: 2, 6: 5, 8: 11}","[1, 6, 8, 11, 58]",1265811112581,Na2Ce1H2C5O11
VH26(C3O)4,mp-1217000,2.0585,0.53401292,0.14629363114825278,"{23: 1, 1: 26, 6: 12, 8: 4}","[1, 6, 8, 23]",12661284231,V1H26C12O4
H26Pd4Pt(C11O8)2,mp-1195183,1.8833,0.88283708,0.21478894266304227,"{1: 26, 46: 4, 78: 1, 6: 22, 8: 16}","[1, 6, 8, 46, 78]",126622816464781,H26Pd4Pt1C22O16
H26Pd5(C11O8)2,mp-1195390,2.0046,0.82942705,0.21141182874999842,"{1: 26, 46: 5, 6: 22, 8: 16}","[1, 6, 8, 46]",126622816465,H26Pd5C22O16
H26OsC6S6Br3N12O,mp-1196552,0.12939999999999996,0.43883057,0.17054748630143735,"{1: 26, 76: 1, 6: 6, 16: 6, 35: 3, 7: 12, 8: 1}","[1, 6, 7, 8, 16, 35, 76]",1266671281166353761,H26Os1C6S6Br3N12O1
CdRe2H26C6S6(N4O3)3,mp-1203976,2.5258000000000003,-0.02101863,0.08409921801555065,"{48: 1, 75: 2, 1: 26, 6: 6, 16: 6, 7: 12, 8: 9}","[1, 6, 7, 8, 16, 48, 75]",1266671289166481752,Cd1Re2H26C6S6N12O9
HgH2C6(NCl2)2,mp-736545,0.0,-1.06060638,0.9659575147499995,"{80: 1, 1: 2, 6: 6, 7: 2, 17: 4}","[1, 6, 7, 17, 80]",126672174801,Hg1H2C6N2Cl4
Mo2H26C8N2O5F6,mp-600211,3.8239,-1.13333056,0.16760602693877402,"{42: 2, 1: 26, 6: 8, 7: 2, 8: 5, 9: 6}","[1, 6, 7, 8, 9, 42]",12668728596422,Mo2H26C8N2O5F6
P2H26AuC9Cl3O4,mp-1173427,4.1684,2.2127706,0.3155414020476126,"{15: 2, 1: 26, 79: 1, 6: 9, 17: 3, 8: 4}","[1, 6, 8, 15, 17, 79]",1266984152173791,P2H26Au1C9Cl3O4
CsMo2H2C7S7(OF)21,mp-1198212,2.2331000000000003,0.45371315,0.2586111030544558,"{55: 1, 42: 2, 1: 2, 6: 7, 16: 7, 8: 21, 9: 21}","[1, 6, 8, 9, 16, 42, 55]",1267821921167422551,Cs1Mo2H2C7S7O21F21
AgH2C7O3F5,mp-1215075,2.8293,2.38215157,0.24790082376157407,"{47: 1, 1: 2, 6: 7, 8: 3, 9: 5}","[1, 6, 8, 9, 47]",12678395471,Ag1H2C7O3F5
H2RuC8S3N(ClO)3,mp-711343,0.0,-2.41375477,1.3185669825415731,"{1: 2, 44: 1, 6: 8, 16: 3, 7: 1, 17: 3, 8: 3}","[1, 6, 7, 8, 16, 17, 44]",12687183163173441,H2Ru1C8S3N1Cl3O3
KV2H2C8N2(OF)5,mp-698252,0.3880999999999999,-1.45840374,1.1552333898833416,"{19: 1, 23: 2, 1: 2, 6: 8, 7: 2, 8: 5, 9: 5}","[1, 6, 7, 8, 9, 19, 23]",1268728595191232,K1V2H2C8N2O5F5
H2C8SN3F5,mp-1212674,2.8104,2.50187392,0.22955108984492245,"{1: 2, 6: 8, 16: 1, 7: 3, 9: 5}","[1, 6, 7, 9, 16]",12687395161,H2C8S1N3F5
K2CdH2C8(N3O4)2,mp-1212169,3.6893000000000002,2.39369126,0.07712244333333285,"{19: 2, 48: 1, 1: 2, 6: 8, 7: 6, 8: 8}","[1, 6, 7, 8, 19, 48]",12687688192481,K2Cd1H2C8N6O8
Mn4H2C8O17,mp-1222084,2.2619000000000002,0.41803988,0.058112166370968055,"{25: 4, 1: 2, 6: 8, 8: 17}","[1, 6, 8, 25]",1268817254,Mn4H2C8O17
Na2Mn3P2H2(C4O9)2,mp-1197360,0.43160000000000004,0.31817152,0.4271480269142991,"{11: 2, 25: 3, 15: 2, 1: 2, 6: 8, 8: 18}","[1, 6, 8, 11, 15, 25]",1268818112152253,Na2Mn3P2H2C8O18
H2Ru3C8SO8,mp-707792,2.2268,-0.87077143,0.18596734965909256,"{1: 2, 44: 3, 6: 8, 16: 1, 8: 8}","[1, 6, 8, 16, 44]",126888161443,H2Ru3C8S1O8
H2Os3C8(SO4)2,mp-1203196,2.6992,-0.77560573,0.1580146008152159,"{1: 2, 76: 3, 6: 8, 16: 2, 8: 8}","[1, 6, 8, 16, 76]",126888162763,H2Os3C8S2O8
B13H27C6S3F4,mp-1201750,5.3274,2.90525271,0.03562818250698552,"{5: 13, 1: 27, 6: 6, 16: 3, 9: 4}","[1, 5, 6, 9, 16]",1275136694163,B13H27C6S3F4
KSi2BP(H3C)9,mp-1196639,2.7658,0.01868994,0.07167157179770722,"{19: 1, 14: 2, 5: 1, 15: 1, 1: 27, 6: 9}","[1, 5, 6, 14, 15, 19]",1275169142151191,K1Si2B1P1H27C9
RbSi2BP(H3C)9,mp-1205289,2.6447999999999996,0.09989702,0.07035588343098276,"{37: 1, 14: 2, 5: 1, 15: 1, 1: 27, 6: 9}","[1, 5, 6, 14, 15, 37]",1275169142151371,Rb1Si2B1P1H27C9
Si3BiH27(C5Cl)2,mp-1197314,3.1206,-1.40598871,0.06212504645272432,"{14: 3, 83: 1, 1: 27, 6: 10, 17: 2}","[1, 6, 14, 17, 83]",127610143172831,Si3Bi1H27C10Cl2
SiH27C10N3F2,mp-1173435,3.9255999999999998,-2.29183622,0.1525533333837208,"{14: 1, 1: 27, 6: 10, 7: 3, 9: 2}","[1, 6, 7, 9, 14]",1276107392141,Si1H27C10N3F2
P2H27C10N4Cl,mp-1204629,3.7096,-0.61111744,0.14871937530641155,"{15: 2, 1: 27, 6: 10, 7: 4, 17: 1}","[1, 6, 7, 15, 17]",12761074152171,P2H27C10N4Cl1
HgP5H27C11(OF)6,mp-1199714,0.1373000000000002,-2.06401189,0.2038775671133619,"{80: 1, 15: 5, 1: 27, 6: 11, 8: 6, 9: 6}","[1, 6, 8, 9, 15, 80]",1276118696155801,Hg1P5H27C11O6F6
ZrH27C8N2Cl5O2,mp-738680,3.926,-1.73380134,0.08874502255555772,"{40: 1, 1: 27, 6: 8, 7: 2, 17: 5, 8: 2}","[1, 6, 7, 8, 17, 40]",127687282175401,Zr1H27C8N2Cl5O2
CdSi3PH27C9Br2,mp-604998,3.6784,-1.64487381,0.01795156771297357,"{48: 1, 14: 3, 15: 1, 1: 27, 6: 9, 35: 2}","[1, 6, 14, 15, 35, 48]",12769143151352481,Cd1Si3P1H27C9Br2
CdSi3PH27C9I2,mp-1205257,3.275,-1.03658529,0.014801677371888644,"{48: 1, 14: 3, 15: 1, 1: 27, 6: 9, 53: 2}","[1, 6, 14, 15, 48, 53]",12769143151481532,Cd1Si3P1H27C9I2
Si3As(H3C)9,mp-1197341,3.3859000000000004,-1.3953765,0.03227140019769692,"{14: 3, 33: 1, 1: 27, 6: 9}","[1, 6, 14, 33]",12769143331,Si3As1H27C9
CdSi3AsH27C9I2,mp-1198755,3.2149,-1.13778981,0.018459582226538984,"{48: 1, 14: 3, 33: 1, 1: 27, 6: 9, 53: 2}","[1, 6, 14, 33, 48, 53]",12769143331481532,Cd1Si3As1H27C9I2
TaP2H27C9Cl2,mp-1196107,2.8097000000000003,-1.33201592,0.08480635502743716,"{73: 1, 15: 2, 1: 27, 6: 9, 17: 2}","[1, 6, 15, 17, 73]",12769152172731,Ta1P2H27C9Cl2
Si3PH27C9(NCl)2,mp-1205203,3.7558999999999996,-1.25113875,0.11841290359020462,"{14: 3, 15: 1, 1: 27, 6: 9, 7: 2, 17: 2}","[1, 6, 7, 14, 15, 17]",1276972143151172,Si3P1H27C9N2Cl2
Si3PH27C9BrN2,mp-567146,2.8687,-0.79780195,0.115209937275365,"{14: 3, 15: 1, 1: 27, 6: 9, 35: 1, 7: 2}","[1, 6, 7, 14, 15, 35]",1276972143151351,Si3P1H27C9Br1N2
H27C9S2N3O5,mp-1196498,3.7474,-0.60356832,0.12241980262499919,"{1: 27, 6: 9, 16: 2, 7: 3, 8: 5}","[1, 6, 7, 8, 16]",127697385162,H27C9S2N3O5
MoP3H27C9I2O,mp-1202331,1.1441999999999999,1.5489409,0.0820288808042644,"{42: 1, 15: 3, 1: 27, 6: 9, 53: 2, 8: 1}","[1, 6, 8, 15, 42, 53]",1276981153421532,Mo1P3H27C9I2O1
KSi4H27(C3O)3,mp-1197910,2.7485999999999997,-0.34603419,0.16942367205472397,"{19: 1, 14: 4, 1: 27, 6: 9, 8: 3}","[1, 6, 8, 14, 19]",1276983144191,K1Si4H27C9O3