formula,material_id,band_gap,efermi,energy_above_hull,comp_atoms,sorted_keys_comp_atoms,comp_number,new_formula
RbCo(CO)4,mp-562663,3.6449,-1.03488917,0.3424929449166694,"{37: 1, 27: 1, 6: 4, 8: 4}","[6, 8, 27, 37]",6484271371,Rb1Co1C4O4
CoAg(CO)4,mp-647969,2.5383999999999998,-0.61320067,0.38377799270832913,"{27: 1, 47: 1, 6: 4, 8: 4}","[6, 8, 27, 47]",6484271471,Co1Ag1C4O4
CsCo(CO)4,mp-540895,3.8385,-0.53879082,0.32773387008333366,"{55: 1, 27: 1, 6: 4, 8: 4}","[6, 8, 27, 55]",6484271551,Cs1Co1C4O4
TlCo(CO)4,mp-18789,3.0826,-0.17569087,0.37294377566666803,"{81: 1, 27: 1, 6: 4, 8: 4}","[6, 8, 27, 81]",6484271811,Tl1Co1C4O4
WC4(BrO2)2,mp-650526,1.8238,-1.20761251,0.4394950962121227,"{74: 1, 6: 4, 35: 2, 8: 4}","[6, 8, 35, 74]",6484352741,W1C4Br2O4
MoC4IO4,mp-1201209,0.31299999999999994,0.43918694,0.4346385392916652,"{42: 1, 6: 4, 53: 1, 8: 4}","[6, 8, 42, 53]",6484421531,Mo1C4I1O4
TcC4IO4,mp-662721,2.1419,-0.03265169,0.09091366924999988,"{43: 1, 6: 4, 53: 1, 8: 4}","[6, 8, 43, 53]",6484431531,Tc1C4I1O4
Ru(CO)4,mp-655353,2.1901,0.40656829,0.22009920666666716,"{44: 1, 6: 4, 8: 4}","[6, 8, 44]",6484441,Ru1C4O4
RuC4(IO2)2,mp-672184,2.0610999999999997,0.08060178,0.032745195909090974,"{44: 1, 6: 4, 53: 2, 8: 4}","[6, 8, 44, 53]",6484441532,Ru1C4I2O4
Sn(CO)4,mp-1202685,0.019199999999999995,0.30385222,1.3079452138888925,"{50: 1, 6: 4, 8: 4}","[6, 8, 50]",6484501,Sn1C4O4
ReC4IO4,mp-621953,2.2874000000000003,-0.16170558,0.12924944565278373,"{75: 1, 6: 4, 53: 1, 8: 4}","[6, 8, 53, 75]",6484531751,Re1C4I1O4
Os(CO)4,mp-640748,2.7194000000000003,-0.57743448,0.21407547231481594,"{76: 1, 6: 4, 8: 4}","[6, 8, 76]",6484761,Os1C4O4
Pb(CO)4,mp-1179835,2.951,0.29738826,0.326584922083323,"{82: 1, 6: 4, 8: 4}","[6, 8, 82]",6484821,Pb1C4O4
Sb2Te3MoC4(OF3)4,mp-558675,2.0766,2.02701033,0.20241035766827142,"{51: 2, 52: 3, 42: 1, 6: 4, 8: 4, 9: 12}","[6, 8, 9, 42, 51, 52]",6484912421512523,Sb2Te3Mo1C4O4F12
Sb2Te3WC4(OF3)4,mp-1198791,1.9537,-0.1619774,0.20624073211538452,"{51: 2, 52: 3, 74: 1, 6: 4, 8: 4, 9: 12}","[6, 8, 9, 51, 52, 74]",6484912512523741,Sb2Te3W1C4O4F12
Sb2OsC4(OF3)4,mp-559010,3.6738,-2.71587446,0.057396612771740685,"{51: 2, 76: 1, 6: 4, 8: 4, 9: 12}","[6, 8, 9, 51, 76]",6484912512761,Sb2Os1C4O4F12
Sb4PdC4(O2F11)2,mp-557661,3.2589,-2.95887067,0.13105153578569695,"{51: 4, 46: 1, 6: 4, 8: 4, 9: 22}","[6, 8, 9, 46, 51]",6484922461514,Sb4Pd1C4O4F22
Sb4PtC4(O2F11)2,mp-559420,3.2754,0.63211724,0.10644078235712495,"{51: 4, 78: 1, 6: 4, 8: 4, 9: 22}","[6, 8, 9, 51, 78]",6484922514781,Sb4Pt1C4O4F22
SrC4(O2F3)2,mp-1194723,4.5786,-1.77841382,0.18545223672222022,"{38: 1, 6: 4, 8: 4, 9: 6}","[6, 8, 9, 38]",648496381,Sr1C4O4F6
MoC4(O2F3)2,mp-1210779,1.4749,1.49294577,0.31268698487500046,"{42: 1, 6: 4, 8: 4, 9: 6}","[6, 8, 9, 42]",648496421,Mo1C4O4F6
RuC4(O2F3)2,mp-542700,0.3176,0.64230754,0.14564849608333397,"{44: 1, 6: 4, 8: 4, 9: 6}","[6, 8, 9, 44]",648496441,Ru1C4O4F6
PbC4O5,mp-1201059,0.049000000000000044,0.6687759,0.7554919674999949,"{82: 1, 6: 4, 8: 5}","[6, 8, 82]",6485821,Pb1C4O5
C4O5F6,mp-556192,5.3178,-2.53576043,0.13147911883333485,"{6: 4, 8: 5, 9: 6}","[6, 8, 9]",648596,C4O5F6
Mg(C2O3)2,mp-1191802,0.7744,-1.80375891,1.133132936704543,"{12: 1, 6: 4, 8: 6}","[6, 8, 12]",6486121,Mg1C4O6
Mn(C2O3)2,mp-1180381,0.12959999999999994,-1.75845259,0.8541342489772701,"{25: 1, 6: 4, 8: 6}","[6, 8, 25]",6486251,Mn1C4O6
Co(C2O3)2,mp-1191659,0.5397000000000001,-0.74911576,0.9787573635227211,"{27: 1, 6: 4, 8: 6}","[6, 8, 27]",6486271,Co1C4O6
Tl5(C2O3)2,mp-1208465,0.09260000000000002,1.98311492,0.35657854511111076,"{81: 5, 6: 4, 8: 6}","[6, 8, 81]",6486815,Tl5C4O6
Te2C4S3(O2F3)3,mp-1194984,1.4401000000000002,0.93296354,0.44322389541294527,"{52: 2, 6: 4, 16: 3, 8: 6, 9: 9}","[6, 8, 9, 16, 52]",648699163522,Te2C4S3O6F9
Rb8C4O7,mp-676534,0.03869999999999996,1.32267029,0.8033705241502203,"{37: 8, 6: 4, 8: 7}","[6, 8, 37]",6487378,Rb8C4O7
UC4O7,mp-727078,0.0,0.08828409,0.5239709974652857,"{92: 1, 6: 4, 8: 7}","[6, 8, 92]",6487921,U1C4O7
Na2Sn(CO2)4,mp-554823,2.7678,1.09987778,0.041619992111114,"{11: 2, 50: 1, 6: 4, 8: 8}","[6, 8, 11, 50]",6488112501,Na2Sn1C4O8
KP4(CO2)4,mp-1212211,0.001000000000000112,-1.14615962,1.6606864291386545,"{19: 1, 15: 4, 6: 4, 8: 8}","[6, 8, 15, 19]",6488154191,K1P4C4O8
KMo2C4ClO8,mp-1203967,0.006199999999999983,0.63351222,0.683300577812501,"{19: 1, 42: 2, 6: 4, 17: 1, 8: 8}","[6, 8, 17, 19, 42]",6488171191422,K1Mo2C4Cl1O8
KRu2C4(ClO4)2,mp-1202772,0.004899999999999988,-0.15665559,0.5651800847671549,"{19: 1, 44: 2, 6: 4, 17: 2, 8: 8}","[6, 8, 17, 19, 44]",6488172191442,K1Ru2C4Cl2O8
KCr(CO2)4,mp-1211853,0.5839999999999999,-2.35319825,0.19692287312500145,"{19: 1, 24: 1, 6: 4, 8: 8}","[6, 8, 19, 24]",6488191241,K1Cr1C4O8
Np(CO2)4,mp-1104025,0.0,0.65016789,0.7640054832692318,"{93: 1, 6: 4, 8: 8}","[6, 8, 93]",6488931,Np1C4O8
K3IrC4Cl2O9,mp-1201939,0.00830000000000003,0.4460877,0.43451065144736933,"{19: 3, 77: 1, 6: 4, 17: 2, 8: 9}","[6, 8, 17, 19, 77]",6489172193771,K3Ir1C4Cl2O9
K2SnC4O9,mp-1199102,0.1878,-0.0065064,0.3221078184375017,"{19: 2, 50: 1, 6: 4, 8: 9}","[6, 8, 19, 50]",6489192501,K2Sn1C4O9
Mo2C4O9,mp-1194607,0.12730000000000002,0.24239956,0.5283124725833339,"{42: 2, 6: 4, 8: 9}","[6, 8, 42]",6489422,Mo2C4O9
Cs2Sb2C4O9F4,mp-1203130,0.3693,0.18789626,0.24735193833333824,"{55: 2, 51: 2, 6: 4, 8: 9, 9: 4}","[6, 8, 9, 51, 55]",648994512552,Cs2Sb2C4O9F4
Th5C4,mp-1217379,0.0,7.2002067,0.008746711111111694,"{90: 5, 6: 4}","[6, 90]",64905,Th5C4
GeC4(BrF5)2,mp-1195014,4.1155,-1.8432046,0.21510194400735383,"{32: 1, 6: 4, 35: 2, 9: 10}","[6, 9, 32, 35]",64910321352,Ge1C4Br2F10
TeC4(ClF3)2,mp-560559,2.7502,-0.60542787,0.4563368362019249,"{52: 1, 6: 4, 17: 2, 9: 6}","[6, 9, 17, 52]",6496172521,Te1C4Cl2F6
TeC4(BrF3)2,mp-559902,2.5884,-0.6562945,0.45989185389422715,"{52: 1, 6: 4, 35: 2, 9: 6}","[6, 9, 35, 52]",6496352521,Te1C4Br2F6
Hg(C2F3)2,mp-1103648,3.599,-0.60501344,0.47677339744318115,"{80: 1, 6: 4, 9: 6}","[6, 9, 80]",6496801,Hg1C4F6
Te(CF2)4,mp-1204577,3.5365,-0.82165249,0.4631507245833273,"{52: 1, 6: 4, 9: 8}","[6, 9, 52]",6498521,Te1C4F8
C50Cl11,mp-1195608,1.6839,1.20872945,0.21440251861167958,"{6: 50, 17: 11}","[6, 17]",6501711,C50Cl11
Zr2Al3C5,mp-571402,0.0,7.70354305,0.3492468542499978,"{40: 2, 13: 3, 6: 5}","[6, 13, 40]",65133402,Zr2Al3C5
Zr3Al3C5,mp-570419,0.0,7.53743403,0.0,"{40: 3, 13: 3, 6: 5}","[6, 13, 40]",65133403,Zr3Al3C5
Hf2Al3C5,mp-1189539,0.0,8.10486108,0.31453195974999204,"{72: 2, 13: 3, 6: 5}","[6, 13, 72]",65133722,Hf2Al3C5
Hf3Al3C5,mp-642493,0.0,8.13822659,0.0,"{72: 3, 13: 3, 6: 5}","[6, 13, 72]",65133723,Hf3Al3C5
Zr2Al4C5,mp-571419,0.0,6.64352202,0.038705187556814735,"{40: 2, 13: 4, 6: 5}","[6, 13, 40]",65134402,Zr2Al4C5
Hf2Al4C5,mp-568991,0.0,6.96524534,0.025729592102265997,"{72: 2, 13: 4, 6: 5}","[6, 13, 72]",65134722,Hf2Al4C5
AuC5(SCl)4,mp-652180,0.0706,-0.04572339,0.7804054915465555,"{79: 1, 6: 5, 16: 4, 17: 4}","[6, 16, 17, 79]",65164174791,Au1C5S4Cl4
La4C5Cl2,mp-667192,0.0,7.03509629,0.02760305542929231,"{57: 4, 6: 5, 17: 2}","[6, 17, 57]",65172574,La4C5Cl2
C5Cl4,mp-1214283,2.2709,1.04280872,0.12083327819444278,"{6: 5, 17: 4}","[6, 17]",65174,C5Cl4
Ti16Hg4C5,mp-1217707,0.0,3.93307775,1.2441729255,"{22: 16, 80: 4, 6: 5}","[6, 22, 80]",652216804,Ti16Hg4C5
Ta2Ti2NbC5,mp-1218024,0.0,7.74154345,0.03731206437499779,"{73: 2, 22: 2, 41: 1, 6: 5}","[6, 22, 41, 73]",65222411732,Ta2Ti2Nb1C5
Ti4CrC5,mp-1217169,0.0,7.7572788,0.058772891499998536,"{22: 4, 24: 1, 6: 5}","[6, 22, 24]",65224241,Ti4Cr1C5
Ti4WC5,mp-1217128,0.0,7.98682196,0.018644720000002835,"{22: 4, 74: 1, 6: 5}","[6, 22, 74]",65224741,Ti4W1C5
Ti8C5,mp-27919,0.0,6.20072789,0.0,"{22: 8, 6: 5}","[6, 22]",65228,Ti8C5
V4WC5,mp-1216466,0.0,8.42052677,0.14557160594444696,"{23: 4, 74: 1, 6: 5}","[6, 23, 74]",65234741,V4W1C5
V6C5,mp-28731,0.0,7.44154974,0.0,"{23: 6, 6: 5}","[6, 23]",65236,V6C5
Rb6C5,mp-33056,0.0,0.1233915,2.1207291637784094,"{37: 6, 6: 5}","[6, 37]",65376,Rb6C5
Pu4ZrC5,mp-1219777,0.0,10.09401887,0.7432053305000057,"{94: 4, 40: 1, 6: 5}","[6, 40, 94]",65401944,Pu4Zr1C5
Zr4MoC5,mp-1215358,0.0,6.34526725,0.05601520862500209,"{40: 4, 42: 1, 6: 5}","[6, 40, 42]",65404421,Zr4Mo1C5
Zr4WC5,mp-1215364,0.0,6.27944163,0.05979438200000331,"{40: 4, 74: 1, 6: 5}","[6, 40, 74]",65404741,Zr4W1C5
PuZr4C5,mp-1219663,0.0,6.76561639,0.06880579137500042,"{94: 1, 40: 4, 6: 5}","[6, 40, 94]",65404941,Pu1Zr4C5
Nb4WC5,mp-1220459,0.0,7.81841146,0.10926566750000077,"{41: 4, 74: 1, 6: 5}","[6, 41, 74]",65414741,Nb4W1C5
Nb6C5,mp-2760,0.0,6.95372752,0.0,"{41: 6, 6: 5}","[6, 41]",65416,Nb6C5
Th2Ru6C5,mp-5439,0.0,8.0283236,0.013187745961534603,"{90: 2, 44: 6, 6: 5}","[6, 44, 90]",65446902,Th2Ru6C5
CeU4C5,mp-1226701,0.0,10.44085536,0.04897547699999372,"{58: 1, 92: 4, 6: 5}","[6, 58, 92]",65581924,Ce1U4C5
Tb4C5,mp-15237,0.0,4.18825079,0.0,"{65: 4, 6: 5}","[6, 65]",65654,Tb4C5
Dy4C5,mp-1212812,0.0,4.21855848,0.0,"{66: 4, 6: 5}","[6, 66]",65664,Dy4C5
Ho4C5,mp-15238,0.0,4.07219986,0.0,"{67: 4, 6: 5}","[6, 67]",65674,Ho4C5
CaRe2C5N10O13,mp-1202419,0.10109999999999997,-1.77427045,0.6184496849999883,"{20: 1, 75: 2, 6: 5, 7: 10, 8: 13}","[6, 7, 8, 20, 75]",65710813201752,Ca1Re2C5N10O13
AlC5NCl,mp-1182913,0.49529999999999985,-2.98989538,1.313773753645834,"{13: 1, 6: 5, 7: 1, 17: 1}","[6, 7, 13, 17]",6571131171,Al1C5N1Cl1
UC5N12O13,mp-728536,0.3015000000000003,-2.84591458,1.1882757846774243,"{92: 1, 6: 5, 7: 12, 8: 13}","[6, 7, 8, 92]",65712813921,U1C5N12O13
Mn2PC5NO11,mp-1180719,0.0,0.40370672,0.458991144343746,"{25: 2, 15: 1, 6: 5, 7: 1, 8: 11}","[6, 7, 8, 15, 25]",6571811151252,Mn2P1C5N1O11
ReAsC5SNO5F7,mp-565400,2.2391,-1.27152685,0.19535419273810373,"{75: 1, 33: 1, 6: 5, 16: 1, 7: 1, 8: 5, 9: 7}","[6, 7, 8, 9, 16, 33, 75]",65718597161331751,Re1As1C5S1N1O5F7
Hf4UC5,mp-1224468,0.0,7.29442594,0.010443812000005437,"{72: 4, 92: 1, 6: 5}","[6, 72, 92]",65724921,Hf4U1C5
C5S2(NO)2,mp-1204129,0.0,-2.68956628,1.5129650736688296,"{6: 5, 16: 2, 7: 2, 8: 2}","[6, 7, 8, 16]",657282162,C5S2N2O2
Ta4WC5,mp-1218023,0.0,8.43342723,0.08420670700000521,"{73: 4, 74: 1, 6: 5}","[6, 73, 74]",65734741,Ta4W1C5
Mo2C5N3O14,mp-1197895,0.919,-1.02966777,0.9329744805208362,"{42: 2, 6: 5, 7: 3, 8: 14}","[6, 7, 8, 42]",6573814422,Mo2C5N3O14
C5N4,mp-651723,5.8888,-3.54294425,0.5659451963888884,"{6: 5, 7: 4}","[6, 7]",6574,C5N4
Hg4C5N4O,mp-726668,0.49960000000000004,-1.92391885,0.8305825765178536,"{80: 4, 6: 5, 7: 4, 8: 1}","[6, 7, 8, 80]",657481804,Hg4C5N4O1
C5N4O3,mp-729513,3.5641,-2.72394878,0.2662673923958341,"{6: 5, 7: 4, 8: 3}","[6, 7, 8]",657483,C5N4O3
K6Mo6C5Se8N5,mp-1224269,0.1655000000000002,2.11121332,0.02051841984848579,"{19: 6, 42: 6, 6: 5, 34: 8, 7: 5}","[6, 7, 19, 34, 42]",6575196348426,K6Mo6C5Se8N5
K3VC5N5O,mp-705009,2.6875999999999998,-1.80053594,0.2735656218287028,"{19: 3, 23: 1, 6: 5, 7: 5, 8: 1}","[6, 7, 8, 19, 23]",657581193231,K3V1C5N5O1
K3CrC5N6O,mp-705039,0.7213,0.40575541,0.3770871404774274,"{19: 3, 24: 1, 6: 5, 7: 6, 8: 1}","[6, 7, 8, 19, 24]",657681193241,K3Cr1C5N6O1
K4MoC5N6O,mp-705070,2.4381,0.19068658,0.2294179544812156,"{19: 4, 42: 1, 6: 5, 7: 6, 8: 1}","[6, 7, 8, 19, 42]",657681194421,K4Mo1C5N6O1
Ir4C5,mp-1197234,0.5691000000000006,8.71604757,1.0326911158333338,"{77: 4, 6: 5}","[6, 77]",65774,Ir4C5
Na2CaPb3(CO3)5,mp-1221844,3.7438000000000002,2.37338646,0.0,"{11: 2, 20: 1, 82: 3, 6: 5, 8: 15}","[6, 8, 11, 20, 82]",65815112201823,Na2Ca1Pb3C5O15
K4ZrC5O15F2,mp-1181072,0.43199999999999994,-1.14973731,0.4015173550925919,"{19: 4, 40: 1, 6: 5, 8: 15, 9: 2}","[6, 8, 9, 19, 40]",6581592194401,K4Zr1C5O15F2
K3UC5O17,mp-1204957,0.08970000000000011,-0.92613866,0.5446165457692347,"{19: 3, 92: 1, 6: 5, 8: 17}","[6, 8, 19, 92]",65817193921,K3U1C5O17
MnC5(O2F)2,mp-559604,4.475,-0.86291883,0.7326582299999949,"{25: 1, 6: 5, 8: 4, 9: 2}","[6, 8, 9, 25]",658492251,Mn1C5O4F2
CrPC5Cl3O5,mp-1201901,2.8280000000000003,-0.58932909,0.5357921883333407,"{24: 1, 15: 1, 6: 5, 17: 3, 8: 5}","[6, 8, 15, 17, 24]",6585151173241,Cr1P1C5Cl3O5
CrPC5Br3O5,mp-615444,2.2430000000000003,-0.75915827,0.5405841743576403,"{24: 1, 15: 1, 6: 5, 35: 3, 8: 5}","[6, 8, 15, 24, 35]",6585151241353,Cr1P1C5Br3O5
PWC5Br3O5,mp-683598,1.7514,-0.38168731,0.554149448375,"{15: 1, 74: 1, 6: 5, 35: 3, 8: 5}","[6, 8, 15, 35, 74]",6585151353741,P1W1C5Br3O5
MoP4C5S3O5,mp-643086,2.1921,0.31907545,0.5526050790790586,"{42: 1, 15: 4, 6: 5, 16: 3, 8: 5}","[6, 8, 15, 16, 42]",6585154163421,Mo1P4C5S3O5
Co2C5SO5,mp-616444,1.0752000000000002,0.72185365,0.4233749615745124,"{27: 2, 6: 5, 16: 1, 8: 5}","[6, 8, 16, 27]",6585161272,Co2C5S1O5
MnC5ClO5,mp-623924,2.9387,-0.90762989,0.5192434711979148,"{25: 1, 6: 5, 17: 1, 8: 5}","[6, 8, 17, 25]",6585171251,Mn1C5Cl1O5
TcC5ClO5,mp-1199462,2.6834,-0.45470334,0.17047056130787297,"{43: 1, 6: 5, 17: 1, 8: 5}","[6, 8, 17, 43]",6585171431,Tc1C5Cl1O5
ReC5ClO5,mp-648163,2.577,-0.5267341,0.1775127166782493,"{75: 1, 6: 5, 17: 1, 8: 5}","[6, 8, 17, 75]",6585171751,Re1C5Cl1O5
Mn(CO)5,mp-836079,3.5767,-0.67594705,0.6104620645454482,"{25: 1, 6: 5, 8: 5}","[6, 8, 25]",6585251,Mn1C5O5
MnC5BrO5,mp-631350,2.4226,-0.73378446,0.507430673281247,"{25: 1, 6: 5, 35: 1, 8: 5}","[6, 8, 25, 35]",6585251351,Mn1C5Br1O5
MnC5IO5,mp-1192277,2.5815,-0.49007278,0.4870543228645827,"{25: 1, 6: 5, 53: 1, 8: 5}","[6, 8, 25, 53]",6585251531,Mn1C5I1O5
ReC5BrO5,mp-620054,2.3911,-0.59838858,0.15486562534227133,"{75: 1, 6: 5, 35: 1, 8: 5}","[6, 8, 35, 75]",6585351751,Re1C5Br1O5
Tc(CO)5,mp-680571,2.7169000000000003,-0.74847903,0.2118934935227248,"{43: 1, 6: 5, 8: 5}","[6, 8, 43]",6585431,Tc1C5O5
TcC5IO5,mp-1190985,2.2829,-0.28688618,0.1427091670833347,"{43: 1, 6: 5, 53: 1, 8: 5}","[6, 8, 43, 53]",6585431531,Tc1C5I1O5
ReC5IO5,mp-616468,2.2083,-0.11910665,0.16516013929398277,"{75: 1, 6: 5, 53: 1, 8: 5}","[6, 8, 53, 75]",6585531751,Re1C5I1O5
Re(CO)5,mp-540820,3.003,-1.14969525,0.22988278250000072,"{75: 1, 6: 5, 8: 5}","[6, 8, 75]",6585751,Re1C5O5
Sb4IrC5ClO5F22,mp-555612,2.9356999999999998,-1.90012083,0.10754386892544154,"{51: 4, 77: 1, 6: 5, 17: 1, 8: 5, 9: 22}","[6, 8, 9, 17, 51, 77]",6585922171514771,Sb4Ir1C5Cl1O5F22
MnTeC5O6F5,mp-650943,2.1447000000000003,-1.4992822,0.49314714862268527,"{25: 1, 52: 1, 6: 5, 8: 6, 9: 5}","[6, 8, 9, 25, 52]",658695251521,Mn1Te1C5O6F5
CrC5SO7,mp-649195,2.0141999999999998,-0.87614275,0.5290100548788264,"{24: 1, 6: 5, 16: 1, 8: 7}","[6, 8, 16, 24]",6587161241,Cr1C5S1O7
MnC5O8,mp-1213563,0.2904000000000002,-1.45734585,0.8802965583928541,"{25: 1, 6: 5, 8: 8}","[6, 8, 25]",6588251,Mn1C5O8
ZnC5O8,mp-1209101,0.3853,-1.06189022,1.1819273921428541,"{30: 1, 6: 5, 8: 8}","[6, 8, 30]",6588301,Zn1C5O8
PuU4C5,mp-1219737,0.0,10.63613073,0.2092621833749977,"{94: 1, 92: 4, 6: 5}","[6, 92, 94]",65924941,Pu1U4C5
C5F6,mp-1214262,2.9654,-2.11617134,0.21621813204545415,"{6: 5, 9: 6}","[6, 9]",6596,C5F6
KC60,mp-29687,0.0,3.48821923,0.3628356934426229,"{19: 1, 6: 60}","[6, 19]",660191,K1C60
Cd(C5N)12,mp-1214070,0.031700000000000006,-0.14226032,1.085307923390408,"{48: 1, 6: 60, 7: 12}","[6, 7, 48]",660712481,Cd1C60N12
AlC6,mp-1214819,0.0,-2.70436129,2.0028289258035707,"{13: 1, 6: 6}","[6, 13]",66131,Al1C6
Zr4(AlC2)3,mp-569326,0.0,6.81365885,0.0,"{40: 4, 13: 3, 6: 6}","[6, 13, 40]",66133404,Zr4Al3C6
Zr3(Al2C3)2,mp-569831,0.0,6.53005829,0.04331373083333112,"{40: 3, 13: 4, 6: 6}","[6, 13, 40]",66134403,Zr3Al4C6
Hf3(Al2C3)2,mp-567970,0.0,6.88457631,0.028978468910255017,"{72: 3, 13: 4, 6: 6}","[6, 13, 72]",66134723,Hf3Al4C6
Gd5(C2Cl)3,mp-866789,0.0,4.18506887,0.0,"{64: 5, 6: 6, 17: 3}","[6, 17, 64]",66173645,Gd5C6Cl3
CsSbC6Cl5,mp-1194090,0.36710000000000004,-0.27792105,0.8699895279487171,"{55: 1, 51: 1, 6: 6, 17: 5}","[6, 17, 51, 55]",66175511551,Cs1Sb1C6Cl5
C61O2,mp-1197923,1.2642000000000002,1.73282139,0.3669108552380944,"{6: 61, 8: 2}","[6, 8]",66182,C61O2
KSbC6Br5,mp-1193058,0.1296,-0.52166184,0.8400819905168264,"{19: 1, 51: 1, 6: 6, 35: 5}","[6, 19, 35, 51]",66191355511,K1Sb1C6Br5
CaC6,mp-1206211,0.0,-0.37379578,0.7561457635714284,"{20: 1, 6: 6}","[6, 20]",66201,Ca1C6
CsVC6,mp-1147638,0.0,-0.04393617,1.0544250624197797,"{55: 1, 23: 1, 6: 6}","[6, 23, 55]",66231551,Cs1V1C6
CsCrC6,mp-1147742,0.0,0.60585607,1.0317130609518674,"{55: 1, 24: 1, 6: 6}","[6, 24, 55]",66241551,Cs1Cr1C6
Cr20(WC2)3,mp-1193668,0.0,7.66790296,0.02867069980295156,"{24: 20, 74: 3, 6: 6}","[6, 24, 74]",662420743,Cr20W3C6
Cr21(MoC3)2,mp-641573,0.0,7.78723334,0.0,"{24: 21, 42: 2, 6: 6}","[6, 24, 42]",662421422,Cr21Mo2C6
Cr21(WC3)2,mp-641575,0.0,7.62595406,0.0,"{24: 21, 74: 2, 6: 6}","[6, 24, 74]",662421742,Cr21W2C6
Cr22MoC6,mp-1193982,0.0,7.70427059,0.035130769482757174,"{24: 22, 42: 1, 6: 6}","[6, 24, 42]",662422421,Cr22Mo1C6
Cr22WC6,mp-1193310,0.0,7.68078305,0.04192708689654623,"{24: 22, 74: 1, 6: 6}","[6, 24, 74]",662422741,Cr22W1C6
Cr23C6,mp-723,0.0,7.66645436,0.0,"{24: 23, 6: 6}","[6, 24]",662423,Cr23C6
Cr3(W10C3)2,mp-1193149,0.0,7.66969915,0.23744870783251137,"{24: 3, 74: 20, 6: 6}","[6, 24, 74]",662437420,Cr3W20C6
Mn20(MoC2)3,mp-1193216,0.0,7.63180912,0.02575201574225261,"{25: 20, 42: 3, 6: 6}","[6, 25, 42]",662520423,Mn20Mo3C6
Mn20(WC2)3,mp-1193083,0.0,7.47345964,0.02786803360721457,"{25: 20, 74: 3, 6: 6}","[6, 25, 74]",662520743,Mn20W3C6
Mn23C6,mp-542830,0.0,7.19436946,0.0,"{25: 23, 6: 6}","[6, 25]",662523,Mn23C6
Gd3(MnC3)2,mp-28826,0.0,5.28689164,0.0,"{64: 3, 25: 2, 6: 6}","[6, 25, 64]",66252643,Gd3Mn2C6
Tb3(MnC3)2,mp-28827,0.0,5.49533953,0.0,"{65: 3, 25: 2, 6: 6}","[6, 25, 65]",66252653,Tb3Mn2C6
GaC6,mp-1212658,0.0,-3.20505725,2.2716048067857137,"{31: 1, 6: 6}","[6, 31]",66311,Ga1C6
Ce5(C2Br)3,mp-1193043,0.0,6.06161336,0.0,"{58: 5, 6: 6, 35: 3}","[6, 35, 58]",66353585,Ce5C6Br3
Pr5(C2Br)3,mp-1209658,0.0,3.95492887,0.0,"{59: 5, 6: 6, 35: 3}","[6, 35, 59]",66353595,Pr5C6Br3
SrC6,mp-1208630,0.0,5.79066679,0.0,"{38: 1, 6: 6}","[6, 38]",66381,Sr1C6
NaC64,mp-571003,0.0,3.66131202,0.014140242286472926,"{11: 1, 6: 64}","[6, 11]",664111,Na1C64
CsNbC6,mp-1147682,0.3015,-0.80359263,1.0079440947808909,"{55: 1, 41: 1, 6: 6}","[6, 41, 55]",66411551,Cs1Nb1C6
CsMoC6,mp-1147716,0.0,0.44651968,0.9639283796228453,"{55: 1, 42: 1, 6: 6}","[6, 42, 55]",66421551,Cs1Mo1C6
AgC6,mp-1214982,0.0,-2.48150594,1.3904789290476174,"{47: 1, 6: 6}","[6, 47]",66471,Ag1C6
InC6,mp-1212000,0.0,-3.25987339,2.385933849761904,"{49: 1, 6: 6}","[6, 49]",66491,In1C6
La12C6I17,mp-571323,0.025599999999999845,5.28715197,0.0,"{57: 12, 6: 6, 53: 17}","[6, 53, 57]",6653175712,La12C6I17
Ce12C6I17,mp-684020,0.0,5.34724857,0.0,"{58: 12, 6: 6, 53: 17}","[6, 53, 58]",6653175812,Ce12C6I17
Pr12C6I17,mp-23409,0.0,3.7653886,0.0,"{59: 12, 6: 6, 53: 17}","[6, 53, 59]",6653175912,Pr12C6I17
Nd12C6I17,mp-571309,0.0,3.82763694,0.0,"{60: 12, 6: 6, 53: 17}","[6, 53, 60]",6653176012,Nd12C6I17
Dy12C6I17,mp-567858,0.03270000000000017,4.37561732,0.00939175385714286,"{66: 12, 6: 6, 53: 17}","[6, 53, 66]",6653176612,Dy12C6I17
SmC6,mp-1025297,0.0,6.09071376,0.04874392482142831,"{62: 1, 6: 6}","[6, 62]",66621,Sm1C6
EuC6,mp-1103990,0.0,5.58802839,0.0,"{63: 1, 6: 6}","[6, 63]",66631,Eu1C6
AlC6N,mp-1204653,1.6946999999999997,2.21146844,1.427856024375,"{13: 1, 6: 6, 7: 1}","[6, 7, 13]",6671131,Al1C6N1
HgC6(N4Cl)3,mp-1199879,0.02839999999999998,-1.9875881,0.9511106846464648,"{80: 1, 6: 6, 7: 12, 17: 3}","[6, 7, 17, 80]",66712173801,Hg1C6N12Cl3
CdRe2C6(N6O7)2,mp-1214657,0.8274000000000001,-2.06154131,0.6668270870357116,"{48: 1, 75: 2, 6: 6, 7: 12, 8: 14}","[6, 7, 8, 48, 75]",66712814481752,Cd1Re2C6N12O14
ZnAs2C6S12N12(OF2)6,mp-556173,2.2259,-0.58970629,0.24676087376751,"{30: 1, 33: 2, 6: 6, 16: 12, 7: 12, 8: 6, 9: 12}","[6, 7, 8, 9, 16, 30, 33]",66712869121612301332,Zn1As2C6S12N12O6F12
PbC6S6N12(ClO4)2,mp-1180029,0.0,-1.131592,1.293179912959185,"{82: 1, 6: 6, 16: 6, 7: 12, 17: 2, 8: 8}","[6, 7, 8, 16, 17, 82]",6671288166172821,Pb1C6S6N12Cl2O8
CrC6N12(ClO3)3,mp-1204712,0.0,-0.98135047,1.1251053389919354,"{24: 1, 6: 6, 7: 12, 17: 3, 8: 9}","[6, 7, 8, 17, 24]",6671289173241,Cr1C6N12Cl3O9
Ga2P4C6NO14,mp-1182033,0.6285999999999998,-1.58688313,1.040031909274692,"{31: 2, 15: 4, 6: 6, 7: 1, 8: 14}","[6, 7, 8, 15, 31]",6671814154312,Ga2P4C6N1O14
U2C6NO14,mp-1202911,0.0,-0.81510724,0.7233915770289876,"{92: 2, 6: 6, 7: 1, 8: 14}","[6, 7, 8, 92]",6671814922,U2C6N1O14