formula,material_id,band_gap,efermi,energy_above_hull,comp_atoms,sorted_keys_comp_atoms,comp_number,new_formula
Ta2AlC,mp-1025441,0.0,7.01245973,0.0,"{73: 2, 13: 1, 6: 1}","[6, 13, 73]",61131732,Ta2Al1C1
AlWC,mp-1228818,0.0,7.30846362,0.7986065196491241,"{13: 1, 74: 1, 6: 1}","[6, 13, 74]",61131741,Al1W1C1
AlW2C,mp-1079892,0.0,8.27524281,0.1371330062500018,"{13: 1, 74: 2, 6: 1}","[6, 13, 74]",61131742,Al1W2C1
AlPt3C,mp-10040,0.0,7.45607658,0.7658357210000011,"{13: 1, 78: 3, 6: 1}","[6, 13, 78]",61131783,Al1Pt3C1
Ta3Al2CoC,mp-510486,0.0,7.18506157,0.0,"{73: 3, 13: 2, 27: 1, 6: 1}","[6, 13, 27, 73]",61132271733,Ta3Al2Co1C1
Nb3Al2C,mp-1190604,0.0,6.75607209,0.0,"{41: 3, 13: 2, 6: 1}","[6, 13, 41]",61132413,Nb3Al2C1
Al2Mo3C,mp-18093,0.0,8.92279376,0.052444120892856105,"{13: 2, 42: 3, 6: 1}","[6, 13, 42]",61132423,Al2Mo3C1
Ta3Al2C,mp-1190760,0.0,7.40164327,0.0008856861166677277,"{73: 3, 13: 2, 6: 1}","[6, 13, 73]",61132733,Ta3Al2C1
Zr5Al3C,mp-972176,0.0,5.18152421,0.03804580459876572,"{40: 5, 13: 3, 6: 1}","[6, 13, 40]",61133405,Zr5Al3C1
Hf5Al3C,mp-1212439,0.0,5.51723811,0.04848492277777794,"{72: 5, 13: 3, 6: 1}","[6, 13, 72]",61133725,Hf5Al3C1
Ta5Al3C,mp-1208344,0.0,6.79547385,0.03636880168888901,"{73: 5, 13: 3, 6: 1}","[6, 13, 73]",61133735,Ta5Al3C1
Ta12Al4CoC,mp-1212042,0.04499999999999993,-2.72885413,4.324778666407407,"{73: 12, 13: 4, 27: 1, 6: 1}","[6, 13, 27, 73]",611342717312,Ta12Al4Co1C1
SiC,mp-1204356,1.8389000000000006,9.86867141,0.0,"{14: 1, 6: 1}","[6, 14]",61141,Si1C1
SiCCl3,mp-1209042,3.4238999999999997,-0.6619105,0.14280560503684203,"{14: 1, 6: 1, 17: 3}","[6, 14, 17]",61141173,Si1C1Cl3
Ti2SiC,mp-1079908,0.0,7.8235706,0.01844627687499667,"{22: 2, 14: 1, 6: 1}","[6, 14, 22]",61141222,Ti2Si1C1
Mn20Si12C,mp-1222227,0.0,8.18821147,0.030386962803030215,"{25: 20, 14: 12, 6: 1}","[6, 14, 25]",6114122520,Mn20Si12C1
V6SiC,mp-1216452,0.0,7.25232766,0.35690956593749945,"{23: 6, 14: 1, 6: 1}","[6, 14, 23]",61141236,V6Si1C1
Cr2SiC,mp-1078494,0.0,8.68062131,0.1241232279780693,"{24: 2, 14: 1, 6: 1}","[6, 14, 24]",61141242,Cr2Si1C1
SmMn2SiC,mp-1205608,0.0,5.57795478,0.0,"{62: 1, 25: 2, 14: 1, 6: 1}","[6, 14, 25, 62]",61141252621,Sm1Mn2Si1C1
TbMn2SiC,mp-1205526,0.0,5.84166918,0.0,"{65: 1, 25: 2, 14: 1, 6: 1}","[6, 14, 25, 65]",61141252651,Tb1Mn2Si1C1
DyMn2SiC,mp-1205851,0.0,5.84878052,0.0,"{66: 1, 25: 2, 14: 1, 6: 1}","[6, 14, 25, 66]",61141252661,Dy1Mn2Si1C1
HoMn2SiC,mp-1205720,0.0,5.77888673,0.0,"{67: 1, 25: 2, 14: 1, 6: 1}","[6, 14, 25, 67]",61141252671,Ho1Mn2Si1C1
ErMn2SiC,mp-1206340,0.0,5.85804905,0.0,"{68: 1, 25: 2, 14: 1, 6: 1}","[6, 14, 25, 68]",61141252681,Er1Mn2Si1C1
TmMn2SiC,mp-1207684,0.0,5.85009626,0.0,"{69: 1, 25: 2, 14: 1, 6: 1}","[6, 14, 25, 69]",61141252691,Tm1Mn2Si1C1
ThMn2SiC,mp-1205614,0.0,7.57291396,0.0,"{90: 1, 25: 2, 14: 1, 6: 1}","[6, 14, 25, 90]",61141252901,Th1Mn2Si1C1
UMn2SiC,mp-1205583,0.0,9.37301762,0.0,"{92: 1, 25: 2, 14: 1, 6: 1}","[6, 14, 25, 92]",61141252921,U1Mn2Si1C1
Mn4SiMoC,mp-1222006,0.0,8.00800933,0.0,"{25: 4, 14: 1, 42: 1, 6: 1}","[6, 14, 25, 42]",61141254421,Mn4Si1Mo1C1
Mn5SiC,mp-1192695,0.0,7.60602425,0.03345877897515592,"{25: 5, 14: 1, 6: 1}","[6, 14, 25]",61141255,Mn5Si1C1
Er20Si12C,mp-1225168,0.0,4.45529296,0.0,"{68: 20, 14: 12, 6: 1}","[6, 14, 68]",6114126820,Er20Si12C1
Pr2Co2SiC,mp-1071216,0.0,5.25495215,0.0,"{59: 2, 27: 2, 14: 1, 6: 1}","[6, 14, 27, 59]",61141272592,Pr2Co2Si1C1
Nd2Co2SiC,mp-1070917,0.0,5.23432061,0.0,"{60: 2, 27: 2, 14: 1, 6: 1}","[6, 14, 27, 60]",61141272602,Nd2Co2Si1C1
CeSiRu2C,mp-1205654,0.0,8.2486347,0.0,"{58: 1, 14: 1, 44: 2, 6: 1}","[6, 14, 44, 58]",61141442581,Ce1Si1Ru2C1
PrSiRu2C,mp-1205551,0.0,6.53323031,0.0,"{59: 1, 14: 1, 44: 2, 6: 1}","[6, 14, 44, 59]",61141442591,Pr1Si1Ru2C1
NdSiRu2C,mp-1205506,0.0,6.52015502,0.0,"{60: 1, 14: 1, 44: 2, 6: 1}","[6, 14, 44, 60]",61141442601,Nd1Si1Ru2C1
SmSiRu2C,mp-1205773,0.0,6.39673753,0.0,"{62: 1, 14: 1, 44: 2, 6: 1}","[6, 14, 44, 62]",61141442621,Sm1Si1Ru2C1
TbSiRu2C,mp-1205603,0.0,6.64039297,0.0,"{65: 1, 14: 1, 44: 2, 6: 1}","[6, 14, 44, 65]",61141442651,Tb1Si1Ru2C1
DySiRu2C,mp-570595,0.0,6.62464863,0.0,"{66: 1, 14: 1, 44: 2, 6: 1}","[6, 14, 44, 66]",61141442661,Dy1Si1Ru2C1
HoSiRu2C,mp-570102,0.0,6.6009464,0.0,"{67: 1, 14: 1, 44: 2, 6: 1}","[6, 14, 44, 67]",61141442671,Ho1Si1Ru2C1
ErSiRu2C,mp-1205505,0.0,6.61706044,0.0,"{68: 1, 14: 1, 44: 2, 6: 1}","[6, 14, 44, 68]",61141442681,Er1Si1Ru2C1
TmSiRu2C,mp-1205703,0.0,6.60410329,0.0,"{69: 1, 14: 1, 44: 2, 6: 1}","[6, 14, 44, 69]",61141442691,Tm1Si1Ru2C1
ThSiRu2C,mp-1205580,0.0,8.24553181,0.0,"{90: 1, 14: 1, 44: 2, 6: 1}","[6, 14, 44, 90]",61141442901,Th1Si1Ru2C1
LaSiOs2C,mp-1205718,0.0,8.6031244,0.0,"{57: 1, 14: 1, 76: 2, 6: 1}","[6, 14, 57, 76]",61141571762,La1Si1Os2C1
CeRe2SiC,mp-1206583,0.0,8.05724579,0.0,"{58: 1, 75: 2, 14: 1, 6: 1}","[6, 14, 58, 75]",61141581752,Ce1Re2Si1C1
CeSiOs2C,mp-1205921,0.0,8.5044085,0.0,"{58: 1, 14: 1, 76: 2, 6: 1}","[6, 14, 58, 76]",61141581762,Ce1Si1Os2C1
PrRe2SiC,mp-1206956,0.0,6.47209315,0.0,"{59: 1, 75: 2, 14: 1, 6: 1}","[6, 14, 59, 75]",61141591752,Pr1Re2Si1C1
PrSiOs2C,mp-1209299,0.0,6.83837119,0.0,"{59: 1, 14: 1, 76: 2, 6: 1}","[6, 14, 59, 76]",61141591762,Pr1Si1Os2C1
NdRe2SiC,mp-1205793,0.0,6.40692803,0.0,"{60: 1, 75: 2, 14: 1, 6: 1}","[6, 14, 60, 75]",61141601752,Nd1Re2Si1C1
NdSiOs2C,mp-1205578,0.0,6.75368277,0.0,"{60: 1, 14: 1, 76: 2, 6: 1}","[6, 14, 60, 76]",61141601762,Nd1Si1Os2C1
SmRe2SiC,mp-1206564,0.0,6.28393934,0.0,"{62: 1, 75: 2, 14: 1, 6: 1}","[6, 14, 62, 75]",61141621752,Sm1Re2Si1C1
SmSiOs2C,mp-1205528,0.0,6.66796534,0.0,"{62: 1, 14: 1, 76: 2, 6: 1}","[6, 14, 62, 76]",61141621762,Sm1Si1Os2C1
TbRe2SiC,mp-569505,0.0,6.46248933,0.0,"{65: 1, 75: 2, 14: 1, 6: 1}","[6, 14, 65, 75]",61141651752,Tb1Re2Si1C1
TbSiOs2C,mp-1206183,0.0,6.86816439,0.0,"{65: 1, 14: 1, 76: 2, 6: 1}","[6, 14, 65, 76]",61141651762,Tb1Si1Os2C1
DyRe2SiC,mp-1206141,0.0,6.41340223,0.0,"{66: 1, 75: 2, 14: 1, 6: 1}","[6, 14, 66, 75]",61141661752,Dy1Re2Si1C1
DySiOs2C,mp-1205579,0.0,6.84976091,0.0,"{66: 1, 14: 1, 76: 2, 6: 1}","[6, 14, 66, 76]",61141661762,Dy1Si1Os2C1
HoRe2SiC,mp-1205545,0.0,6.35001256,0.0,"{67: 1, 75: 2, 14: 1, 6: 1}","[6, 14, 67, 75]",61141671752,Ho1Re2Si1C1
HoSiOs2C,mp-1205519,0.0,6.82343291,0.0,"{67: 1, 14: 1, 76: 2, 6: 1}","[6, 14, 67, 76]",61141671762,Ho1Si1Os2C1
ErRe2SiC,mp-1205882,0.0,6.34896206,0.0,"{68: 1, 75: 2, 14: 1, 6: 1}","[6, 14, 68, 75]",61141681752,Er1Re2Si1C1
ErSiOs2C,mp-1206269,0.0,6.83786026,0.0,"{68: 1, 14: 1, 76: 2, 6: 1}","[6, 14, 68, 76]",61141681762,Er1Si1Os2C1
TmRe2SiC,mp-1205618,0.0,6.35217119,0.0,"{69: 1, 75: 2, 14: 1, 6: 1}","[6, 14, 69, 75]",61141691752,Tm1Re2Si1C1
TmSiOs2C,mp-1205607,0.0,6.83059626,0.0,"{69: 1, 14: 1, 76: 2, 6: 1}","[6, 14, 69, 76]",61141691762,Tm1Si1Os2C1
ThRe2SiC,mp-1206114,0.0,8.1174599,0.0,"{90: 1, 75: 2, 14: 1, 6: 1}","[6, 14, 75, 90]",61141752901,Th1Re2Si1C1
ThSiOs2C,mp-1208232,0.0,8.53887956,0.0,"{90: 1, 14: 1, 76: 2, 6: 1}","[6, 14, 76, 90]",61141762901,Th1Si1Os2C1
USiOs2C,mp-1205555,0.0,9.60512092,0.01837814575000074,"{92: 1, 14: 1, 76: 2, 6: 1}","[6, 14, 76, 92]",61141762921,U1Si1Os2C1
LaCr2Si2C,mp-604153,0.0,8.98178522,0.0,"{57: 1, 24: 2, 14: 2, 6: 1}","[6, 14, 24, 57]",61142242571,La1Cr2Si2C1
CeCr2Si2C,mp-6258,0.0,8.87962084,0.0,"{58: 1, 24: 2, 14: 2, 6: 1}","[6, 14, 24, 58]",61142242581,Ce1Cr2Si2C1
PrCr2Si2C,mp-21402,0.0,7.21088782,0.009980114068713242,"{59: 1, 24: 2, 14: 2, 6: 1}","[6, 14, 24, 59]",61142242591,Pr1Cr2Si2C1
NdCr2Si2C,mp-1206310,0.0,7.31645576,0.002172503652048796,"{60: 1, 24: 2, 14: 2, 6: 1}","[6, 14, 24, 60]",61142242601,Nd1Cr2Si2C1
SmCr2Si2C,mp-1206312,0.0,7.20142365,0.0,"{62: 1, 24: 2, 14: 2, 6: 1}","[6, 14, 24, 62]",61142242621,Sm1Cr2Si2C1
TbCr2Si2C,mp-1206333,0.0,7.40381278,0.0,"{65: 1, 24: 2, 14: 2, 6: 1}","[6, 14, 24, 65]",61142242651,Tb1Cr2Si2C1
DyCr2Si2C,mp-1206533,0.0,7.33560473,0.0,"{66: 1, 24: 2, 14: 2, 6: 1}","[6, 14, 24, 66]",61142242661,Dy1Cr2Si2C1
HoCr2Si2C,mp-1024999,0.0,7.38806583,0.0,"{67: 1, 24: 2, 14: 2, 6: 1}","[6, 14, 24, 67]",61142242671,Ho1Cr2Si2C1
ErCr2Si2C,mp-1206309,0.0,7.39806846,0.0,"{68: 1, 24: 2, 14: 2, 6: 1}","[6, 14, 24, 68]",61142242681,Er1Cr2Si2C1
CeSi2Mo2C,mp-1018666,0.0,8.86408441,0.0,"{58: 1, 14: 2, 42: 2, 6: 1}","[6, 14, 42, 58]",61142422581,Ce1Si2Mo2C1
PrSi2Mo2C,mp-21891,0.0,7.49765598,0.0,"{59: 1, 14: 2, 42: 2, 6: 1}","[6, 14, 42, 59]",61142422591,Pr1Si2Mo2C1
La2Re2Si2C,mp-1025245,0.0,8.12809163,0.0,"{57: 2, 75: 2, 14: 2, 6: 1}","[6, 14, 57, 75]",61142572752,La2Re2Si2C1
Ce2Re2Si2C,mp-1025285,0.0,8.07513189,0.0,"{58: 2, 75: 2, 14: 2, 6: 1}","[6, 14, 58, 75]",61142582752,Ce2Re2Si2C1
Pr2Re2Si2C,mp-1025384,0.0,6.0478521,0.0,"{59: 2, 75: 2, 14: 2, 6: 1}","[6, 14, 59, 75]",61142592752,Pr2Re2Si2C1
Nd2Re2Si2C,mp-1025210,0.0,6.02802872,0.0,"{60: 2, 75: 2, 14: 2, 6: 1}","[6, 14, 60, 75]",61142602752,Nd2Re2Si2C1
Sm2Re2Si2C,mp-1025249,0.0,5.96029293,0.0,"{62: 2, 75: 2, 14: 2, 6: 1}","[6, 14, 62, 75]",61142622752,Sm2Re2Si2C1
Gd2Re2Si2C,mp-1025361,0.0,5.97179286,0.0,"{64: 2, 75: 2, 14: 2, 6: 1}","[6, 14, 64, 75]",61142642752,Gd2Re2Si2C1
Tb2Re2Si2C,mp-1025189,0.0,6.24272025,0.0,"{65: 2, 75: 2, 14: 2, 6: 1}","[6, 14, 65, 75]",61142652752,Tb2Re2Si2C1
Dy2Re2Si2C,mp-1025240,0.0,6.24386876,0.0,"{66: 2, 75: 2, 14: 2, 6: 1}","[6, 14, 66, 75]",61142662752,Dy2Re2Si2C1
Ho2Re2Si2C,mp-1025320,0.0,6.2076574,0.0,"{67: 2, 75: 2, 14: 2, 6: 1}","[6, 14, 67, 75]",61142672752,Ho2Re2Si2C1
Er2Re2Si2C,mp-1025362,0.0,6.24002979,0.0,"{68: 2, 75: 2, 14: 2, 6: 1}","[6, 14, 68, 75]",61142682752,Er2Re2Si2C1
Si3CCl7,mp-30051,4.005,-0.82699546,0.06382549501016754,"{14: 3, 6: 1, 17: 7}","[6, 14, 17]",61143177,Si3C1Cl7
Si3CCl8,mp-28813,4.528700000000001,-1.24728555,0.06698896297807,"{14: 3, 6: 1, 17: 8}","[6, 14, 17]",61143178,Si3C1Cl8
Ti5Si3C,mp-995201,0.0,7.68883772,0.0,"{22: 5, 14: 3, 6: 1}","[6, 14, 22]",61143225,Ti5Si3C1
Cr5Si3C,mp-1105327,0.0,9.09981158,0.053168426637427046,"{24: 5, 14: 3, 6: 1}","[6, 14, 24]",61143245,Cr5Si3C1
Nd5Si3C,mp-1189002,0.0,4.103224,0.09358818000000024,"{60: 5, 14: 3, 6: 1}","[6, 14, 60]",61143605,Nd5Si3C1
Sm5Si3C,mp-1189584,0.0,4.06562404,0.06963681250000064,"{62: 5, 14: 3, 6: 1}","[6, 14, 62]",61143625,Sm5Si3C1
Tb5Si3C,mp-1105676,0.0,4.28117249,0.048336354444445284,"{65: 5, 14: 3, 6: 1}","[6, 14, 65]",61143655,Tb5Si3C1
Dy5Si3C,mp-1105665,0.0,4.31792607,0.04504685344444592,"{66: 5, 14: 3, 6: 1}","[6, 14, 66]",61143665,Dy5Si3C1
Ho5Si3C,mp-1106179,0.0,4.25978981,0.040483066222224195,"{67: 5, 14: 3, 6: 1}","[6, 14, 67]",61143675,Ho5Si3C1
Er5Si3C,mp-1189015,0.0,4.32675493,0.06322756640211757,"{68: 5, 14: 3, 6: 1}","[6, 14, 68]",61143685,Er5Si3C1
Tm5Si3C,mp-1189640,0.0,4.32161276,0.0307481057638892,"{69: 5, 14: 3, 6: 1}","[6, 14, 69]",61143695,Tm5Si3C1
Lu5Si3C,mp-1106069,0.0,4.32692207,0.02162017058333454,"{71: 5, 14: 3, 6: 1}","[6, 14, 71]",61143715,Lu5Si3C1
Dy7Ru2C11,mp-1213045,0.0,5.21333536,0.0,"{66: 7, 44: 2, 6: 11}","[6, 44, 66]",611442667,Dy7Ru2C11
Ho7Ru2C11,mp-1212223,0.0,5.17336067,0.010043137833336324,"{67: 7, 44: 2, 6: 11}","[6, 44, 67]",611442677,Ho7Ru2C11
Er7Ru2C11,mp-28833,0.0,5.30056016,0.021752772139998378,"{68: 7, 44: 2, 6: 11}","[6, 44, 68]",611442687,Er7Ru2C11
Tm7Ru2C11,mp-1208123,0.0,5.19697756,0.01442908265000753,"{69: 7, 44: 2, 6: 11}","[6, 44, 69]",611442697,Tm7Ru2C11
Ho15Si9C,mp-1224472,0.0,4.31467974,0.009877833240002687,"{67: 15, 14: 9, 6: 1}","[6, 14, 67]",611496715,Ho15Si9C1
Er15Si9C,mp-1196963,0.0,4.44822257,0.0,"{68: 15, 14: 9, 6: 1}","[6, 14, 68]",611496815,Er15Si9C1
Cr24P11C,mp-1226632,0.0,8.72049515,0.053844023750002634,"{24: 24, 15: 11, 6: 1}","[6, 15, 24]",6115112424,Cr24P11C1
V2PC,mp-8044,0.0,8.39919005,0.0,"{23: 2, 15: 1, 6: 1}","[6, 15, 23]",61151232,V2P1C1
V3PC,mp-1080573,0.0,8.19072781,0.0053082971712949956,"{23: 3, 15: 1, 6: 1}","[6, 15, 23]",61151233,V3P1C1
Cr3PC,mp-1078492,0.0,8.65220852,0.034978444500000094,"{24: 3, 15: 1, 6: 1}","[6, 15, 24]",61151243,Cr3P1C1
Nb2PC,mp-9987,0.0,7.37083463,0.0,"{41: 2, 15: 1, 6: 1}","[6, 15, 41]",61151412,Nb2P1C1
CePRu2C,mp-1080729,0.0,8.79033867,0.0,"{58: 1, 15: 1, 44: 2, 6: 1}","[6, 15, 44, 58]",61151442581,Ce1P1Ru2C1
SmPRu2C,mp-1079697,0.0,7.05322035,0.0,"{62: 1, 15: 1, 44: 2, 6: 1}","[6, 15, 44, 62]",61151442621,Sm1P1Ru2C1
TbPRu2C,mp-1080794,0.0,7.2725078,0.0,"{65: 1, 15: 1, 44: 2, 6: 1}","[6, 15, 44, 65]",61151442651,Tb1P1Ru2C1
DyPRu2C,mp-1205848,0.0,7.23203581,0.0,"{66: 1, 15: 1, 44: 2, 6: 1}","[6, 15, 44, 66]",61151442661,Dy1P1Ru2C1
HoPRu2C,mp-1205704,0.0,7.18112361,0.0,"{67: 1, 15: 1, 44: 2, 6: 1}","[6, 15, 44, 67]",61151442671,Ho1P1Ru2C1
ErPRu2C,mp-1205587,0.0,7.20191298,0.0,"{68: 1, 15: 1, 44: 2, 6: 1}","[6, 15, 44, 68]",61151442681,Er1P1Ru2C1
La2PC,mp-866691,0.0,8.41353906,0.0,"{57: 2, 15: 1, 6: 1}","[6, 15, 57]",61151572,La2P1C1
CePOs2C,mp-1205728,0.0,9.14010847,0.11434442149999846,"{58: 1, 15: 1, 76: 2, 6: 1}","[6, 15, 58, 76]",61151581762,Ce1P1Os2C1
PrPOs2C,mp-1205609,0.0,7.62251663,0.16685546650000127,"{59: 1, 15: 1, 76: 2, 6: 1}","[6, 15, 59, 76]",61151591762,Pr1P1Os2C1
NdPOs2C,mp-1206657,0.0,7.58111369,0.1579254505000005,"{60: 1, 15: 1, 76: 2, 6: 1}","[6, 15, 60, 76]",61151601762,Nd1P1Os2C1
SmPOs2C,mp-1207145,0.0,7.44184355,0.1500815485000011,"{62: 1, 15: 1, 76: 2, 6: 1}","[6, 15, 62, 76]",61151621762,Sm1P1Os2C1
TbPOs2C,mp-1205640,0.0,7.65227595,0.15252688750000054,"{65: 1, 15: 1, 76: 2, 6: 1}","[6, 15, 65, 76]",61151651762,Tb1P1Os2C1
V4P2C,mp-29634,0.0,8.44865423,0.0,"{23: 4, 15: 2, 6: 1}","[6, 15, 23]",61152234,V4P2C1
CS,mp-1147643,0.0,6.89527159,1.3471603400892853,"{6: 1, 16: 1}","[6, 16]",61161,C1S1
CSCl2,mp-554711,2.9570000000000003,-0.3169104,0.1606379511383933,"{6: 1, 16: 1, 17: 2}","[6, 16, 17]",61161172,C1S1Cl2
Ti2CS,mp-3732,0.0,8.20808649,0.0,"{22: 2, 6: 1, 16: 1}","[6, 16, 22]",61161222,Ti2C1S1
CS14,mp-27814,2.5569,-0.35151479,0.0,"{6: 1, 16: 14}","[6, 16]",611614,C1S14
Zr2CS,mp-5025,0.0,6.7970435,0.0,"{40: 2, 6: 1, 16: 1}","[6, 16, 40]",61161402,Zr2C1S1
Nb2CS,mp-9988,0.0,7.63074075,0.02473634093750121,"{41: 2, 6: 1, 16: 1}","[6, 16, 41]",61161412,Nb2C1S1
Hf2CS,mp-13137,0.0,7.64545999,0.0,"{72: 2, 6: 1, 16: 1}","[6, 16, 72]",61161722,Hf2C1S1
U2CS,mp-1216673,0.0,10.8103324,0.0,"{92: 2, 6: 1, 16: 1}","[6, 16, 92]",61161922,U2C1S1
CS2,mp-2232,3.4316,-2.11786231,0.22579864928571425,"{6: 1, 16: 2}","[6, 16]",61162,C1S2
AuCS2Cl3,mp-556112,1.8955000000000002,-0.8353227,0.02852947933673633,"{79: 1, 6: 1, 16: 2, 17: 3}","[6, 16, 17, 79]",61162173791,Au1C1S2Cl3
Nb2CS2,mp-4384,0.0,4.53831738,0.01650063712500227,"{41: 2, 6: 1, 16: 2}","[6, 16, 41]",61162412,Nb2C1S2
Ta2CS2,mp-559976,0.0,5.48115559,0.0,"{73: 2, 6: 1, 16: 2}","[6, 16, 73]",61162732,Ta2C1S2
CS3,mp-734582,0.11609999999999998,0.23015613,0.6584704326339281,"{6: 1, 16: 3}","[6, 16]",61163,C1S3
CS30,mp-1215137,0.01920000000000055,-4.31745982,0.9393401009677431,"{6: 1, 16: 30}","[6, 16]",611630,C1S30
Tl2CS3,mp-2679737,1.9240999999999997,1.75832129,0.07448791310184966,"{81: 2, 6: 1, 16: 3}","[6, 16, 81]",61163812,Tl2C1S3
CS5,mp-1215005,0.5398999999999994,-4.02084641,0.6799678195238092,"{6: 1, 16: 5}","[6, 16]",61165,C1S5
GaMo4CS8,mp-15862,0.0,5.86935348,0.48668405588454977,"{31: 1, 42: 4, 6: 1, 16: 8}","[6, 16, 31, 42]",61168311424,Ga1Mo4C1S8
CCl,mp-1214295,2.1141,0.32070562,0.1861807662499988,"{6: 1, 17: 1}","[6, 17]",61171,C1Cl1
Cs4Sc6CCl13,mp-568135,0.0,4.47120669,0.0009865673263886876,"{55: 4, 21: 6, 6: 1, 17: 13}","[6, 17, 21, 55]",611713216554,Cs4Sc6C1Cl13
Ti6CCl14,mp-28913,0.9476999999999998,2.20710545,0.0,"{22: 6, 6: 1, 17: 14}","[6, 17, 22]",611714226,Ti6C1Cl14
Zr6CCl14,mp-29357,1.2812,2.06981723,0.0,"{40: 6, 6: 1, 17: 14}","[6, 17, 40]",611714406,Zr6C1Cl14
Hf6CCl14,mp-1212485,1.3758,3.9550928,0.0,"{72: 6, 6: 1, 17: 14}","[6, 17, 72]",611714726,Hf6C1Cl14
KZr6CCl15,mp-570066,1.1123,1.38965145,0.0,"{19: 1, 40: 6, 6: 1, 17: 15}","[6, 17, 19, 40]",611715191406,K1Zr6C1Cl15
KHf6CCl15,mp-1211876,1.1511,2.15623176,0.0,"{19: 1, 72: 6, 6: 1, 17: 15}","[6, 17, 19, 72]",611715191726,K1Hf6C1Cl15
RbZr6CCl15,mp-567966,1.1281,1.48392214,0.0,"{37: 1, 40: 6, 6: 1, 17: 15}","[6, 17, 37, 40]",611715371406,Rb1Zr6C1Cl15
CsZr6CCl15,mp-1213455,1.1421000000000001,1.59653484,0.0,"{55: 1, 40: 6, 6: 1, 17: 15}","[6, 17, 40, 55]",611715406551,Cs1Zr6C1Cl15
CsHf6CCl15,mp-1213477,1.2179,2.04241715,0.0,"{55: 1, 72: 6, 6: 1, 17: 15}","[6, 17, 55, 72]",611715551726,Cs1Hf6C1Cl15
La2CCl,mp-29404,0.0,8.36362402,0.004483820961538321,"{57: 2, 6: 1, 17: 1}","[6, 17, 57]",61171572,La2C1Cl1
W6CCl15,mp-1200705,0.5169999999999999,2.11529696,0.045755267613636796,"{74: 6, 6: 1, 17: 15}","[6, 17, 74]",611715746,W6C1Cl15
Gd2CCl,mp-28638,0.0,5.25465351,0.0,"{64: 2, 6: 1, 17: 1}","[6, 17, 64]",61171642,Gd2C1Cl1
W6CCl16,mp-680486,0.4016000000000002,2.67159473,0.021094734311595253,"{74: 6, 6: 1, 17: 16}","[6, 17, 74]",611716746,W6C1Cl16
Rb4Zr6CCl18,mp-862605,1.2651999999999999,1.3279608,0.0,"{37: 4, 40: 6, 6: 1, 17: 18}","[6, 17, 37, 40]",611718374406,Rb4Zr6C1Cl18
CsLaZr6CCl18,mp-1213380,1.4203999999999999,2.39484881,0.0,"{55: 1, 57: 1, 40: 6, 6: 1, 17: 18}","[6, 17, 40, 55, 57]",611718406551571,Cs1La1Zr6C1Cl18
AgW6CCl18,mp-1214992,0.07999999999999963,2.5763749,0.012029033012823653,"{47: 1, 74: 6, 6: 1, 17: 18}","[6, 17, 47, 74]",611718471746,Ag1W6C1Cl18
Cs2Lu7CCl18,mp-569387,0.0,3.49136234,0.0,"{55: 2, 71: 7, 6: 1, 17: 18}","[6, 17, 55, 71]",611718552717,Cs2Lu7C1Cl18
W6CCl18,mp-30295,1.1546,0.56060096,0.0,"{74: 6, 6: 1, 17: 18}","[6, 17, 74]",611718746,W6C1Cl18
CCl2,mp-1214217,3.9193000000000002,-0.7931214,0.15272303312500046,"{6: 1, 17: 2}","[6, 17]",61172,C1Cl2
Sc2CCl2,mp-28479,0.8824000000000001,2.33108536,0.0,"{21: 2, 6: 1, 17: 2}","[6, 17, 21]",61172212,Sc2C1Cl2
Ti2CCl2,mp-2647029,0.0,5.2139817,0.0,"{22: 2, 6: 1, 17: 2}","[6, 17, 22]",61172222,Ti2C1Cl2
Gd2CCl2,mp-29394,0.4861,2.535882,0.007018635305557908,"{64: 2, 6: 1, 17: 2}","[6, 17, 64]",61172642,Gd2C1Cl2
Lu2CCl2,mp-573376,1.0343999999999998,2.66327015,0.0,"{71: 2, 6: 1, 17: 2}","[6, 17, 71]",61172712,Lu2C1Cl2
CCl3,mp-1214207,4.7139,-0.99339585,0.018717241328125134,"{6: 1, 17: 3}","[6, 17]",61173,C1Cl3
SnCCl3,mp-729742,0.787,-0.55942756,1.1648274594999997,"{50: 1, 6: 1, 17: 3}","[6, 17, 50]",61173501,Sn1C1Cl3
Gd3CCl3,mp-28133,0.0,4.73896953,0.0,"{64: 3, 6: 1, 17: 3}","[6, 17, 64]",61173643,Gd3C1Cl3
CCl4,mp-1004532,4.5297,-1.89970897,0.0,"{6: 1, 17: 4}","[6, 17]",61174,C1Cl4
Ce3CCl5,mp-580802,0.2093999999999996,5.43095476,0.0,"{58: 3, 6: 1, 17: 5}","[6, 17, 58]",61175583,Ce3C1Cl5
Pr3CCl5,mp-571490,2.3972999999999995,2.44670307,0.0,"{59: 3, 6: 1, 17: 5}","[6, 17, 59]",61175593,Pr3C1Cl5
Sc5CCl8,mp-31024,0.0,4.52308867,0.0,"{21: 5, 6: 1, 17: 8}","[6, 17, 21]",61178215,Sc5C1Cl8
W2CCl8,mp-30117,1.2971,0.45672885,0.10511043970959388,"{74: 2, 6: 1, 17: 8}","[6, 17, 74]",61178742,W2C1Cl8
Te2Ru4(CO)11,mp-651231,1.7386000000000001,0.04323445,0.15784984888392906,"{52: 2, 44: 4, 6: 11, 8: 11}","[6, 8, 44, 52]",611811444522,Te2Ru4C11O11
Mn2PC11SO8F9,mp-699914,3.1308000000000002,-0.97488619,0.6053423069587014,"{25: 2, 15: 1, 6: 11, 16: 1, 8: 8, 9: 9}","[6, 8, 9, 15, 16, 25]",6118899151161252,Mn2P1C11S1O8F9
KC,mp-243,3.2748999999999997,-0.95354131,0.2752375937031255,"{19: 1, 6: 1}","[6, 19]",61191,K1C1
KZr6CI14,mp-1211572,0.016000000000000014,3.93080092,0.004732510000001966,"{19: 1, 40: 6, 6: 1, 53: 14}","[6, 19, 40, 53]",611914065314,K1Zr6C1I14
K2C,mp-1211945,0.0,0.94796818,1.4010464421354176,"{19: 2, 6: 1}","[6, 19]",61192,K2C1
K4C,mp-1206408,0.0,0.19979012,0.9734026983812507,"{19: 4, 6: 1}","[6, 19]",61194,K4C1
K4Zr6CBr18,mp-627575,1.1749999999999998,2.08463935,0.0,"{19: 4, 40: 6, 6: 1, 35: 18}","[6, 19, 35, 40]",611943518406,K4Zr6C1Br18
C11F7,mp-1588,2.2206,-0.5229405,0.3666336298958335,"{6: 11, 9: 7}","[6, 9]",61197,C11F7
CaC,mp-1213965,0.0,2.71211405,1.1361484512499995,"{20: 1, 6: 1}","[6, 20]",61201,Ca1C1
CaPd3C,mp-12572,0.0,4.84586978,0.23097491449999819,"{20: 1, 46: 3, 6: 1}","[6, 20, 46]",61201463,Ca1Pd3C1
ScC,mp-10020,0.0,5.05852027,0.30811491535714364,"{21: 1, 6: 1}","[6, 21]",61211,Sc1C1
ScCo3C,mp-10270,0.0,6.08719646,0.0,"{21: 1, 27: 3, 6: 1}","[6, 21, 27]",61211273,Sc1Co3C1
ScRu3C,mp-7130,0.0,7.02019737,0.0,"{21: 1, 44: 3, 6: 1}","[6, 21, 44]",61211443,Sc1Ru3C1