formula,material_id,band_gap,efermi,energy_above_hull,comp_atoms,sorted_keys_comp_atoms,comp_number,new_formula
RbH3(CO2)2,mp-23688,4.8136,-1.93495947,0.10119069306249884,"{37: 1, 1: 3, 6: 2, 8: 4}","[1, 6, 8, 37]",136284371,Rb1H3C2O4
SbH3C2(O2F3)2,mp-698527,2.9844999999999997,-1.19325461,0.08818364968750014,"{51: 1, 1: 3, 6: 2, 8: 4, 9: 6}","[1, 6, 8, 9, 51]",13628496511,Sb1H3C2O4F6
NaH3C2O5,mp-696174,3.1827,-0.7378645,0.062280223295452686,"{11: 1, 1: 3, 6: 2, 8: 5}","[1, 6, 8, 11]",136285111,Na1H3C2O5
InH3C2O5,mp-1202487,4.2657,3.75306513,0.09015506181818189,"{49: 1, 1: 3, 6: 2, 8: 5}","[1, 6, 8, 49]",136285491,In1H3C2O5
MgCrH3(CO3)2,mp-1210937,2.0763,0.61716454,0.6648222167307578,"{12: 1, 24: 1, 1: 3, 6: 2, 8: 6}","[1, 6, 8, 12, 24]",136286121241,Mg1Cr1H3C2O6
H3C3N5,mp-1212579,3.483,2.64532235,0.0,"{1: 3, 6: 3, 7: 5}","[1, 6, 7]",136375,H3C3N5
Sb2H3C3SCl6O5F3,mp-1219693,1.6573,-1.12256826,0.3158881215489169,"{51: 2, 1: 3, 6: 3, 16: 1, 17: 6, 8: 5, 9: 3}","[1, 6, 8, 9, 16, 17, 51]",13638593161176512,Sb2H3C3S1Cl6O5F3
NaMnH3(CO2)3,mp-1195148,3.9508,-1.30443634,0.09663869421130489,"{11: 1, 25: 1, 1: 3, 6: 3, 8: 6}","[1, 6, 8, 11, 25]",136386111251,Na1Mn1H3C3O6
NaCoH3(CO2)3,mp-1221138,2.9427000000000003,1.5211386,0.11703354595237414,"{11: 1, 27: 1, 1: 3, 6: 3, 8: 6}","[1, 6, 8, 11, 27]",136386111271,Na1Co1H3C3O6
NaCdH3(CO2)3,mp-557366,4.3046999999999995,-1.12578968,0.10705343761904373,"{11: 1, 48: 1, 1: 3, 6: 3, 8: 6}","[1, 6, 8, 11, 48]",136386111481,Na1Cd1H3C3O6
KMnH3(CO2)3,mp-1192422,3.2756,-0.11714849,0.10495926758928054,"{19: 1, 25: 1, 1: 3, 6: 3, 8: 6}","[1, 6, 8, 19, 25]",136386191251,K1Mn1H3C3O6
KCoH3(CO2)3,mp-1193315,2.9178,2.1412835,0.1119387507738141,"{19: 1, 27: 1, 1: 3, 6: 3, 8: 6}","[1, 6, 8, 19, 27]",136386191271,K1Co1H3C3O6
ScH3(CO2)3,mp-1193413,3.8040000000000003,-1.7776433,0.1035844489423079,"{21: 1, 1: 3, 6: 3, 8: 6}","[1, 6, 8, 21]",136386211,Sc1H3C3O6
InH3(CO2)3,mp-1200352,4.8309,3.78278865,0.10986255592948524,"{49: 1, 1: 3, 6: 3, 8: 6}","[1, 6, 8, 49]",136386491,In1H3C3O6
LaH3(CO2)3,mp-642729,4.0317,1.45361648,0.0828267567948675,"{57: 1, 1: 3, 6: 3, 8: 6}","[1, 6, 8, 57]",136386571,La1H3C3O6
CeH3(CO2)3,mp-642731,0.0,4.22698518,0.1347749933173059,"{58: 1, 1: 3, 6: 3, 8: 6}","[1, 6, 8, 58]",136386581,Ce1H3C3O6
NdH3(CO2)3,mp-23837,4.182,0.45433021,0.11324846817306344,"{60: 1, 1: 3, 6: 3, 8: 6}","[1, 6, 8, 60]",136386601,Nd1H3C3O6
SmH3(CO2)3,mp-23771,3.8642,0.65278962,0.1170521466346024,"{62: 1, 1: 3, 6: 3, 8: 6}","[1, 6, 8, 62]",136386621,Sm1H3C3O6
TbH3(CO2)3,mp-642991,3.9948,0.79195896,0.07673039889423539,"{65: 1, 1: 3, 6: 3, 8: 6}","[1, 6, 8, 65]",136386651,Tb1H3C3O6
TmH3(CO2)3,mp-642999,3.9281,0.98246968,0.09743743951922301,"{69: 1, 1: 3, 6: 3, 8: 6}","[1, 6, 8, 69]",136386691,Tm1H3C3O6
SrH3C3O7,mp-736390,2.7249000000000003,-0.18539042,0.05234093504463644,"{38: 1, 1: 3, 6: 3, 8: 7}","[1, 6, 8, 38]",136387381,Sr1H3C3O7
ZnP2H3C4NO8,mp-1199010,0.015300000000000091,-1.77730105,0.7786223541813015,"{30: 1, 15: 2, 1: 3, 6: 4, 7: 1, 8: 8}","[1, 6, 7, 8, 15, 30]",13647188152301,Zn1P2H3C4N1O8
Na5H3(CO3)4,mp-730460,4.9055,0.28684821,0.0,"{11: 5, 1: 3, 6: 4, 8: 12}","[1, 6, 8, 11]",1364812115,Na5H3C4O12
NaH3C4S4(OF)12,mp-709432,6.2957,-2.40310488,0.17329299972222056,"{11: 1, 1: 3, 6: 4, 16: 4, 8: 12, 9: 12}","[1, 6, 8, 9, 11, 16]",1364812912111164,Na1H3C4S4O12F12
CsU2H3(C2O7)2,mp-605374,2.0856,-0.38379419,0.04427025168836529,"{55: 1, 92: 2, 1: 3, 6: 4, 8: 14}","[1, 6, 8, 55, 92]",1364814551922,Cs1U2H3C4O14
NaH3C4O5,mp-1193570,2.8571999999999997,2.616115,0.21359770240384712,"{11: 1, 1: 3, 6: 4, 8: 5}","[1, 6, 8, 11]",136485111,Na1H3C4O5
VH3(C2O3)2,mp-1208136,1.7959,-0.22978589,0.17611441848213794,"{23: 1, 1: 3, 6: 4, 8: 6}","[1, 6, 8, 23]",136486231,V1H3C4O6
Mo2H3(CO2)4,mp-726434,1.07,0.93348896,0.3874149190073526,"{42: 2, 1: 3, 6: 4, 8: 8}","[1, 6, 8, 42]",136488422,Mo2H3C4O8
Sb2PH3(CF5)4,mp-1198885,4.5874,-3.37670583,0.23172627622023878,"{51: 2, 15: 1, 1: 3, 6: 4, 9: 20}","[1, 6, 9, 15, 51]",1364920151512,Sb2P1H3C4F20
BP4H36Rh(C9F5)4,mp-1202148,2.5166,0.32992037,0.3225253204557825,"{5: 1, 15: 4, 1: 36, 45: 1, 6: 36, 9: 20}","[1, 5, 6, 9, 15, 45]",13651636920154451,B1P4H36Rh1C36F20
UB6H36(C2N)3,mp-1196538,0.6279000000000001,1.66109975,0.1858412096364157,"{92: 1, 5: 6, 1: 36, 6: 6, 7: 3}","[1, 5, 6, 7, 92]",136566673921,U1B6H36C6N3
CrB6H36(C4O)2,mp-1197470,2.5602,-1.73703009,0.2156571664084872,"{24: 1, 5: 6, 1: 36, 6: 8, 8: 2}","[1, 5, 6, 8, 24]",136566882241,Cr1B6H36C8O2
MnH3C5NO6,mp-1222511,0.10199999999999998,-0.40461078,0.5975618554427085,"{25: 1, 1: 3, 6: 5, 7: 1, 8: 6}","[1, 6, 7, 8, 25]",13657186251,Mn1H3C5N1O6
PH3W(CO)5,mp-605052,2.8337,-0.64515045,0.5999821035000004,"{15: 1, 1: 3, 74: 1, 6: 5, 8: 5}","[1, 6, 8, 15, 74]",136585151741,P1H3W1C5O5
H36Pb3C10(I5N2)2,mp-1194995,1.7045000000000001,0.88787206,0.04976603884920472,"{1: 36, 82: 3, 6: 10, 53: 10, 7: 4}","[1, 6, 7, 53, 82]",136610745310823,H36Pb3C10I10N4
Cd3H36C10N5Cl11,mp-1229317,2.1286,-1.11772833,0.2180739138461547,"{48: 3, 1: 36, 6: 10, 7: 5, 17: 11}","[1, 6, 7, 17, 48]",136610751711483,Cd3H36C10N5Cl11
HoAl3(H3C)12,mp-1197331,4.0129,-2.39848171,0.09437082438301214,"{67: 1, 13: 3, 1: 36, 6: 12}","[1, 6, 13, 67]",136612133671,Ho1Al3H36C12
ZnSi4As2(H3C)12,mp-570146,2.7613,-0.50776583,0.04407740694928286,"{30: 1, 14: 4, 33: 2, 1: 36, 6: 12}","[1, 6, 14, 30, 33]",136612144301332,Zn1Si4As2H36C12
MoP4H36(C6Cl)2,mp-1196957,1.2246,1.88566143,0.04016766840909192,"{42: 1, 15: 4, 1: 36, 6: 12, 17: 2}","[1, 6, 15, 17, 42]",136612154172421,Mo1P4H36C12Cl2
P4H36W(C6Cl)2,mp-1200698,1.0356999999999998,1.89573091,0.04297355766017308,"{15: 4, 1: 36, 74: 1, 6: 12, 17: 2}","[1, 6, 15, 17, 74]",136612154172741,P4H36W1C12Cl2
TcP4H36(C6Br)2,mp-1198414,0.060899999999999954,0.82161049,0.04000264934849174,"{43: 1, 15: 4, 1: 36, 6: 12, 35: 2}","[1, 6, 15, 35, 43]",136612154352431,Tc1P4H36C12Br2
Sn4Ge(H3C)12,mp-1201032,3.3604000000000003,-1.61061236,0.12313197353773564,"{50: 4, 32: 1, 1: 36, 6: 12}","[1, 6, 32, 50]",136612321504,Sn4Ge1H36C12
Sb3H36(C3I2)4,mp-733600,0.0,0.40629069,0.15032278611581962,"{51: 3, 1: 36, 6: 12, 53: 8}","[1, 6, 51, 53]",136612513538,Sb3H36C12I8
ZnSi4H36(C6N)2,mp-1202457,3.7359,1.90925972,0.055278617465311264,"{30: 1, 14: 4, 1: 36, 6: 12, 7: 2}","[1, 6, 7, 14, 30]",13661272144301,Zn1Si4H36C12N2
Si4MoH36C12(NO)2,mp-1195132,3.6819,1.06673805,0.14348889500208983,"{14: 4, 42: 1, 1: 36, 6: 12, 7: 2, 8: 2}","[1, 6, 7, 8, 14, 42]",1366127282144421,Si4Mo1H36C12N2O2
KSn2H36C12(Se2N)3,mp-708999,1.8887,0.37464576,0.08495346866145859,"{19: 1, 50: 2, 1: 36, 6: 12, 34: 6, 7: 3}","[1, 6, 7, 19, 34, 50]",13661273191346502,K1Sn2H36C12Se6N3
HgTe5H36C12N3(OF5)5,mp-1194814,2.0657,-1.44456823,0.27007930886973064,"{80: 1, 52: 5, 1: 36, 6: 12, 7: 3, 8: 5, 9: 25}","[1, 6, 7, 8, 9, 52, 80]",1366127385925525801,Hg1Te5H36C12N3O5F25
Al3H36C12N3F4,mp-686547,0.0,1.85025305,0.33949970968390275,"{13: 3, 1: 36, 6: 12, 7: 3, 9: 4}","[1, 6, 7, 9, 13]",1366127394133,Al3H36C12N3F4
TaSi2H36C12N4Cl,mp-1197423,2.6189999999999998,1.6127244,0.1559000341385568,"{73: 1, 14: 2, 1: 36, 6: 12, 7: 4, 17: 1}","[1, 6, 7, 14, 17, 73]",13661274142171731,Ta1Si2H36C12N4Cl1
Ga3Si5P10H36C12N4Cl11,mp-1195290,3.1262,-1.26378953,0.09109537078511032,"{31: 3, 14: 5, 15: 10, 1: 36, 6: 12, 7: 4, 17: 11}","[1, 6, 7, 14, 15, 17, 31]",1366127414515101711313,Ga3Si5P10H36C12N4Cl11
Ta2H36C12N6Cl2O,mp-1198552,2.6784,-0.70506487,0.1428892145056455,"{73: 2, 1: 36, 6: 12, 7: 6, 17: 2, 8: 1}","[1, 6, 7, 8, 17, 73]",1366127681172732,Ta2H36C12N6Cl2O1
MnP2H36C12N6(ClO)2,mp-698303,4.1058,-0.75301817,0.16056628076844426,"{25: 1, 15: 2, 1: 36, 6: 12, 7: 6, 17: 2, 8: 2}","[1, 6, 7, 8, 15, 17, 25]",1366127682152172251,Mn1P2H36C12N6Cl2O2
CoP2H36C12Br2(N3O)2,mp-1199420,2.9566,1.65372715,0.14280328236680795,"{27: 1, 15: 2, 1: 36, 6: 12, 35: 2, 7: 6, 8: 2}","[1, 6, 7, 8, 15, 27, 35]",1366127682152271352,Co1P2H36C12Br2N6O2
UP2H36C12Br2(N3O2)2,mp-1202468,1.5625,-0.74836144,0.11950122692459608,"{92: 1, 15: 2, 1: 36, 6: 12, 35: 2, 7: 6, 8: 4}","[1, 6, 7, 8, 15, 35, 92]",1366127684152352921,U1P2H36C12Br2N6O4
Si2H36C12N6O7,mp-1202968,4.1874,-1.23519871,0.3333050605489438,"{14: 2, 1: 36, 6: 12, 7: 6, 8: 7}","[1, 6, 7, 8, 14]",1366127687142,Si2H36C12N6O7
V6H36C12O19,mp-1198563,0.9051,-0.24439712,0.23847392537671208,"{23: 6, 1: 36, 6: 12, 8: 19}","[1, 6, 8, 23]",136612819236,V6H36C12O19
CaH36W6C12S6O25,mp-1200644,2.9025,1.94073759,0.28887517976743915,"{20: 1, 1: 36, 74: 6, 6: 12, 16: 6, 8: 25}","[1, 6, 8, 16, 20, 74]",136612825166201746,Ca1H36W6C12S6O25
Si6As2H36(C4O)3,mp-1199687,3.6681,-0.71028836,0.040171945673060705,"{14: 6, 33: 2, 1: 36, 6: 12, 8: 3}","[1, 6, 8, 14, 33]",13661283146332,Si6As2H36C12O3
Si6Sb2H36(C4O)3,mp-1196398,3.3746,-0.63984597,0.05577698440187451,"{14: 6, 51: 2, 1: 36, 6: 12, 8: 3}","[1, 6, 8, 14, 51]",13661283146512,Si6Sb2H36C12O3
AlH36C12S6(ClO2)3,mp-24764,3.7828,-0.33860697,0.18523733587611524,"{13: 1, 1: 36, 6: 12, 16: 6, 17: 3, 8: 6}","[1, 6, 8, 13, 16, 17]",13661286131166173,Al1H36C12S6Cl3O6
AlH36C12S6(IO2)3,mp-24279,3.3691,-0.20593739,0.15085915805059358,"{13: 1, 1: 36, 6: 12, 16: 6, 53: 3, 8: 6}","[1, 6, 8, 13, 16, 53]",13661286131166533,Al1H36C12S6I3O6
Zr5Si6H36C12(Br10O3)2,mp-1196506,2.1936999999999998,-1.26530714,0.0,"{40: 5, 14: 6, 1: 36, 6: 12, 35: 20, 8: 6}","[1, 6, 8, 14, 35, 40]",136612861463520405,Zr5Si6H36C12Br20O6
CrH36C12S6(ClO2)3,mp-23830,2.6428,-0.40978934,0.1815856899712598,"{24: 1, 1: 36, 6: 12, 16: 6, 17: 3, 8: 6}","[1, 6, 8, 16, 17, 24]",13661286166173241,Cr1H36C12S6Cl3O6
GaH36C12S6(IO2)3,mp-24280,3.0307,-0.21593255,0.17395677911830365,"{31: 1, 1: 36, 6: 12, 16: 6, 53: 3, 8: 6}","[1, 6, 8, 16, 31, 53]",13661286166311533,Ga1H36C12S6I3O6
InH36C12S6(IO2)3,mp-24281,2.4953,0.04010967,0.1833512657589278,"{49: 1, 1: 36, 6: 12, 16: 6, 53: 3, 8: 6}","[1, 6, 8, 16, 49, 53]",13661286166491533,In1H36C12S6I3O6
Si4H36C13,mp-1202323,5.0251,-2.154366,0.04119239684806342,"{14: 4, 1: 36, 6: 13}","[1, 6, 14]",136613144,Si4H36C13
HgH36C14S8(O2F)6,mp-1196633,2.7103,-1.14539693,0.31517274012986984,"{80: 1, 1: 36, 6: 14, 16: 8, 8: 12, 9: 6}","[1, 6, 8, 9, 16, 80]",13661481296168801,Hg1H36C14S8O12F6
AgH36C15S3N6Cl,mp-1205047,3.459,-0.23746829,0.11190679524193481,"{47: 1, 1: 36, 6: 15, 16: 3, 7: 6, 17: 1}","[1, 6, 7, 16, 17, 47]",13661576163171471,Ag1H36C15S3N6Cl1
ZrH36C16(NO4)4,mp-600208,3.7626999999999997,-1.22035554,0.15411838119863486,"{40: 1, 1: 36, 6: 16, 7: 4, 8: 16}","[1, 6, 7, 8, 40]",13661674816401,Zr1H36C16N4O16
MnH36(C5N)12,mp-1200509,0.00019999999999997797,2.25658662,0.20551989291571005,"{25: 1, 1: 36, 6: 60, 7: 12}","[1, 6, 7, 25]",136660712251,Mn1H36C60N12
ZnH36(C5N)12,mp-1201037,0.08440000000000003,1.92304991,0.2012328732798121,"{30: 1, 1: 36, 6: 60, 7: 12}","[1, 6, 7, 30]",136660712301,Zn1H36C60N12
CoH3(CN)6,mp-570847,4.1766000000000005,-1.96972261,0.35811350136718634,"{27: 1, 1: 3, 6: 6, 7: 6}","[1, 6, 7, 27]",136676271,Co1H3C6N6
H3C6SeO3F5,mp-1203046,3.5314,2.28950595,0.3132675565364593,"{1: 3, 6: 6, 34: 1, 8: 3, 9: 5}","[1, 6, 8, 9, 34]",13668395341,H3C6Se1O3F5
CoMo8H36C8(NO16)2,mp-720809,3.2691,-0.67405645,0.20482386348658999,"{27: 1, 42: 8, 1: 36, 6: 8, 7: 2, 8: 32}","[1, 6, 7, 8, 27, 42]",1366872832271428,Co1Mo8H36C8N2O32
H3C8N2Cl3O2,mp-1212587,3.1763000000000003,1.80942874,0.181768145131171,"{1: 3, 6: 8, 7: 2, 17: 3, 8: 2}","[1, 6, 7, 8, 17]",13687282173,H3C8N2Cl3O2
K4Re2H3(C4O9)2,mp-1212328,0.6958,1.29260309,0.35270943905357033,"{19: 4, 75: 2, 1: 3, 6: 8, 8: 18}","[1, 6, 8, 19, 75]",1368818194752,K4Re2H3C8O18
BiH3Ru3(CO)9,mp-707319,2.2639,-0.24549536,0.19907183179999777,"{83: 1, 1: 3, 44: 3, 6: 9, 8: 9}","[1, 6, 8, 44, 83]",136989443831,Bi1H3Ru3C9O9
Si2B2H37C12N5,mp-1201331,3.2504999999999997,2.06822014,0.1252153354597736,"{14: 2, 5: 2, 1: 37, 6: 12, 7: 5}","[1, 5, 6, 7, 14]",1375261275142,Si2B2H37C12N5
Mo2H37C12N3Cl8,mp-1204183,0.6862999999999999,0.84257892,0.11920834399193314,"{42: 2, 1: 37, 6: 12, 7: 3, 17: 8}","[1, 6, 7, 17, 42]",13761273178422,Mo2H37C12N3Cl8
P2H38Pt(C2N)6,mp-1195182,3.6195,2.9427707,0.15184404792372863,"{15: 2, 1: 38, 78: 1, 6: 12, 7: 6}","[1, 6, 7, 15, 78]",13861276152781,P2H38Pt1C12N6
MoP4H38C13(NCl)4,mp-1199686,2.5373,-1.02602596,0.13666978001953023,"{42: 1, 15: 4, 1: 38, 6: 13, 7: 4, 17: 4}","[1, 6, 7, 15, 17, 42]",13861374154174421,Mo1P4H38C13N4Cl4
InSi4H38C14Cl,mp-1199230,3.9314,2.54111557,0.05193158012624721,"{49: 1, 14: 4, 1: 38, 6: 14, 17: 1}","[1, 6, 14, 17, 49]",138614144171491,In1Si4H38C14Cl1
Si4SbH38C14Cl,mp-1202312,3.4978,1.90500961,0.055417124077812296,"{14: 4, 51: 1, 1: 38, 6: 14, 17: 1}","[1, 6, 14, 17, 51]",138614144171511,Si4Sb1H38C14Cl1
Si4Bi2AsH38(C7Cl)2,mp-1202405,2.3631,-1.29041798,0.05794036379227663,"{14: 4, 83: 2, 33: 1, 1: 38, 6: 14, 17: 2}","[1, 6, 14, 17, 33, 83]",138614144172331832,Si4Bi2As1H38C14Cl2
B8P2H39RhC13,mp-1199795,2.2831,-0.82987998,0.09566796502579233,"{5: 8, 15: 2, 1: 39, 45: 1, 6: 13}","[1, 5, 6, 15, 45]",13958613152451,B8P2H39Rh1C13
InSi4H39C14O,mp-1203730,3.6954000000000002,2.15147547,0.0765616996800107,"{49: 1, 14: 4, 1: 39, 6: 14, 8: 1}","[1, 6, 8, 14, 49]",13961481144491,In1Si4H39C14O1
AgB10P2H40C15NCl2O3,mp-1204520,2.0022,-0.73700406,0.29900533667567686,"{47: 1, 5: 10, 15: 2, 1: 40, 6: 15, 7: 1, 17: 2, 8: 3}","[1, 5, 6, 7, 8, 15, 17, 47]",1405106157183152172471,Ag1B10P2H40C15N1Cl2O3
MgH40C10Br2(N2O)10,mp-707720,4.8406,-1.26788088,0.0009384808758294838,"{12: 1, 1: 40, 6: 10, 35: 2, 7: 20, 8: 10}","[1, 6, 7, 8, 12, 35]",140610720810121352,Mg1H40C10Br2N20O10
CoH40C10Br2(N2O)10,mp-1214998,3.218,-0.76135234,0.0061560237884874525,"{27: 1, 1: 40, 6: 10, 35: 2, 7: 20, 8: 10}","[1, 6, 7, 8, 27, 35]",140610720810271352,Co1H40C10Br2N20O10
NaCeMo8H40C12(S3O17)2,mp-1204389,0.14459999999999984,1.88396437,0.32313083386458086,"{11: 1, 58: 1, 42: 8, 1: 40, 6: 12, 16: 6, 8: 34}","[1, 6, 8, 11, 16, 42, 58]",140612834111166428581,Na1Ce1Mo8H40C12S6O34
LaH40C13N9O19,mp-1198469,3.5408,-1.39950924,0.47768668376016077,"{57: 1, 1: 40, 6: 13, 7: 9, 8: 19}","[1, 6, 7, 8, 57]",14061379819571,La1H40C13N9O19
Cr3P2H40(C8O5)2,mp-1196309,1.9923000000000002,-1.96172995,0.2559472943045753,"{24: 3, 15: 2, 1: 40, 6: 16, 8: 10}","[1, 6, 8, 15, 24]",140616810152243,Cr3P2H40C16O10
InSi4H41C15O,mp-1197352,3.5755,-1.20676569,0.08908034088500916,"{49: 1, 14: 4, 1: 41, 6: 15, 8: 1}","[1, 6, 8, 14, 49]",14161581144491,In1Si4H41C15O1
Si2Sn2H41C16O3,mp-1205138,1.0935,-0.94761254,0.17755669013271014,"{14: 2, 50: 2, 1: 41, 6: 16, 8: 3}","[1, 6, 8, 14, 50]",14161683142502,Si2Sn2H41C16O3
Zr6BH42C12I13O12,mp-1178630,1.1426,0.3408135,0.3269461431007663,"{40: 6, 5: 1, 1: 42, 6: 12, 53: 13, 8: 12}","[1, 5, 6, 8, 40, 53]",142516128124065313,Zr6B1H42C12I13O12
MgB2H42C26(N7O3)2,mp-1199767,4.6876999999999995,2.16063233,0.28299953925275556,"{12: 1, 5: 2, 1: 42, 6: 26, 7: 14, 8: 6}","[1, 5, 6, 7, 8, 12]",1425262671486121,Mg1B2H42C26N14O6
Si5H42(C7N)2,mp-1201090,4.0648,-1.36830378,0.041847390477443014,"{14: 5, 1: 42, 6: 14, 7: 2}","[1, 6, 7, 14]",14261472145,Si5H42C14N2
TiSi7H42C14(ClO)2,mp-1202315,2.4531,-1.57401557,0.07653400887916373,"{22: 1, 14: 7, 1: 42, 6: 14, 17: 2, 8: 2}","[1, 6, 8, 14, 17, 22]",14261482147172221,Ti1Si7H42C14Cl2O2
Ti2Si7H42C14(Cl3O)2,mp-1199188,1.4835,-0.8667385,0.059958345648404965,"{22: 2, 14: 7, 1: 42, 6: 14, 17: 6, 8: 2}","[1, 6, 8, 14, 17, 22]",14261482147176222,Ti2Si7H42C14Cl6O2
UH42C14S7Cl4O7,mp-1204634,0.22250000000000003,0.96447774,0.18753885800555992,"{92: 1, 1: 42, 6: 14, 16: 7, 17: 4, 8: 7}","[1, 6, 8, 16, 17, 92]",14261487167174921,U1H42C14S7Cl4O7
Sb2H42C15(BrN)9,mp-1201593,2.879,-0.39750192,0.21415879478896027,"{51: 2, 1: 42, 6: 15, 35: 9, 7: 9}","[1, 6, 7, 35, 51]",14261579359512,Sb2H42C15Br9N9
Na3Bi2H42C18I9(N2O3)3,mp-1050641,0.0442,-0.00886127,0.34285003609550646,"{11: 3, 83: 2, 1: 42, 6: 18, 53: 9, 7: 6, 8: 9}","[1, 6, 7, 8, 11, 53, 83]",1426187689113539832,Na3Bi2H42C18I9N6O9
H42C48Xe(ClO2)3,mp-1194884,3.5795000000000003,2.73613028,0.21361991635625,"{1: 42, 6: 48, 54: 1, 17: 3, 8: 6}","[1, 6, 8, 17, 54]",14264886173541,H42C48Xe1Cl3O6
Mg3H43C12O12F,mp-1202086,4.467,-1.80658093,0.15549646732394962,"{12: 3, 1: 43, 6: 12, 8: 12, 9: 1}","[1, 6, 8, 9, 12]",14361281291123,Mg3H43C12O12F1
MnH44C12N8(ClO5)2,mp-1200531,4.0791,-1.03541983,0.18046064246753257,"{25: 1, 1: 44, 6: 12, 7: 8, 17: 2, 8: 10}","[1, 6, 7, 8, 17, 25]",14461278810172251,Mn1H44C12N8Cl2O10
LaP2H44C14N7(Cl2O)2,mp-1225035,3.7069,-0.24864998,0.10855193250563566,"{57: 1, 15: 2, 1: 44, 6: 14, 7: 7, 17: 4, 8: 2}","[1, 6, 7, 8, 15, 17, 57]",1446147782152174571,La1P2H44C14N7Cl4O2
Si4Te2H44Pd(C8Cl)2,mp-1200140,1.9207999999999998,-0.79816236,0.09148635536346195,"{14: 4, 52: 2, 1: 44, 46: 1, 6: 16, 17: 2}","[1, 6, 14, 17, 46, 52]",144616144172461522,Si4Te2H44Pd1C16Cl2
Si4Te2H44Pt(C8Cl)2,mp-1201326,2.1648,-0.46983315,0.09607819434896836,"{14: 4, 52: 2, 1: 44, 78: 1, 6: 16, 17: 2}","[1, 6, 14, 17, 52, 78]",144616144172522781,Si4Te2H44Pt1C16Cl2
KBH4(CN4)2,mp-567593,4.7684999999999995,-2.19962703,0.2551826837500002,"{19: 1, 5: 1, 1: 4, 6: 2, 7: 8}","[1, 5, 6, 7, 19]",14516278191,K1B1H4C2N8
BH4C4N5,mp-1193817,6.3532,-4.08584036,0.32907690035713966,"{5: 1, 1: 4, 6: 4, 7: 5}","[1, 5, 6, 7]",14516475,B1H4C4N5
KBH4C4(N2O)4,mp-1199292,2.731,0.50100132,0.48249957528908016,"{19: 1, 5: 1, 1: 4, 6: 4, 7: 8, 8: 4}","[1, 5, 6, 7, 8, 19]",1451647884191,K1B1H4C4N8O4
B2H4C,mp-29655,4.5776,-2.48347025,0.08521061717033085,"{5: 2, 1: 4, 6: 1}","[1, 5, 6]",145261,B2H4C1
MgB2H4C8(N4O)2,mp-1200331,5.3302,-3.1104358,0.3956550360666684,"{12: 1, 5: 2, 1: 4, 6: 8, 7: 8, 8: 2}","[1, 5, 6, 7, 8, 12]",1452687882121,Mg1B2H4C8N8O2
H4C,mp-1021328,7.6375,-6.83573931,0.0,"{1: 4, 6: 1}","[1, 6]",1461,H4C1
H4Os3C10O9,mp-723031,3.2289000000000003,-0.44611527,0.25123511024038514,"{1: 4, 76: 3, 6: 10, 8: 9}","[1, 6, 8, 76]",1461089763,H4Os3C10O9
KCd6H4C12ClO26,mp-720082,2.8156999999999996,-0.26113745,0.26846748433333634,"{19: 1, 48: 6, 1: 4, 6: 12, 17: 1, 8: 26}","[1, 6, 8, 17, 19, 48]",14612826171191486,K1Cd6H4C12Cl1O26
HgH4C12O3F8,mp-1212320,3.5141999999999998,2.43381652,0.3019593181919644,"{80: 1, 1: 4, 6: 12, 8: 3, 9: 8}","[1, 6, 8, 9, 80]",146128398801,Hg1H4C12O3F8
NaH4CNO2,mp-706281,5.825200000000001,-2.73378346,0.15924533620369896,"{11: 1, 1: 4, 6: 1, 7: 1, 8: 2}","[1, 6, 7, 8, 11]",14617182111,Na1H4C1N1O2
NaH4CSNO2,mp-721712,3.9944,-0.81601465,0.06495267115833059,"{11: 1, 1: 4, 6: 1, 16: 1, 7: 1, 8: 2}","[1, 6, 7, 8, 11, 16]",14617182111161,Na1H4C1S1N1O2
AsH4CNF8,mp-1194818,5.0872,-3.27101801,0.06578419395833368,"{33: 1, 1: 4, 6: 1, 7: 1, 9: 8}","[1, 6, 7, 9, 33]",14617198331,As1H4C1N1F8
H4CSN2,mp-23930,3.6174999999999997,-0.53016296,0.0,"{1: 4, 6: 1, 16: 1, 7: 2}","[1, 6, 7, 16]",146172161,H4C1S1N2
H4CSN2Cl,mp-720300,3.6188000000000002,-0.52994031,0.04932043993496382,"{1: 4, 6: 1, 16: 1, 7: 2, 17: 1}","[1, 6, 7, 16, 17]",146172161171,H4C1S1N2Cl1
AgH4CSN2Cl,mp-1201812,2.6044,3.21888907,0.04299462845903346,"{47: 1, 1: 4, 6: 1, 16: 1, 7: 2, 17: 1}","[1, 6, 7, 16, 17, 47]",146172161171471,Ag1H4C1S1N2Cl1
H4CSIN2,mp-1238470,2.2319999999999998,0.6320199,0.05754501114052957,"{1: 4, 6: 1, 16: 1, 53: 1, 7: 2}","[1, 6, 7, 16, 53]",146172161531,H4C1S1I1N2
H4CN2O,mp-23778,5.0712,-1.21860956,0.0,"{1: 4, 6: 1, 7: 2, 8: 1}","[1, 6, 7, 8]",14617281,H4C1N2O1
CdH4CN2Cl2O,mp-697033,3.5746,-0.88039091,0.0014206028787899783,"{48: 1, 1: 4, 6: 1, 7: 2, 17: 2, 8: 1}","[1, 6, 7, 8, 17, 48]",14617281172481,Cd1H4C1N2Cl2O1
H4CS(NO)2,mp-1200372,3.0256,0.37961567,0.095571984002909,"{1: 4, 6: 1, 16: 1, 7: 2, 8: 2}","[1, 6, 7, 8, 16]",14617282161,H4C1S1N2O2
MoH4C(NO2)2,mp-1199647,3.1319,2.59004618,0.0840341984513886,"{42: 1, 1: 4, 6: 1, 7: 2, 8: 4}","[1, 6, 7, 8, 42]",14617284421,Mo1H4C1N2O4
CdH4CS2(NO3)2,mp-1198870,0.0,-0.86089873,0.7715525687109368,"{48: 1, 1: 4, 6: 1, 16: 2, 7: 2, 8: 6}","[1, 6, 7, 8, 16, 48]",14617286162481,Cd1H4C1S2N2O6
RbH4CN3,mp-1201627,3.7127,0.81140884,0.013404144722220401,"{37: 1, 1: 4, 6: 1, 7: 3}","[1, 6, 7, 37]",146173371,Rb1H4C1N3
CsH4CN3,mp-1203259,3.6774000000000004,4.52684708,0.0,"{55: 1, 1: 4, 6: 1, 7: 3}","[1, 6, 7, 55]",146173551,Cs1H4C1N3