formula,material_id,band_gap,efermi,energy_above_hull,comp_atoms,sorted_keys_comp_atoms,comp_number,new_formula
Sc3RuC4,mp-1179515,0.0,6.64746937,0.0,"{21: 3, 44: 1, 6: 4}","[6, 21, 44]",64213441,Sc3Ru1C4
Sc3RhC4,mp-567462,0.0,6.51045163,0.004470442291667709,"{21: 3, 45: 1, 6: 4}","[6, 21, 45]",64213451,Sc3Rh1C4
Sc3OsC4,mp-867215,0.0,6.79325955,0.0,"{21: 3, 76: 1, 6: 4}","[6, 21, 76]",64213761,Sc3Os1C4
Sc3IrC4,mp-570074,0.0,6.9693557,0.0012416960416672396,"{21: 3, 77: 1, 6: 4}","[6, 21, 77]",64213771,Sc3Ir1C4
Sc5Ir15C4,mp-1219408,0.0,8.39251452,0.13414623250000268,"{21: 5, 77: 15, 6: 4}","[6, 21, 77]",642157715,Sc5Ir15C4
Ti3WC4,mp-1217115,0.0,8.0535715,0.025361271250000428,"{22: 3, 74: 1, 6: 4}","[6, 22, 74]",64223741,Ti3W1C4
ZrNb2VC4,mp-1215237,0.0,7.00802511,0.08490759232638645,"{40: 1, 41: 2, 23: 1, 6: 4}","[6, 23, 40, 41]",64231401412,Zr1Nb2V1C4
HfNb2VC4,mp-1224360,0.0,7.17596605,0.0760553348263926,"{72: 1, 41: 2, 23: 1, 6: 4}","[6, 23, 41, 72]",64231412721,Hf1Nb2V1C4
HfTa2VC4,mp-1224304,0.0,7.62521279,0.06491425560763808,"{72: 1, 73: 2, 23: 1, 6: 4}","[6, 23, 72, 73]",64231721732,Hf1Ta2V1C4
Cr3(MoC2)2,mp-1226369,0.0,8.63281272,0.20981627388888668,"{24: 3, 42: 2, 6: 4}","[6, 24, 42]",64243422,Cr3Mo2C4
U(CrC)4,mp-2971,0.0,8.79325192,0.0,"{92: 1, 24: 4, 6: 4}","[6, 24, 92]",64244921,U1Cr4C4
Er2MnC4,mp-9267,0.0,4.82441668,0.01709808395604462,"{68: 2, 25: 1, 6: 4}","[6, 25, 68]",64251682,Er2Mn1C4
Tm2MnC4,mp-1207962,0.0,4.78043701,0.013274958301886741,"{69: 2, 25: 1, 6: 4}","[6, 25, 69]",64251692,Tm2Mn1C4
Mn3(W5C2)2,mp-1180495,0.0,7.12739803,0.31537856735294056,"{25: 3, 74: 10, 6: 4}","[6, 25, 74]",642537410,Mn3W10C4
Co3(W5C2)2,mp-1199098,0.0,6.93424828,0.3483585470588224,"{27: 3, 74: 10, 6: 4}","[6, 27, 74]",642737410,Co3W10C4
Co3W9C4,mp-1226205,0.0,6.88936505,0.3403829028124985,"{27: 3, 74: 9, 6: 4}","[6, 27, 74]",64273749,Co3W9C4
C4SeBr4,mp-1214253,2.7672,-0.1451051,0.39928267402777706,"{6: 4, 34: 1, 35: 4}","[6, 34, 35]",64341354,C4Se1Br4
RbPdC4Br,mp-1147545,0.0,-0.41623038,1.1987055671428548,"{37: 1, 46: 1, 6: 4, 35: 1}","[6, 35, 37, 46]",64351371461,Rb1Pd1C4Br1
Pr10C4Br15,mp-862839,0.0,3.47883495,0.0,"{59: 10, 6: 4, 35: 15}","[6, 35, 59]",6435155910,Pr10C4Br15
Rb2Tb10C4Br19,mp-569962,0.1554000000000002,2.46764481,0.0,"{37: 2, 65: 10, 6: 4, 35: 19}","[6, 35, 37, 65]",6435193726510,Rb2Tb10C4Br19
Ce4C4Br3,mp-569330,0.0,5.92961965,0.0,"{58: 4, 6: 4, 35: 3}","[6, 35, 58]",64353584,Ce4C4Br3
SrEuC4,mp-1218305,0.0,2.58985031,0.07303234472222186,"{38: 1, 63: 1, 6: 4}","[6, 38, 63]",64381631,Sr1Eu1C4
ZrNb3C4,mp-1215233,0.0,6.91060699,0.01917872593750225,"{40: 1, 41: 3, 6: 4}","[6, 40, 41]",64401413,Zr1Nb3C4
Zr2NbMoC4,mp-1215534,0.0,7.02575308,0.08224517078125082,"{40: 2, 41: 1, 42: 1, 6: 4}","[6, 40, 41, 42]",64402411421,Zr2Nb1Mo1C4
HfZr2UC4,mp-1224284,0.0,7.21529873,0.011149211250002011,"{72: 1, 40: 2, 92: 1, 6: 4}","[6, 40, 72, 92]",64402721921,Hf1Zr2U1C4
Zr3NbC4,mp-1215480,0.0,6.07965965,0.005381668750001012,"{40: 3, 41: 1, 6: 4}","[6, 40, 41]",64403411,Zr3Nb1C4
NbMo3C4,mp-1220378,0.0,8.99127875,0.25784595406250155,"{41: 1, 42: 3, 6: 4}","[6, 41, 42]",64411423,Nb1Mo3C4
HfU(NbC2)2,mp-1224243,0.0,8.2172924,0.04128462000000255,"{72: 1, 92: 1, 41: 2, 6: 4}","[6, 41, 72, 92]",64412721921,Hf1U1Nb2C4
La10C4I15,mp-567775,0.0,5.85896706,0.0,"{57: 10, 6: 4, 53: 15}","[6, 53, 57]",6453155710,La10C4I15
CsEr10(C2I9)2,mp-1196026,0.2905000000000002,3.60117355,0.0,"{55: 1, 68: 10, 6: 4, 53: 18}","[6, 53, 55, 68]",6453185516810,Cs1Er10C4I18
LaCeC4,mp-1222943,0.0,7.120561,0.051052422708332656,"{57: 1, 58: 1, 6: 4}","[6, 57, 58]",64571581,La1Ce1C4
LaPrC4,mp-1222761,0.0,5.78129534,0.010178530624999738,"{57: 1, 59: 1, 6: 4}","[6, 57, 59]",64571591,La1Pr1C4
LaNdC4,mp-1222817,0.0,5.84787726,0.011182589374999274,"{57: 1, 60: 1, 6: 4}","[6, 57, 60]",64571601,La1Nd1C4
LaGdC4,mp-1222833,0.0,5.71629219,0.03469207312500089,"{57: 1, 64: 1, 6: 4}","[6, 57, 64]",64571641,La1Gd1C4
LaTbC4,mp-1222729,0.0,6.13419685,0.027898524687499204,"{57: 1, 65: 1, 6: 4}","[6, 57, 65]",64571651,La1Tb1C4
CeNdC4,mp-1226536,0.0,5.71612589,0.045820848749999143,"{58: 1, 60: 1, 6: 4}","[6, 58, 60]",64581601,Ce1Nd1C4
CeDyC4,mp-1226616,0.0,5.97613851,0.06447582931944673,"{58: 1, 66: 1, 6: 4}","[6, 58, 66]",64581661,Ce1Dy1C4
CeUC4,mp-1226832,0.0,8.06046692,0.03436614104166935,"{58: 1, 92: 1, 6: 4}","[6, 58, 92]",64581921,Ce1U1C4
PrDyC4,mp-1219966,0.0,4.46951468,0.06598854556944733,"{59: 1, 66: 1, 6: 4}","[6, 59, 66]",64591661,Pr1Dy1C4
NdDyC4,mp-1220175,0.0,4.72679052,0.038903427652758005,"{60: 1, 66: 1, 6: 4}","[6, 60, 66]",64601661,Nd1Dy1C4
SmDyC4,mp-1219074,0.0,4.73376158,0.039307812236113016,"{62: 1, 66: 1, 6: 4}","[6, 62, 66]",64621661,Sm1Dy1C4
GdDyC4,mp-1224575,0.0,4.62431994,0.03746792640277974,"{64: 1, 66: 1, 6: 4}","[6, 64, 66]",64641661,Gd1Dy1C4
GdUC4,mp-1224421,0.0,7.15139543,0.08451395812500273,"{64: 1, 92: 1, 6: 4}","[6, 64, 92]",64641921,Gd1U1C4
TbDyC4,mp-1217568,0.0,4.89457145,0.04982926129861376,"{65: 1, 66: 1, 6: 4}","[6, 65, 66]",64651661,Tb1Dy1C4
DyHoC4,mp-1225512,0.0,4.96390808,0.06640532619443729,"{66: 1, 67: 1, 6: 4}","[6, 66, 67]",64661671,Dy1Ho1C4
DyErC4,mp-1225588,0.0,4.9312221,0.06617015463194686,"{66: 1, 68: 1, 6: 4}","[6, 66, 68]",64661681,Dy1Er1C4
Dy3C4,mp-1213387,0.0,4.43242733,0.0,"{66: 3, 6: 4}","[6, 66]",64663,Dy3C4
Ho3C4,mp-1202754,0.0,4.33635642,0.0,"{67: 3, 6: 4}","[6, 67]",64673,Ho3C4
Er3C4,mp-1203719,0.0,4.36326579,0.0,"{68: 3, 6: 4}","[6, 68]",64683,Er3C4
Tm3C4,mp-1205180,0.0,4.34193669,0.0,"{69: 3, 6: 4}","[6, 69]",64693,Tm3C4
CdC4S4(N5O3)2,mp-1214110,0.0,-1.53711977,1.56827600082143,"{48: 1, 6: 4, 16: 4, 7: 10, 8: 6}","[6, 7, 8, 16, 48]",6471086164481,Cd1C4S4N10O6
AlC4NCl2,mp-1229258,0.6016000000000001,-2.54644659,0.912226476041667,"{13: 1, 6: 4, 7: 1, 17: 2}","[6, 7, 13, 17]",6471131172,Al1C4N1Cl2
GaSiC4N,mp-1182730,0.6853,0.75222541,1.0410263413656011,"{31: 1, 14: 1, 6: 4, 7: 1}","[6, 7, 14, 31]",6471141311,Ga1Si1C4N1
TlC4S4N,mp-1179159,0.0,0.53774495,0.5313741241517826,"{81: 1, 6: 4, 16: 4, 7: 1}","[6, 7, 16, 81]",6471164811,Tl1C4S4N1
C4NCl2,mp-1214375,3.0004,-1.27248375,0.1914758029315493,"{6: 4, 7: 1, 17: 2}","[6, 7, 17]",6471172,C4N1Cl2
AgC4NCl2,mp-1189890,0.0,-2.0316267,1.9231154413541667,"{47: 1, 6: 4, 7: 1, 17: 2}","[6, 7, 17, 47]",6471172471,Ag1C4N1Cl2
C4NCl3,mp-1214251,2.1618,2.62198725,0.07118022986979167,"{6: 4, 7: 1, 17: 3}","[6, 7, 17]",6471173,C4N1Cl3
GeC4NCl3,mp-1197524,0.45630000000000004,-1.23741767,1.14389561425926,"{32: 1, 6: 4, 7: 1, 17: 3}","[6, 7, 17, 32]",6471173321,Ge1C4N1Cl3
HgC4NCl3,mp-1196399,0.6603,-1.36487526,0.7814213392592597,"{80: 1, 6: 4, 7: 1, 17: 3}","[6, 7, 17, 80]",6471173801,Hg1C4N1Cl3
Tc3C4NCl6,mp-1201503,0.0,-0.60649233,0.9854946691666662,"{43: 3, 6: 4, 7: 1, 17: 6}","[6, 7, 17, 43]",6471176433,Tc3C4N1Cl6
MnC4Br3N,mp-1180510,0.08370000000000033,-2.02028198,0.8779265388020843,"{25: 1, 6: 4, 35: 3, 7: 1}","[6, 7, 25, 35]",6471251353,Mn1C4Br3N1
Lu3C4,mp-1203767,0.0,4.35328208,0.0,"{71: 3, 6: 4}","[6, 71]",64713,Lu3C4
HgAsC4Se3N,mp-727374,0.2501000000000001,-0.84672847,1.0125701710078125,"{80: 1, 33: 1, 6: 4, 34: 3, 7: 1}","[6, 7, 33, 34, 80]",6471331343801,Hg1As1C4Se3N1
Ag2C4Br3N,mp-725087,0.0,-1.42280559,1.374697477499999,"{47: 2, 6: 4, 35: 3, 7: 1}","[6, 7, 35, 47]",6471353472,Ag2C4Br3N1
HgC4Br3N,mp-1181795,0.7057999999999998,-2.02519105,0.7001447973206014,"{80: 1, 6: 4, 35: 3, 7: 1}","[6, 7, 35, 80]",6471353801,Hg1C4Br3N1
Ag2C4I3N,mp-1199990,1.0895,0.35239945,1.0895162144999997,"{47: 2, 6: 4, 53: 3, 7: 1}","[6, 7, 47, 53]",6471472533,Ag2C4I3N1
PtC4I4N,mp-1197815,0.0494,0.4081781,1.057105033343749,"{78: 1, 6: 4, 53: 4, 7: 1}","[6, 7, 53, 78]",6471534781,Pt1C4I4N1
Zn2C4N16O,mp-729187,0.0,-2.4390681,0.6448009394836953,"{30: 2, 6: 4, 7: 16, 8: 1}","[6, 7, 8, 30]",6471681302,Zn2C4N16O1
TiC4NO10,mp-1208388,0.0,-0.65642899,1.1089875365104227,"{22: 1, 6: 4, 7: 1, 8: 10}","[6, 7, 8, 22]",6471810221,Ti1C4N1O10
LaC4NO11,mp-1181174,0.37170000000000003,0.56586169,0.6355493250833311,"{57: 1, 6: 4, 7: 1, 8: 11}","[6, 7, 8, 57]",6471811571,La1C4N1O11
ZnP3C4NO12,mp-1178695,0.0,-2.7147751,1.2902645095535688,"{30: 1, 15: 3, 6: 4, 7: 1, 8: 12}","[6, 7, 8, 15, 30]",6471812153301,Zn1P3C4N1O12
Al3P3C4NO13,mp-1229312,0.0,0.3254807,0.4074737738020824,"{13: 3, 15: 3, 6: 4, 7: 1, 8: 13}","[6, 7, 8, 13, 15]",6471813133153,Al3P3C4N1O13
Ge6C4NO13,mp-1201671,0.0,-1.19417622,0.8167589688020831,"{32: 6, 6: 4, 7: 1, 8: 13}","[6, 7, 8, 32]",6471813326,Ge6C4N1O13
NaMo4C4NO14,mp-729173,0.0,-1.05821327,1.2250942907118088,"{11: 1, 42: 4, 6: 4, 7: 1, 8: 14}","[6, 7, 8, 11, 42]",6471814111424,Na1Mo4C4N1O14
U2C4NO15,mp-1204041,0.4987999999999999,-1.15804934,0.7023993457954631,"{92: 2, 6: 4, 7: 1, 8: 15}","[6, 7, 8, 92]",6471815922,U2C4N1O15
Si9C4NO18,mp-727207,1.8774000000000002,-0.58043744,0.3711019556250008,"{14: 9, 6: 4, 7: 1, 8: 18}","[6, 7, 8, 14]",6471818149,Si9C4N1O18
RhC4N(Cl2O)2,mp-1191088,0.0,-0.7191351,1.4186373636111123,"{45: 1, 6: 4, 7: 1, 17: 4, 8: 2}","[6, 7, 8, 17, 45]",647182174451,Rh1C4N1Cl4O2
TcC4NO4,mp-1237438,0.41169999999999995,0.05996948,0.9793664501666681,"{43: 1, 6: 4, 7: 1, 8: 4}","[6, 7, 8, 43]",647184431,Tc1C4N1O4
MnC4NO5,mp-616555,2.3941,-0.90415215,0.7025294768181753,"{25: 1, 6: 4, 7: 1, 8: 5}","[6, 7, 8, 25]",647185251,Mn1C4N1O5
V3C4NO7,mp-1197450,1.0271,-0.29121911,1.0382333802499977,"{23: 3, 6: 4, 7: 1, 8: 7}","[6, 7, 8, 23]",647187233,V3C4N1O7
Mo2C4NO7,mp-1180910,0.23569999999999997,0.52956534,0.6604045440178563,"{42: 2, 6: 4, 7: 1, 8: 7}","[6, 7, 8, 42]",647187422,Mo2C4N1O7
ZnP2C4NO8,mp-1178650,0.0,-2.20404743,1.2279320109375007,"{30: 1, 15: 2, 6: 4, 7: 1, 8: 8}","[6, 7, 8, 15, 30]",647188152301,Zn1P2C4N1O8
UC4SNClO8,mp-1198531,0.5901999999999998,-1.84120616,1.097244202849705,"{92: 1, 6: 4, 16: 1, 7: 1, 17: 1, 8: 8}","[6, 7, 8, 16, 17, 92]",647188161171921,U1C4S1N1Cl1O8
TiSi2C4(NCl2)2,mp-1179271,0.4600000000000002,-2.24724233,1.258310162056004,"{22: 1, 14: 2, 6: 4, 7: 2, 17: 4}","[6, 7, 14, 17, 22]",6472142174221,Ti1Si2C4N2Cl4
HfU(TaC2)2,mp-1224267,0.0,8.61766113,0.0440233012500002,"{72: 1, 92: 1, 73: 2, 6: 4}","[6, 72, 73, 92]",64721732921,Hf1U1Ta2C4
HfTa3C4,mp-1224369,0.0,6.68233001,0.41225643750000174,"{72: 1, 73: 3, 6: 4}","[6, 72, 73]",64721733,Hf1Ta3C4
CoC4(NCl2)2,mp-1203919,0.11129999999999995,-2.96952458,0.6978486790151495,"{27: 1, 6: 4, 7: 2, 17: 4}","[6, 7, 17, 27]",6472174271,Co1C4N2Cl4
ZnC4(NCl2)2,mp-727060,0.36460000000000004,-1.57382717,0.9829453190151503,"{30: 1, 6: 4, 7: 2, 17: 4}","[6, 7, 17, 30]",6472174301,Zn1C4N2Cl4
PtC4(NCl3)2,mp-729934,0.7987,-0.0319347,0.8981598309054517,"{78: 1, 6: 4, 7: 2, 17: 6}","[6, 7, 17, 78]",6472176781,Pt1C4N2Cl6
PdC4(Br2N)2,mp-1192471,0.23859999999999992,-0.90765317,1.0306058075852267,"{46: 1, 6: 4, 35: 4, 7: 2}","[6, 7, 35, 46]",6472354461,Pd1C4Br4N2
UC4S2(NO5)2,mp-1197465,1.7968000000000002,-0.36074537,1.4327471882205556,"{92: 1, 6: 4, 16: 2, 7: 2, 8: 10}","[6, 7, 8, 16, 92]",6472810162921,U1C4S2N2O10
VC4N2O11,mp-1202513,0.1339999999999999,-1.6481172,1.0789205934722235,"{23: 1, 6: 4, 7: 2, 8: 11}","[6, 7, 8, 23]",6472811231,V1C4N2O11
ZnC4S4(NO6)2,mp-1178764,0.23289999999999988,-1.13093842,1.1214130074999966,"{30: 1, 6: 4, 16: 4, 7: 2, 8: 12}","[6, 7, 8, 16, 30]",6472812164301,Zn1C4S4N2O12
MgC4S4N2(O4F3)4,mp-1180975,0.0,-1.82331088,1.0558745531410292,"{12: 1, 6: 4, 16: 4, 7: 2, 8: 16, 9: 12}","[6, 7, 8, 9, 12, 16]",6472816912121164,Mg1C4S4N2O16F12
ZnC4(NO3)2,mp-729632,3.6077,-2.10407558,0.11730562920672849,"{30: 1, 6: 4, 7: 2, 8: 6}","[6, 7, 8, 30]",647286301,Zn1C4N2O6
SrC4S4N2(O2F3)4,mp-555299,6.240200000000001,-1.43961937,0.2505189497822613,"{38: 1, 6: 4, 16: 4, 7: 2, 8: 8, 9: 12}","[6, 7, 8, 9, 16, 38]",647288912164381,Sr1C4S4N2O8F12
AsC4N2F17,mp-1198106,0.08219999999999983,-3.11117426,0.29994104411458355,"{33: 1, 6: 4, 7: 2, 9: 17}","[6, 7, 9, 33]",6472917331,As1C4N2F17
ZnAs2C4(NF9)2,mp-1207554,5.1228,1.16344812,0.13627636662037457,"{30: 1, 33: 2, 6: 4, 7: 2, 9: 18}","[6, 7, 9, 30, 33]",6472918301332,Zn1As2C4N2F18
C4N3,mp-1214748,2.8879,-3.14156185,0.35149508205356916,"{6: 4, 7: 3}","[6, 7]",6473,C4N3
NaC4N3,mp-574822,3.5619,-0.78139466,0.25493382687498567,"{11: 1, 6: 4, 7: 3}","[6, 7, 11]",6473111,Na1C4N3
KC4N3,mp-574029,3.7462999999999997,-1.18483884,0.2571553073958217,"{19: 1, 6: 4, 7: 3}","[6, 7, 19]",6473191,K1C4N3
AgC4N3,mp-29672,3.4634,-0.77460051,0.3514824041666653,"{47: 1, 6: 4, 7: 3}","[6, 7, 47]",6473471,Ag1C4N3
NbC4N3O13,mp-1200027,0.007400000000000073,-2.62237953,1.656092016913262,"{41: 1, 6: 4, 7: 3, 8: 13}","[6, 7, 8, 41]",6473813411,Nb1C4N3O13
RbC4N3O4,mp-1209688,1.6286,-1.0566441,0.3160105303125027,"{37: 1, 6: 4, 7: 3, 8: 4}","[6, 7, 8, 37]",647384371,Rb1C4N3O4
SnC4N3O7,mp-1201971,0.26839999999999997,-0.43681725,0.6755438675833343,"{50: 1, 6: 4, 7: 3, 8: 7}","[6, 7, 8, 50]",647387501,Sn1C4N3O7
VP2C4N3(ClF6)2,mp-560484,2.9932,-1.92210832,0.48013400530480776,"{23: 1, 15: 2, 6: 4, 7: 3, 17: 2, 9: 12}","[6, 7, 9, 15, 17, 23]",6473912152172231,V1P2C4N3Cl2F12
SiC4(SN)4,mp-680462,3.5356,-0.39905451,0.11339966947802438,"{14: 1, 6: 4, 16: 4, 7: 4}","[6, 7, 14, 16]",6474141164,Si1C4S4N4
K2PdC4(SN)4,mp-650023,1.585,-0.24414664,0.1254801042037057,"{19: 2, 46: 1, 6: 4, 16: 4, 7: 4}","[6, 7, 16, 19, 46]",6474164192461,K2Pd1C4S4N4
K2PtC4(SN)4,mp-616240,0.0,-0.85016942,0.37745324587036677,"{19: 2, 78: 1, 6: 4, 16: 4, 7: 4}","[6, 7, 16, 19, 78]",6474164192781,K2Pt1C4S4N4
K3AgC4(SN)4,mp-557393,3.5704,-0.49019124,0.04371050737846982,"{19: 3, 47: 1, 6: 4, 16: 4, 7: 4}","[6, 7, 16, 19, 47]",6474164193471,K3Ag1C4S4N4
MnHgC4(SN)4,mp-541914,1.658,0.14950722,0.15886537269132628,"{25: 1, 80: 1, 6: 4, 16: 4, 7: 4}","[6, 7, 16, 25, 80]",6474164251801,Mn1Hg1C4S4N4
CoHgC4(SN)4,mp-540934,0.7991999999999999,0.1970357,0.20404521233418027,"{27: 1, 80: 1, 6: 4, 16: 4, 7: 4}","[6, 7, 16, 27, 80]",6474164271801,Co1Hg1C4S4N4
CsZnAgC4(SN)4,mp-630391,2.8679,0.11124089,0.09049566170833145,"{55: 1, 30: 1, 47: 1, 6: 4, 16: 4, 7: 4}","[6, 7, 16, 30, 47, 55]",6474164301471551,Cs1Zn1Ag1C4S4N4
ZnAg2C4(SN)4,mp-559335,3.0031,-0.32914915,0.12830863902380774,"{30: 1, 47: 2, 6: 4, 16: 4, 7: 4}","[6, 7, 16, 30, 47]",6474164301472,Zn1Ag2C4S4N4
ZnCdC4(SN)4,mp-541931,3.4148,-0.86777635,0.1445099521683657,"{30: 1, 48: 1, 6: 4, 16: 4, 7: 4}","[6, 7, 16, 30, 48]",6474164301481,Zn1Cd1C4S4N4
ZnHgC4(SN)4,mp-541863,2.4929,-0.71387589,0.14261148252550893,"{30: 1, 80: 1, 6: 4, 16: 4, 7: 4}","[6, 7, 16, 30, 80]",6474164301801,Zn1Hg1C4S4N4
RbBiC4(SN)4,mp-647987,2.5646,0.64887142,0.15841470654973477,"{37: 1, 83: 1, 6: 4, 16: 4, 7: 4}","[6, 7, 16, 37, 83]",6474164371831,Rb1Bi1C4S4N4
CdHgC4(SN)4,mp-556367,2.4633,-0.77402384,0.17645849859693818,"{48: 1, 80: 1, 6: 4, 16: 4, 7: 4}","[6, 7, 16, 48, 80]",6474164481801,Cd1Hg1C4S4N4
Cs4Re6C4S9N4,mp-683929,1.4641000000000002,1.89888528,0.0,"{55: 4, 75: 6, 6: 4, 16: 9, 7: 4}","[6, 7, 16, 55, 75]",6474169554756,Cs4Re6C4S9N4
K2PtC4(N2Cl)2,mp-1193616,2.5585,-1.80347865,0.2576836400000042,"{19: 2, 78: 1, 6: 4, 7: 4, 17: 2}","[6, 7, 17, 19, 78]",6474172192781,K2Pt1C4N4Cl2
Rb2PtC4(N2Cl)2,mp-1193546,2.6717,-2.20199894,0.2514998965384656,"{37: 2, 78: 1, 6: 4, 7: 4, 17: 2}","[6, 7, 17, 37, 78]",6474172372781,Rb2Pt1C4N4Cl2
KTl(CN)4,mp-12334,5.5212,-3.47706774,0.46957762429166383,"{19: 1, 81: 1, 6: 4, 7: 4}","[6, 7, 19, 81]",6474191811,K1Tl1C4N4
K2Zn(CN)4,mp-6424,6.050800000000001,-3.70531975,0.1015546049999978,"{19: 2, 30: 1, 6: 4, 7: 4}","[6, 7, 19, 30]",6474192301,K2Zn1C4N4
K2PtC4(BrN2)2,mp-568299,1.9428999999999998,-1.36454621,0.2337263519230781,"{19: 2, 78: 1, 6: 4, 35: 2, 7: 4}","[6, 7, 19, 35, 78]",6474192352781,K2Pt1C4Br2N4
K2Pd(CN)4,mp-11893,3.7889,-2.20529836,0.09801822662878479,"{19: 2, 46: 1, 6: 4, 7: 4}","[6, 7, 19, 46]",6474192461,K2Pd1C4N4
K2Cd(CN)4,mp-20623,5.994400000000001,-3.71254637,0.1637760898106011,"{19: 2, 48: 1, 6: 4, 7: 4}","[6, 7, 19, 48]",6474192481,K2Cd1C4N4
K2PtC4(IN2)2,mp-570105,1.3594,-0.07264524,0.2046411545238076,"{19: 2, 78: 1, 6: 4, 53: 2, 7: 4}","[6, 7, 19, 53, 78]",6474192532781,K2Pt1C4I2N4
K2Pt(CN)4,mp-637196,2.1357,-0.82138931,0.030299840719695048,"{19: 2, 78: 1, 6: 4, 7: 4}","[6, 7, 19, 78]",6474192781,K2Pt1C4N4
K2Hg(CN)4,mp-6051,5.8512,-3.26836209,0.2575838059469664,"{19: 2, 80: 1, 6: 4, 7: 4}","[6, 7, 19, 80]",6474192801,K2Hg1C4N4
MnHgC4(SeN)4,mp-543031,1.7364000000000002,-0.29013939,0.1779343903683035,"{25: 1, 80: 1, 6: 4, 34: 4, 7: 4}","[6, 7, 25, 34, 80]",6474251344801,Mn1Hg1C4Se4N4
CoHgC4(SeN)4,mp-12422,0.7723,-0.34880594,0.26103230411830225,"{27: 1, 80: 1, 6: 4, 34: 4, 7: 4}","[6, 7, 27, 34, 80]",6474271344801,Co1Hg1C4Se4N4
CoAu2(CN)4,mp-570037,0.9239,-0.92074858,0.2538016701515158,"{27: 1, 79: 2, 6: 4, 7: 4}","[6, 7, 27, 79]",6474271792,Co1Au2C4N4
ZnCdC4(SeN)4,mp-542942,3.0604999999999998,-0.83760822,0.19190314500000039,"{30: 1, 48: 1, 6: 4, 34: 4, 7: 4}","[6, 7, 30, 34, 48]",6474301344481,Zn1Cd1C4Se4N4
ZnHgC4(SeN)4,mp-1104758,2.3193,1.61274381,0.1781579128683024,"{30: 1, 80: 1, 6: 4, 34: 4, 7: 4}","[6, 7, 30, 34, 80]",6474301344801,Zn1Hg1C4Se4N4
ZnPt(CN)4,mp-1189491,3.9641,-2.49311593,0.09227718050000178,"{30: 1, 78: 1, 6: 4, 7: 4}","[6, 7, 30, 78]",6474301781,Zn1Pt1C4N4
ZnAu2(CN)4,mp-542891,2.7763,-1.22717474,0.19911921628787965,"{30: 1, 79: 2, 6: 4, 7: 4}","[6, 7, 30, 79]",6474301792,Zn1Au2C4N4
Tl2Zn(CN)4,mp-652856,4.7266,-1.67897603,0.22784799801136213,"{81: 2, 30: 1, 6: 4, 7: 4}","[6, 7, 30, 81]",6474301812,Tl2Zn1C4N4
CdHgC4(SeN)4,mp-542943,2.2447999999999997,-0.77513751,0.23503675965401793,"{48: 1, 80: 1, 6: 4, 34: 4, 7: 4}","[6, 7, 34, 48, 80]",6474344481801,Cd1Hg1C4Se4N4
Rb2PtC4(BrN2)2,mp-571526,2.0048,-1.55115835,0.2272697973076978,"{37: 2, 78: 1, 6: 4, 35: 2, 7: 4}","[6, 7, 35, 37, 78]",6474352372781,Rb2Pt1C4Br2N4
InC4Br7N4,mp-1196807,0.0,-2.5841736,1.184252152460937,"{49: 1, 6: 4, 35: 7, 7: 4}","[6, 7, 35, 49]",6474357491,In1C4Br7N4
Rb2PtC4(IN2)2,mp-1194184,1.419,-0.3747187,0.20040262005494291,"{37: 2, 78: 1, 6: 4, 53: 2, 7: 4}","[6, 7, 37, 53, 78]",6474372532781,Rb2Pt1C4I2N4
Rb2Pt(CN)4,mp-1192027,2.7987,1.12564351,0.016393700113636278,"{37: 2, 78: 1, 6: 4, 7: 4}","[6, 7, 37, 78]",6474372781,Rb2Pt1C4N4
Rb2Hg(CN)4,mp-619486,5.747999999999999,-3.15114458,0.24826151732265878,"{37: 2, 80: 1, 6: 4, 7: 4}","[6, 7, 37, 80]",6474372801,Rb2Hg1C4N4
Tl2Pd(CN)4,mp-1192067,3.1498999999999997,2.14286099,0.16619343268356523,"{81: 2, 46: 1, 6: 4, 7: 4}","[6, 7, 46, 81]",6474461812,Tl2Pd1C4N4
U(WC)4,mp-672676,0.0,9.25950118,0.06534407944445064,"{92: 1, 74: 4, 6: 4}","[6, 74, 92]",64744921,U1W4C4
Cs2PtC4(IN2)2,mp-1193434,1.4987,-0.32550954,0.19103576153846813,"{55: 2, 78: 1, 6: 4, 53: 2, 7: 4}","[6, 7, 53, 55, 78]",6474532552781,Cs2Pt1C4I2N4
Tl2Pt(CN)4,mp-621092,2.5679,0.13458041,0.06779305121212165,"{81: 2, 78: 1, 6: 4, 7: 4}","[6, 7, 78, 81]",6474781812,Tl2Pt1C4N4
Rb2PdC4N4O,mp-1203396,0.0,-2.02707562,0.5490482593749979,"{37: 2, 46: 1, 6: 4, 7: 4, 8: 1}","[6, 7, 8, 37, 46]",647481372461,Rb2Pd1C4N4O1
K3WC4N4OF,mp-651173,3.2134,-0.99296681,0.24915089927331202,"{19: 3, 74: 1, 6: 4, 7: 4, 8: 1, 9: 1}","[6, 7, 8, 9, 19, 74]",64748191193741,K3W1C4N4O1F1
K3NaMoC4(N2O)2,mp-1212132,2.58,1.46216252,0.34703876011574497,"{19: 3, 11: 1, 42: 1, 6: 4, 7: 4, 8: 2}","[6, 7, 8, 11, 19, 42]",647482111193421,K3Na1Mo1C4N4O2
K3TcC4(N2O)2,mp-1103993,2.1296,0.6723008,0.17223835249999553,"{19: 3, 43: 1, 6: 4, 7: 4, 8: 2}","[6, 7, 8, 19, 43]",647482193431,K3Tc1C4N4O2
K3ReC4(N2O)2,mp-540813,2.3920000000000003,-0.95303246,0.10488735693948037,"{19: 3, 75: 1, 6: 4, 7: 4, 8: 2}","[6, 7, 8, 19, 75]",647482193751,K3Re1C4N4O2
K4MoC4(N2O)2,mp-1212303,3.2112,2.49753489,0.20378680478240785,"{19: 4, 42: 1, 6: 4, 7: 4, 8: 2}","[6, 7, 8, 19, 42]",647482194421,K4Mo1C4N4O2
MnAu2C4(N2O)2,mp-1180441,0.0,-1.03578947,0.8018567860576917,"{25: 1, 79: 2, 6: 4, 7: 4, 8: 2}","[6, 7, 8, 25, 79]",647482251792,Mn1Au2C4N4O2
SrAg2C4(N2O)2,mp-1204116,0.0,-2.2841742,1.0239371775641022,"{38: 1, 47: 2, 6: 4, 7: 4, 8: 2}","[6, 7, 8, 38, 47]",647482381472,Sr1Ag2C4N4O2
AuC4(N2O)2,mp-726128,0.0,-3.36899226,1.1258913870454537,"{79: 1, 6: 4, 7: 4, 8: 2}","[6, 7, 8, 79]",647482791,Au1C4N4O2