formula,material_id,band_gap,efermi,energy_above_hull,comp_atoms,sorted_keys_comp_atoms,comp_number,new_formula
MnC6S2NO5F6,mp-616160,3.0452,-0.58043388,0.5289117812670083,"{25: 1, 6: 6, 16: 2, 7: 1, 8: 5, 9: 6}","[6, 7, 8, 9, 16, 25]",66718596162251,Mn1C6S2N1O5F6
AsC6NF4,mp-732021,0.6734,-2.35336815,1.2557523328645814,"{33: 1, 6: 6, 7: 1, 9: 4}","[6, 7, 9, 33]",667194331,As1C6N1F4
TeP2C6(NCl)2,mp-1179291,0.008899999999999963,0.426541,0.9714583340164831,"{52: 1, 15: 2, 6: 6, 7: 2, 17: 2}","[6, 7, 15, 17, 52]",6672152172521,Te1P2C6N2Cl2
HgC6(S2N)2,mp-1193220,0.7262,-1.16754548,1.1518229048489017,"{80: 1, 6: 6, 16: 4, 7: 2}","[6, 7, 16, 80]",6672164801,Hg1C6S4N2
InC6(NCl3)2,mp-865009,0.0,-2.15676959,0.7550821268402768,"{49: 1, 6: 6, 7: 2, 17: 6}","[6, 7, 17, 49]",6672176491,In1C6N2Cl6
TeC6(I3N)2,mp-1179109,0.6927,0.96229067,1.605444066333333,"{52: 1, 6: 6, 53: 6, 7: 2}","[6, 7, 52, 53]",6672521536,Te1C6I6N2
ZnP3C6(NO6)2,mp-1204953,0.07920000000000016,-2.0742244,1.4055389283593929,"{30: 1, 15: 3, 6: 6, 7: 2, 8: 12}","[6, 7, 8, 15, 30]",6672812153301,Zn1P3C6N2O12
Sn2C6N2O17,mp-1179660,0.022399999999999975,-0.60112413,1.0693256483333355,"{50: 2, 6: 6, 7: 2, 8: 17}","[6, 7, 8, 50]",6672817502,Sn2C6N2O17
Sn5C6S9(NO)2,mp-729075,1.4193000000000002,0.71556057,0.500828822343748,"{50: 5, 6: 6, 16: 9, 7: 2, 8: 2}","[6, 7, 8, 16, 50]",667282169505,Sn5C6S9N2O2
Ti7P12C6(NO24)2,mp-1217444,0.0,-0.26804249,0.4422649351111083,"{22: 7, 15: 12, 6: 6, 7: 2, 8: 48}","[6, 7, 8, 15, 22]",66728481512227,Ti7P12C6N2O48
Sb2C6(Br3N)3,mp-1220257,0.7109,-0.21291899,0.7571967753828117,"{51: 2, 6: 6, 35: 9, 7: 3}","[6, 7, 35, 51]",6673359512,Sb2C6Br9N3
PuU3(W2C3)2,mp-1219843,0.0,10.04122861,0.2766049243750004,"{94: 1, 92: 3, 74: 4, 6: 6}","[6, 74, 92, 94]",66744923941,Pu1U3W4C6
HgC6(IN2)2,mp-1199064,0.9761,-1.35524833,1.6045040536538444,"{80: 1, 6: 6, 53: 2, 7: 4}","[6, 7, 53, 80]",6674532801,Hg1C6I2N4
C6I3N4,mp-1203084,0.0,0.7539457,1.5918586007692284,"{6: 6, 53: 3, 7: 4}","[6, 7, 53]",6674533,C6I3N4
W(C3N2)2,mp-1192781,0.0,-0.68105105,1.3869639350000007,"{74: 1, 6: 6, 7: 4}","[6, 7, 74]",6674741,W1C6N4
AgSbC6N4(OF3)2,mp-640564,1.4559,-1.39532691,0.2827783476979171,"{47: 1, 51: 1, 6: 6, 7: 4, 8: 2, 9: 6}","[6, 7, 8, 9, 47, 51]",66748296471511,Ag1Sb1C6N4O2F6
K2NaCo(CN)6,mp-567824,4.3374999999999995,-1.92147784,0.08039009621094095,"{19: 2, 11: 1, 27: 1, 6: 6, 7: 6}","[6, 7, 11, 19, 27]",6676111192271,K2Na1Co1C6N6
K2NaAg3(CN)6,mp-6855,2.7260999999999997,-1.69237165,0.20894799579861267,"{19: 2, 11: 1, 47: 3, 6: 6, 7: 6}","[6, 7, 11, 19, 47]",6676111192473,K2Na1Ag3C6N6
NaMnCr(CN)6,mp-41605,0.0,0.09917486,0.30551488966666795,"{11: 1, 25: 1, 24: 1, 6: 6, 7: 6}","[6, 7, 11, 24, 25]",6676111241251,Na1Mn1Cr1C6N6
Rb2NaCr(CN)6,mp-17509,1.8634000000000002,-1.51938062,0.18553780718750357,"{37: 2, 11: 1, 24: 1, 6: 6, 7: 6}","[6, 7, 11, 24, 37]",6676111241372,Rb2Na1Cr1C6N6
Cs2NaCr(CN)6,mp-17165,1.8425,-1.25431614,0.11547856749999585,"{55: 2, 11: 1, 24: 1, 6: 6, 7: 6}","[6, 7, 11, 24, 55]",6676111241552,Cs2Na1Cr1C6N6
Rb2NaMn(CN)6,mp-505659,1.9485,-0.53437853,0.14292227656250045,"{37: 2, 11: 1, 25: 1, 6: 6, 7: 6}","[6, 7, 11, 25, 37]",6676111251372,Rb2Na1Mn1C6N6
Cs2NaMn(CN)6,mp-20915,1.9383,-0.21448956,0.07348933656249645,"{55: 2, 11: 1, 25: 1, 6: 6, 7: 6}","[6, 7, 11, 25, 55]",6676111251552,Cs2Na1Mn1C6N6
Rb2NaCo(CN)6,mp-6896,4.3383,-1.89460776,0.06677833855469117,"{37: 2, 11: 1, 27: 1, 6: 6, 7: 6}","[6, 7, 11, 27, 37]",6676111271372,Rb2Na1Co1C6N6
Cs2NaCo(CN)6,mp-669384,4.222799999999999,-1.47276178,0.0,"{55: 2, 11: 1, 27: 1, 6: 6, 7: 6}","[6, 7, 11, 27, 55]",6676111271552,Cs2Na1Co1C6N6
Cs2NaAu3(CN)6,mp-571248,2.5885,-1.24424417,0.05798746562499524,"{55: 2, 11: 1, 79: 3, 6: 6, 7: 6}","[6, 7, 11, 55, 79]",6676111552793,Cs2Na1Au3C6N6
Na4MgC6(SN)6,mp-555524,4.1635,-0.38403931,0.029589542717388007,"{11: 4, 12: 1, 6: 6, 16: 6, 7: 6}","[6, 7, 11, 12, 16]",6676114121166,Na4Mg1C6S6N6
C6S3(N3Cl)2,mp-722472,0.49970000000000003,-0.70227203,0.5831707560282444,"{6: 6, 16: 3, 7: 6, 17: 2}","[6, 7, 16, 17]",6676163172,C6S3N6Cl2
Cs3MoC6(SN2)3,mp-677061,0.0,1.02884342,0.6029706918421089,"{55: 3, 42: 1, 6: 6, 16: 3, 7: 6}","[6, 7, 16, 42, 55]",6676163421553,Cs3Mo1C6S3N6
CdHg3C6S6(N3Cl)2,mp-680331,0.0,0.98263311,0.1876927872098202,"{48: 1, 80: 3, 6: 6, 16: 6, 7: 6, 17: 2}","[6, 7, 16, 17, 48, 80]",6676166172481803,Cd1Hg3C6S6N6Cl2
MnHg2C6(SN)6,mp-645044,0.0012000000000000899,0.99235875,0.2534536212670053,"{25: 1, 80: 2, 6: 6, 16: 6, 7: 6}","[6, 7, 16, 25, 80]",6676166251802,Mn1Hg2C6S6N6
CdHg4C6S6(Br2N3)2,mp-557580,1.9085,-1.20719704,0.18651030258156975,"{48: 1, 80: 4, 6: 6, 16: 6, 35: 4, 7: 6}","[6, 7, 16, 35, 48, 80]",6676166354481804,Cd1Hg4C6S6Br4N6
K4Re6TeC6S7N6,mp-1226951,2.1411,1.15145541,0.010277601908523337,"{19: 4, 75: 6, 52: 1, 6: 6, 16: 7, 7: 6}","[6, 7, 16, 19, 52, 75]",6676167194521756,K4Re6Te1C6S7N6
Cs3KRe6C6(S4N3)2,mp-555611,2.1868000000000003,0.66308603,0.0033157526148990257,"{55: 3, 19: 1, 75: 6, 6: 6, 16: 8, 7: 6}","[6, 7, 16, 19, 55, 75]",6676168191553756,Cs3K1Re6C6S8N6
Cs2KCr(CN)6,mp-1201008,0.3226,-0.91581152,0.12183845463541321,"{55: 2, 19: 1, 24: 1, 6: 6, 7: 6}","[6, 7, 19, 24, 55]",6676191241552,Cs2K1Cr1C6N6
KMnAg3(CN)6,mp-571384,1.544,-0.42351877,0.28600540995097656,"{19: 1, 25: 1, 47: 3, 6: 6, 7: 6}","[6, 7, 19, 25, 47]",6676191251473,K1Mn1Ag3C6N6
Cs2KMn(CN)6,mp-628216,0.06570000000000004,-0.43221223,0.08235869807291696,"{55: 2, 19: 1, 25: 1, 6: 6, 7: 6}","[6, 7, 19, 25, 55]",6676191251552,Cs2K1Mn1C6N6
Cs2KCo(CN)6,mp-505662,4.3651,-2.0229972,0.0,"{55: 2, 19: 1, 27: 1, 6: 6, 7: 6}","[6, 7, 19, 27, 55]",6676191271552,Cs2K1Co1C6N6
KCoAu3(CN)6,mp-568906,0.0,1.03626528,0.2365861602450927,"{19: 1, 27: 1, 79: 3, 6: 6, 7: 6}","[6, 7, 19, 27, 79]",6676191271793,K1Co1Au3C6N6
KCdAu3(CN)6,mp-1211770,2.6159999999999997,0.99849481,0.20755870612744598,"{19: 1, 48: 1, 79: 3, 6: 6, 7: 6}","[6, 7, 19, 48, 79]",6676191481793,K1Cd1Au3C6N6
K3Cr(CN)6,mp-568773,1.7717999999999998,-1.64356232,0.18734498822916734,"{19: 3, 24: 1, 6: 6, 7: 6}","[6, 7, 19, 24]",6676193241,K3Cr1C6N6
K3Mn(CN)6,mp-540801,0.0,-0.64243737,0.14440537354166771,"{19: 3, 25: 1, 6: 6, 7: 6}","[6, 7, 19, 25]",6676193251,K3Mn1C6N6
K3Co(CN)6,mp-6219,4.1716,-1.9612764,0.06699869308593787,"{19: 3, 27: 1, 6: 6, 7: 6}","[6, 7, 19, 27]",6676193271,K3Co1C6N6
CsMnCr(CN)6,mp-505752,0.0,-0.22607395,0.23943482533333516,"{55: 1, 25: 1, 24: 1, 6: 6, 7: 6}","[6, 7, 24, 25, 55]",6676241251551,Cs1Mn1Cr1C6N6
MnPt(CN)6,mp-1210881,0.0,-0.14701349,0.23319863940476182,"{25: 1, 78: 1, 6: 6, 7: 6}","[6, 7, 25, 78]",6676251781,Mn1Pt1C6N6
Mn2Ru(CN)6,mp-569321,1.9347999999999999,0.9744873,0.14772716766666605,"{25: 2, 44: 1, 6: 6, 7: 6}","[6, 7, 25, 44]",6676252441,Mn2Ru1C6N6
Mn2Os(CN)6,mp-570761,0.0,1.85023055,0.12386846233333415,"{25: 2, 76: 1, 6: 6, 7: 6}","[6, 7, 25, 76]",6676252761,Mn2Os1C6N6
Co(CN)6,mp-1103876,0.0,-4.21262986,1.0533971684615366,"{27: 1, 6: 6, 7: 6}","[6, 7, 27]",6676271,Co1C6N6
CoAg3(CN)6,mp-6573,3.4249,-2.24761901,0.2459708790625008,"{27: 1, 47: 3, 6: 6, 7: 6}","[6, 7, 27, 47]",6676271473,Co1Ag3C6N6
PrCo(CN)6,mp-1194133,4.2005,-3.35672388,0.012731679821429864,"{59: 1, 27: 1, 6: 6, 7: 6}","[6, 7, 27, 59]",6676271591,Pr1Co1C6N6
ErCo(CN)6,mp-6185,4.2943,-3.29257453,0.042345858571426476,"{68: 1, 27: 1, 6: 6, 7: 6}","[6, 7, 27, 68]",6676271681,Er1Co1C6N6
LuCo(CN)6,mp-1192699,4.292,-3.24274119,0.1633446738392763,"{71: 1, 27: 1, 6: 6, 7: 6}","[6, 7, 27, 71]",6676271711,Lu1Co1C6N6
ZnPt(CN)6,mp-1207449,5.0577000000000005,-4.00600655,0.24653012035714017,"{30: 1, 78: 1, 6: 6, 7: 6}","[6, 7, 30, 78]",6676301781,Zn1Pt1C6N6
RbCdAg3(CN)6,mp-568978,2.8024999999999998,-1.86515138,0.2741276670588224,"{37: 1, 48: 1, 47: 3, 6: 6, 7: 6}","[6, 7, 37, 47, 48]",6676371473481,Rb1Cd1Ag3C6N6
Cd2Ru(CN)6,mp-568373,2.6444,-0.51650961,0.10291763400000242,"{48: 2, 44: 1, 6: 6, 7: 6}","[6, 7, 44, 48]",6676441482,Cd2Ru1C6N6
CdPd(CN)6,mp-606650,3.5839,-4.44446417,0.37907339678571184,"{48: 1, 46: 1, 6: 6, 7: 6}","[6, 7, 46, 48]",6676461481,Cd1Pd1C6N6
InAg3(CN)6,mp-1212079,3.9157,-2.60815612,0.43658730023437897,"{49: 1, 47: 3, 6: 6, 7: 6}","[6, 7, 47, 49]",6676473491,In1Ag3C6N6
CdPt(CN)6,mp-1213964,5.3795,-4.57986762,0.23494482249999926,"{48: 1, 78: 1, 6: 6, 7: 6}","[6, 7, 48, 78]",6676481781,Cd1Pt1C6N6
Cd2Os(CN)6,mp-568932,2.4507,-0.22064495,0.07922441133333447,"{48: 2, 76: 1, 6: 6, 7: 6}","[6, 7, 48, 76]",6676482761,Cd2Os1C6N6
Na4CrC6(N3O5)2,mp-1202356,0.0,-1.62894202,1.7648813199151219,"{11: 4, 24: 1, 6: 6, 7: 6, 8: 10}","[6, 7, 8, 11, 24]",6676810114241,Na4Cr1C6N6O10
K2C6Se2S6N6O,mp-733782,0.2585,-0.45065929,0.41851057883449894,"{19: 2, 6: 6, 34: 2, 16: 6, 7: 6, 8: 1}","[6, 7, 8, 16, 19, 34]",667681166192342,K2C6Se2S6N6O1
KCrCdC6N6O,mp-1223559,0.0,-2.47458701,0.6718346779166664,"{19: 1, 24: 1, 48: 1, 6: 6, 7: 6, 8: 1}","[6, 7, 8, 19, 24, 48]",667681191241481,K1Cr1Cd1C6N6O1
K4RuC6(N3O)2,mp-1199289,0.01770000000000005,-1.61098704,0.5387789324926899,"{19: 4, 44: 1, 6: 6, 7: 6, 8: 2}","[6, 7, 8, 19, 44]",667682194441,K4Ru1C6N6O2
GdAu3C6(N2O)3,mp-1196045,0.0,-1.57729768,0.9224885940131609,"{64: 1, 79: 3, 6: 6, 7: 6, 8: 3}","[6, 7, 8, 64, 79]",667683641793,Gd1Au3C6N6O3
KTbRuC6(N3O2)2,mp-1180947,1.0046000000000002,-0.99740534,0.8160721163986393,"{19: 1, 65: 1, 44: 1, 6: 6, 7: 6, 8: 4}","[6, 7, 8, 19, 44, 65]",667684191441651,K1Tb1Ru1C6N6O4
DyCrC6(N3O2)2,mp-1213562,1.7875,-2.09875095,1.040796662152779,"{66: 1, 24: 1, 6: 6, 7: 6, 8: 4}","[6, 7, 8, 24, 66]",667684241661,Dy1Cr1C6N6O4
HoCoC6(N3O2)2,mp-1212685,1.6674,-1.60197509,1.0427190689583377,"{67: 1, 27: 1, 6: 6, 7: 6, 8: 4}","[6, 7, 8, 27, 67]",667684271671,Ho1Co1C6N6O4
LaCrC6N6O5,mp-818429,0.7563,-2.66597295,1.3824075257017494,"{57: 1, 24: 1, 6: 6, 7: 6, 8: 5}","[6, 7, 8, 24, 57]",667685241571,La1Cr1C6N6O5
SmCoC6N6O5,mp-1208956,0.5026000000000002,-2.39875758,1.3316035639473718,"{62: 1, 27: 1, 6: 6, 7: 6, 8: 5}","[6, 7, 8, 27, 62]",667685271621,Sm1Co1C6N6O5
RbLa2C6N6ClO6,mp-1195186,4.103999999999999,1.90408913,0.0,"{37: 1, 57: 2, 6: 6, 7: 6, 17: 1, 8: 6}","[6, 7, 8, 17, 37, 57]",667686171371572,Rb1La2C6N6Cl1O6
Pb3C6(N3O4)2,mp-1196230,0.09759999999999991,2.22059135,0.2606814318478241,"{82: 3, 6: 6, 7: 6, 8: 8}","[6, 7, 8, 82]",667688823,Pb3C6N6O8
C6N7Cl3,mp-1214997,2.7037,-0.12405617,0.0,"{6: 6, 7: 7, 17: 3}","[6, 7, 17]",6677173,C6N7Cl3
Cs2Na(C2N3)3,mp-567575,4.392,-0.72848957,0.0380112075000012,"{55: 2, 11: 1, 6: 6, 7: 9}","[6, 7, 11, 55]",6679111552,Cs2Na1C6N9
Al(C2N3)3,mp-1245920,3.9826999999999995,2.72572358,0.1902698287499991,"{13: 1, 6: 6, 7: 9}","[6, 7, 13]",6679131,Al1C6N9
Ti(C2N3)3,mp-1247302,0.03700000000000003,0.92340612,0.21489383062499812,"{22: 1, 6: 6, 7: 9}","[6, 7, 22]",6679221,Ti1C6N9
V(C2N3)3,mp-1246935,0.13269999999999998,0.07619428,0.24603547562499983,"{23: 1, 6: 6, 7: 9}","[6, 7, 23]",6679231,V1C6N9
Cr(C2N3)3,mp-1246883,0.9792000000000001,0.52434017,0.2705623553124994,"{24: 1, 6: 6, 7: 9}","[6, 7, 24]",6679241,Cr1C6N9
Mn(C2N3)3,mp-1245977,0.4533,-0.06129218,0.2857299093750001,"{25: 1, 6: 6, 7: 9}","[6, 7, 25]",6679251,Mn1C6N9
Co(C2N3)3,mp-1247408,0.5292000000000001,-1.84230291,0.37916088093749956,"{27: 1, 6: 6, 7: 9}","[6, 7, 27]",6679271,Co1C6N9
Ga(C2N3)3,mp-1246040,3.6013,-1.49539811,0.24561873312499927,"{31: 1, 6: 6, 7: 9}","[6, 7, 31]",6679311,Ga1C6N9
Nb(C2N3)3,mp-1247322,0.0,1.35210238,0.2533212392499973,"{41: 1, 6: 6, 7: 9}","[6, 7, 41]",6679411,Nb1C6N9
Mo(C2N3)3,mp-1247204,0.0,0.66657506,0.26772731087499757,"{42: 1, 6: 6, 7: 9}","[6, 7, 42]",6679421,Mo1C6N9
Ru(C2N3)3,mp-1246642,0.6764000000000001,-0.08234327,0.33017863343749987,"{44: 1, 6: 6, 7: 9}","[6, 7, 44]",6679441,Ru1C6N9
In(C2N3)3,mp-1246048,3.5434,2.63356241,0.19476155242187332,"{49: 1, 6: 6, 7: 9}","[6, 7, 49]",6679491,In1C6N9
Sb(C2N3)3,mp-1245690,3.065,2.55429526,0.23156501375000005,"{51: 1, 6: 6, 7: 9}","[6, 7, 51]",6679511,Sb1C6N9
La(C2N3)3,mp-31321,3.5301,-0.05436175,0.0,"{57: 1, 6: 6, 7: 9}","[6, 7, 57]",6679571,La1C6N9
Ce(C2N3)3,mp-672205,0.0,2.37069012,1.279283224453125,"{58: 1, 6: 6, 7: 9}","[6, 7, 58]",6679581,Ce1C6N9
Pr(C2N3)3,mp-567763,3.5795,-0.5883609,0.0,"{59: 1, 6: 6, 7: 9}","[6, 7, 59]",6679591,Pr1C6N9
Nd(C2N3)3,mp-31320,3.6366,-0.68047982,0.0,"{60: 1, 6: 6, 7: 9}","[6, 7, 60]",6679601,Nd1C6N9
Sm(C2N3)3,mp-569221,3.3669000000000002,-0.57983646,0.1312237197656252,"{62: 1, 6: 6, 7: 9}","[6, 7, 62]",6679621,Sm1C6N9
Eu(C2N3)3,mp-637267,0.0,-0.71416522,0.1712744193749991,"{63: 1, 6: 6, 7: 9}","[6, 7, 63]",6679631,Eu1C6N9
Gd(C2N3)3,mp-672360,1.8058,-0.29984826,0.029608269999998882,"{64: 1, 6: 6, 7: 9}","[6, 7, 64]",6679641,Gd1C6N9
Ta(C2N3)3,mp-1246886,0.0,1.74843835,0.28727876812500064,"{73: 1, 6: 6, 7: 9}","[6, 7, 73]",6679731,Ta1C6N9
W(C2N3)3,mp-1245546,0.0,1.04598025,0.2961645181249999,"{74: 1, 6: 6, 7: 9}","[6, 7, 74]",6679741,W1C6N9
Re(C2N3)3,mp-1247354,0.0,0.86664898,0.2997846767708321,"{75: 1, 6: 6, 7: 9}","[6, 7, 75]",6679751,Re1C6N9
Os(C2N3)3,mp-1246697,1.2163,0.26319574,0.33615038562499855,"{76: 1, 6: 6, 7: 9}","[6, 7, 76]",6679761,Os1C6N9
Ir(C2N3)3,mp-1246784,0.9630000000000001,0.84953774,0.3883498053124992,"{77: 1, 6: 6, 7: 9}","[6, 7, 77]",6679771,Ir1C6N9
K3C6N9O,mp-1190105,2.6745,3.08087266,0.09704048647659924,"{19: 3, 6: 6, 7: 9, 8: 1}","[6, 7, 8, 19]",667981193,K3C6N9O1
Bi(C2N3)3,mp-1246119,3.34,2.67816906,0.18723106187499994,"{83: 1, 6: 6, 7: 9}","[6, 7, 83]",6679831,Bi1C6N9
KCaCoC6(S3O5)2,mp-1197796,0.0,-0.1557829,0.777790362203568,"{19: 1, 20: 1, 27: 1, 6: 6, 16: 6, 8: 10}","[6, 8, 16, 19, 20, 27]",66810166191201271,K1Ca1Co1C6S6O10
K2GeC6O13,mp-1196720,0.26869999999999994,-1.20514374,0.2651302479545459,"{19: 2, 32: 1, 6: 6, 8: 13}","[6, 8, 19, 32]",66813192321,K2Ge1C6O13
K3Co(C3O7)2,mp-1204325,0.04689999999999994,-1.44350979,0.4222722055295165,"{19: 3, 27: 1, 6: 6, 8: 14}","[6, 8, 19, 27]",66814193271,K3Co1C6O14
U3(C3O8)2,mp-1204076,0.0,-2.9147192,0.5699066342000076,"{92: 3, 6: 6, 8: 16}","[6, 8, 92]",66816923,U3C6O16
Na3CrC6O17,mp-1224423,0.0,-0.57938587,0.9109872058333357,"{11: 3, 24: 1, 6: 6, 8: 17}","[6, 8, 11, 24]",66817113241,Na3Cr1C6O17
HfCdC6O17,mp-1200309,0.0,-1.28907351,0.8865972400999977,"{72: 1, 48: 1, 6: 6, 8: 17}","[6, 8, 48, 72]",66817481721,Hf1Cd1C6O17
Na6Ca3MnC6(O9F)2,mp-766470,4.3288,1.13767662,0.0,"{11: 6, 20: 3, 25: 1, 6: 6, 8: 18, 9: 2}","[6, 8, 9, 11, 20, 25]",6681892116203251,Na6Ca3Mn1C6O18F2
Na2Sr3Zr(C2O7)3,mp-1211664,0.006200000000000004,-0.06074491,0.43546933643939134,"{11: 2, 38: 3, 40: 1, 6: 6, 8: 21}","[6, 8, 11, 38, 40]",66821112383401,Na2Sr3Zr1C6O21
Rb6Na2U2C6O23,mp-1219749,0.17509999999999998,-0.51237261,0.04539393019230875,"{37: 6, 11: 2, 92: 2, 6: 6, 8: 23}","[6, 8, 11, 37, 92]",66823112376922,Rb6Na2U2C6O23
Os2C6SO6,mp-662792,1.9976,0.08488082,0.16909467233333508,"{76: 2, 6: 6, 16: 1, 8: 6}","[6, 8, 16, 76]",6686161762,Os2C6S1O6
SbRu2C6Cl7O6,mp-662588,2.4703,-0.33458433,0.04828075102272589,"{51: 1, 44: 2, 6: 6, 17: 7, 8: 6}","[6, 8, 17, 44, 51]",6686177442511,Sb1Ru2C6Cl7O6
CaMn3(CO)6,mp-1215068,0.0,-2.17136482,1.0862444329687504,"{20: 1, 25: 3, 6: 6, 8: 6}","[6, 8, 20, 25]",6686201253,Ca1Mn3C6O6
V(CO)6,mp-504477,0.46599999999999997,-0.81817978,0.55965778423076,"{23: 1, 6: 6, 8: 6}","[6, 8, 23]",6686231,V1C6O6
Cr(CO)6,mp-647812,3.2234999999999996,-0.77616544,0.505205799374993,"{24: 1, 6: 6, 8: 6}","[6, 8, 24]",6686241,Cr1C6O6
Mn(CO)6,mp-1212627,0.4311999999999996,-3.98322873,1.5155151337499921,"{25: 1, 6: 6, 8: 6}","[6, 8, 25]",6686251,Mn1C6O6
Os2C6SeO6,mp-651026,1.8468,0.29464547,0.15933060266666743,"{76: 2, 6: 6, 34: 1, 8: 6}","[6, 8, 34, 76]",6686341762,Os2C6Se1O6
Mo(CO)6,mp-25082,2.8566000000000003,-1.11905981,0.4159327136538522,"{42: 1, 6: 6, 8: 6}","[6, 8, 42]",6686421,Mo1C6O6
BiRu2(CO)6,mp-652854,1.78,0.40936334,0.20825246304166,"{83: 1, 44: 2, 6: 6, 8: 6}","[6, 8, 44, 83]",6686442831,Bi1Ru2C6O6
Cd(CO)6,mp-1214952,0.021399999999999864,-5.01353274,1.5120043479807679,"{48: 1, 6: 6, 8: 6}","[6, 8, 48]",6686481,Cd1C6O6
W(CO)6,mp-541695,2.9753,-1.11347604,0.46563966480769636,"{74: 1, 6: 6, 8: 6}","[6, 8, 74]",6686741,W1C6O6
BiOs2(CO)6,mp-616249,2.1407,0.39554864,0.22068164520833378,"{83: 1, 76: 2, 6: 6, 8: 6}","[6, 8, 76, 83]",6686762831,Bi1Os2C6O6
Sb2RuC6(OF2)6,mp-6891,4.7623,-3.00724589,0.09111368162037259,"{51: 2, 44: 1, 6: 6, 8: 6, 9: 12}","[6, 8, 9, 44, 51]",6686912441512,Sb2Ru1C6O6F12
Sb2OsC6(OF2)6,mp-6880,4.6347000000000005,-2.96091526,0.07837778199074297,"{51: 2, 76: 1, 6: 6, 8: 6, 9: 12}","[6, 8, 9, 51, 76]",6686912512761,Sb2Os1C6O6F12
Sb3WC6O6F17,mp-699606,2.888,-1.854967,0.2776598729166677,"{51: 3, 74: 1, 6: 6, 8: 6, 9: 17}","[6, 8, 9, 51, 74]",6686917513741,Sb3W1C6O6F17
Sb4RuC6(O3F11)2,mp-555952,4.5134,-2.85388827,0.09236135067307494,"{51: 4, 44: 1, 6: 6, 8: 6, 9: 22}","[6, 8, 9, 44, 51]",6686922441514,Sb4Ru1C6O6F22
Sb4OsC6(O3F11)2,mp-558754,4.4837,-2.91308786,0.08385460003204948,"{51: 4, 76: 1, 6: 6, 8: 6, 9: 22}","[6, 8, 9, 51, 76]",6686922514761,Sb4Os1C6O6F22
ScC6(O2F3)3,mp-1195783,0.00019999999999997797,1.92891018,0.20380412357954558,"{21: 1, 6: 6, 8: 6, 9: 9}","[6, 8, 9, 21]",668699211,Sc1C6O6F9
C68OF20,mp-645279,1.4309,2.85304721,0.3098912100702256,"{6: 68, 8: 1, 9: 20}","[6, 8, 9]",66881920,C68O1F20
SrC6(BrO4)2,mp-1209218,0.0,-0.7334974,1.171932620499998,"{38: 1, 6: 6, 35: 2, 8: 8}","[6, 8, 35, 38]",6688352381,Sr1C6Br2O8
TmC6(OF)9,mp-1197080,0.08340000000000014,-2.35388053,0.6149611816000018,"{69: 1, 6: 6, 8: 9, 9: 9}","[6, 8, 9, 69]",668999691,Tm1C6O9F9
TeC6(ClF7)2,mp-560280,3.3301999999999996,-1.14840635,0.20919475198369586,"{52: 1, 6: 6, 17: 2, 9: 14}","[6, 9, 17, 52]",66914172521,Te1C6Cl2F14
SbC6S2F19,mp-1219560,2.5341,0.89037732,0.19548604689379356,"{51: 1, 6: 6, 16: 2, 9: 19}","[6, 9, 16, 51]",66919162511,Sb1C6S2F19
C6BrF4,mp-1214333,3.5625,-0.36774035,0.24851534288352184,"{6: 6, 35: 1, 9: 4}","[6, 9, 35]",6694351,C6Br1F4
C6F5,mp-1214171,3.7763999999999998,-0.62947366,0.28907160267045384,"{6: 6, 9: 5}","[6, 9]",6695,C6F5
C6IF7,mp-1214405,3.0843000000000003,-0.38127902,0.3054328423660717,"{6: 6, 53: 1, 9: 7}","[6, 9, 53]",6697531,C6I1F7
Ti3C70Cl13,mp-1208787,0.6283999999999998,1.51910098,0.2892412355341545,"{22: 3, 6: 70, 17: 13}","[6, 17, 22]",6701713223,Ti3C70Cl13
Si2SbC7Cl2,mp-1179297,0.9822000000000002,3.07794501,0.9073449969671055,"{14: 2, 51: 1, 6: 7, 17: 2}","[6, 14, 17, 51]",67142172511,Si2Sb1C7Cl2
C7Cl5,mp-1214386,2.0721999999999996,1.38971361,0.13809176049479177,"{6: 7, 17: 5}","[6, 17]",67175,C7Cl5
C7Cl8,mp-1214294,3.0458,0.32404711,0.11935242049999939,"{6: 7, 17: 8}","[6, 17]",67178,C7Cl8
Sc5Re2C7,mp-28767,0.0,6.26367913,0.0,"{21: 5, 75: 2, 6: 7}","[6, 21, 75]",67215752,Sc5Re2C7
V8C7,mp-542730,0.0,7.61149406,0.007177742759258976,"{23: 8, 6: 7}","[6, 23]",67238,V8C7
Co6W20C7,mp-1226155,0.0,7.37846494,0.017847019696969113,"{27: 6, 74: 20, 6: 7}","[6, 27, 74]",672767420,Co6W20C7
Nb10C7,mp-32679,0.0,6.12243189,0.03979726000000028,"{41: 10, 6: 7}","[6, 41]",674110,Nb10C7
Ho4C7,mp-1154,0.4560999999999993,4.11175782,0.0,"{67: 4, 6: 7}","[6, 67]",67674,Ho4C7
Er4C7,mp-1212833,0.39120000000000044,4.02005353,0.0,"{68: 4, 6: 7}","[6, 68]",67684,Er4C7
Er5Re2C7,mp-1213155,0.0,5.35929898,0.0,"{68: 5, 75: 2, 6: 7}","[6, 68, 75]",67685752,Er5Re2C7
Tm4C7,mp-1207978,0.3698000000000006,4.01823032,0.0,"{69: 4, 6: 7}","[6, 69]",67694,Tm4C7
Tm5Re2C7,mp-1207951,0.0,5.32919934,0.0,"{69: 5, 75: 2, 6: 7}","[6, 69, 75]",67695752,Tm5Re2C7
CaC7N10,mp-1247296,3.7029000000000005,10.93089484,0.34342925361111476,"{20: 1, 6: 7, 7: 10}","[6, 7, 20]",67710201,Ca1C7N10
SrC7N10,mp-1245820,3.8179999999999996,10.87232223,0.34653188666666956,"{38: 1, 6: 7, 7: 10}","[6, 7, 38]",67710381,Sr1C7N10
PbC7N10,mp-1246015,3.0077999999999996,11.47516347,0.35709240777778106,"{82: 1, 6: 7, 7: 10}","[6, 7, 82]",67710821,Pb1C7N10
Ru2C7S10N10(Cl4O3)2,mp-735424,1.5099,-0.26820882,0.3759358298232742,"{44: 2, 6: 7, 16: 10, 7: 10, 17: 8, 8: 6}","[6, 7, 8, 16, 17, 44]",67710861610178442,Ru2C7S10N10Cl8O6
AlC7IN,mp-1182993,0.0,0.84615639,1.2674608635576918,"{13: 1, 6: 7, 53: 1, 7: 1}","[6, 7, 13, 53]",6771131531,Al1C7I1N1
Al9SiC7N,mp-1228997,0.0,7.47995684,0.1551602167076025,"{13: 9, 14: 1, 6: 7, 7: 1}","[6, 7, 13, 14]",6771139141,Al9Si1C7N1