formula,material_id,band_gap,efermi,energy_above_hull,comp_atoms,sorted_keys_comp_atoms,comp_number,new_formula
TeC16(I2N)2,mp-1179214,0.0,0.95800512,1.9599548251449272,"{52: 1, 6: 16, 53: 4, 7: 2}","[6, 7, 52, 53]",61672521534,Te1C16I4N2
Ho3TlC,mp-20978,0.0,2.16288685,1.9287311879999978,"{67: 3, 81: 1, 6: 1}","[6, 67, 81]",61673811,Ho3Tl1C1
Ho3PbC,mp-1206983,0.0,4.84597559,0.0,"{67: 3, 82: 1, 6: 1}","[6, 67, 82]",61673821,Ho3Pb1C1
SiW12C16(NO10)4,mp-1197711,2.0985,0.43677136,0.49495531371005086,"{14: 1, 74: 12, 6: 16, 7: 4, 8: 40}","[6, 7, 8, 14, 74]",616748401417412,Si1W12C16N4O40
PRu5C16(O5F)3,mp-667366,3.2212,1.53789684,0.2557596675208327,"{15: 1, 44: 5, 6: 16, 8: 15, 9: 3}","[6, 8, 9, 15, 44]",61681593151445,P1Ru5C16O15F3
Co4Sn(CO)16,mp-562267,2.1266,-1.55375207,0.4058632004729672,"{27: 4, 50: 1, 6: 16, 8: 16}","[6, 8, 27, 50]",616816274501,Co4Sn1C16O16
Co4Pb(CO)16,mp-653887,3.3533999999999997,-1.23128397,0.42177321219594166,"{27: 4, 82: 1, 6: 16, 8: 16}","[6, 8, 27, 82]",616816274821,Co4Pb1C16O16
Os5Pd(CO)16,mp-728279,0.0,-0.18830947,0.3480684477631577,"{76: 5, 46: 1, 6: 16, 8: 16}","[6, 8, 46, 76]",616816461765,Os5Pd1C16O16
Os5(CO)16,mp-680248,1.9933,-0.44135645,0.22232989468468567,"{76: 5, 6: 16, 8: 16}","[6, 8, 76]",616816765,Os5C16O16
ErBi2C,mp-1213611,0.0,6.22655973,1.2004290015624992,"{68: 1, 83: 2, 6: 1}","[6, 68, 83]",61681832,Er1Bi2C1
Er2C,mp-1225044,0.0,3.07417852,0.0,"{68: 2, 6: 1}","[6, 68]",61682,Er2C1
Er3TlC,mp-21028,0.0,2.16615557,1.9426655439999978,"{68: 3, 81: 1, 6: 1}","[6, 68, 81]",61683811,Er3Tl1C1
Er3PbC,mp-20430,0.0,2.11475962,2.082803885666666,"{68: 3, 82: 1, 6: 1}","[6, 68, 82]",61683821,Er3Pb1C1
K8Ti4C16O45,mp-1225480,0.35840000000000005,-1.30079544,0.731421858527403,"{19: 8, 22: 4, 6: 16, 8: 45}","[6, 8, 19, 22]",616845198224,K8Ti4C16O45
Tm2C,mp-1216546,0.0,2.96205065,0.0,"{69: 2, 6: 1}","[6, 69]",61692,Tm2C1
Tm3TlC,mp-22556,0.0,2.17060698,1.9535037521999983,"{69: 3, 81: 1, 6: 1}","[6, 69, 81]",61693811,Tm3Tl1C1
Tm3PbC,mp-22542,0.0,4.91298711,0.0,"{69: 3, 82: 1, 6: 1}","[6, 69, 82]",61693821,Tm3Pb1C1
CN,mp-27461,4.8638,-4.63524585,0.5120008481249982,"{6: 1, 7: 1}","[6, 7]",6171,C1N1
Si7CN10,mp-1247547,2.2868,6.22670896,0.21440377784722386,"{14: 7, 6: 1, 7: 10}","[6, 7, 14]",61710147,Si7C1N10
NaCN,mp-30053,5.0374,-1.7079776,0.20025248374999904,"{11: 1, 6: 1, 7: 1}","[6, 7, 11]",6171111,Na1C1N1
NaCSN,mp-6633,4.1826,-0.16282388,0.0,"{11: 1, 6: 1, 16: 1, 7: 1}","[6, 7, 11, 16]",6171111161,Na1C1S1N1
AlSiCN,mp-1227998,3.4135999999999997,7.41877213,0.0369356026842107,"{13: 1, 14: 1, 6: 1, 7: 1}","[6, 7, 13, 14]",6171131141,Al1Si1C1N1
Ti4Al2CN,mp-1217141,0.0,7.06045368,0.002095168749997711,"{22: 4, 13: 2, 6: 1, 7: 1}","[6, 7, 13, 22]",6171132224,Ti4Al2C1N1
SiCN,mp-8003,0.0,8.62623108,2.223277883186406,"{14: 1, 6: 1, 7: 1}","[6, 7, 14]",6171141,Si1C1N1
GaSiCN,mp-1092268,0.5371000000000006,7.34495217,0.382859630514802,"{31: 1, 14: 1, 6: 1, 7: 1}","[6, 7, 14, 31]",6171141311,Ga1Si1C1N1
InSiCN,mp-1080609,1.7371000000000008,9.25128201,0.47287181697313674,"{49: 1, 14: 1, 6: 1, 7: 1}","[6, 7, 14, 49]",6171141491,In1Si1C1N1
CSNCl,mp-559889,2.7544999999999997,0.71255787,0.37124958799355134,"{6: 1, 16: 1, 7: 1, 17: 1}","[6, 7, 16, 17]",6171161171,C1S1N1Cl1
HgCSNCl,mp-559882,2.4401,-0.71676149,0.17496498314285613,"{80: 1, 6: 1, 16: 1, 7: 1, 17: 1}","[6, 7, 16, 17, 80]",6171161171801,Hg1C1S1N1Cl1
PbCSNCl,mp-672333,3.1395000000000004,2.05839692,0.11895293351785874,"{82: 1, 6: 1, 16: 1, 7: 1, 17: 1}","[6, 7, 16, 17, 82]",6171161171821,Pb1C1S1N1Cl1
KCSN,mp-6511,4.1109,-0.15005927,0.004332592638890631,"{19: 1, 6: 1, 16: 1, 7: 1}","[6, 7, 16, 19]",6171161191,K1C1S1N1
AgCSN,mp-562550,2.2796999999999996,0.35227222,0.16026330283481904,"{47: 1, 6: 1, 16: 1, 7: 1}","[6, 7, 16, 47]",6171161471,Ag1C1S1N1
CsCSN,mp-614311,4.3764,-0.24479872,0.0,"{55: 1, 6: 1, 16: 1, 7: 1}","[6, 7, 16, 55]",6171161551,Cs1C1S1N1
TlCSN,mp-1208088,2.2716000000000003,1.69229176,0.07247856833333177,"{81: 1, 6: 1, 16: 1, 7: 1}","[6, 7, 16, 81]",6171161811,Tl1C1S1N1
CS2N,mp-30054,2.982,-1.12724272,0.2570925022767847,"{6: 1, 16: 2, 7: 1}","[6, 7, 16]",6171162,C1S2N1
CS3N,mp-29700,2.6694999999999998,-0.65521895,0.19574167485714344,"{6: 1, 16: 3, 7: 1}","[6, 7, 16]",6171163,C1S3N1
K2Re3CS5N,mp-39938,1.2982,4.00372349,0.0,"{19: 2, 75: 3, 6: 1, 16: 5, 7: 1}","[6, 7, 16, 19, 75]",6171165192753,K2Re3C1S5N1
CNCl,mp-571324,3.7938,-1.5440963,0.0,"{6: 1, 7: 1, 17: 1}","[6, 7, 17]",6171171,C1N1Cl1
CdCNCl3,mp-1095515,2.9631000000000003,-2.39965732,0.29280697888888785,"{48: 1, 6: 1, 7: 1, 17: 3}","[6, 7, 17, 48]",6171173481,Cd1C1N1Cl3
SnCNCl3,mp-1103126,1.4742,0.20916149,0.35457904541666707,"{50: 1, 6: 1, 7: 1, 17: 3}","[6, 7, 17, 50]",6171173501,Sn1C1N1Cl3
HgCNCl3,mp-1188705,0.0,-2.89124684,0.9354412179166669,"{80: 1, 6: 1, 7: 1, 17: 3}","[6, 7, 17, 80]",6171173801,Hg1C1N1Cl3
SbCNCl5,mp-568590,1.9434999999999998,-1.40267713,0.1353491837574392,"{51: 1, 6: 1, 7: 1, 17: 5}","[6, 7, 17, 51]",6171175511,Sb1C1N1Cl5
Hg2CNCl5,mp-1224287,0.0,-2.64727594,0.6178012414814824,"{80: 2, 6: 1, 7: 1, 17: 5}","[6, 7, 17, 80]",6171175802,Hg2C1N1Cl5
SbCNCl6,mp-570727,1.9674999999999998,-1.31840559,0.08460162564814944,"{51: 1, 6: 1, 7: 1, 17: 6}","[6, 7, 17, 51]",6171176511,Sb1C1N1Cl6
SbCNCl8,mp-726503,0.0,-1.46932399,0.2766424152904001,"{51: 1, 6: 1, 7: 1, 17: 8}","[6, 7, 17, 51]",6171178511,Sb1C1N1Cl8
KCN,mp-1077078,5.0567,-2.77392638,0.12555755875000063,"{19: 1, 6: 1, 7: 1}","[6, 7, 19]",6171191,K1C1N1
KCSeN,mp-568943,3.6215,-0.77439204,0.115549064305557,"{19: 1, 6: 1, 34: 1, 7: 1}","[6, 7, 19, 34]",6171191341,K1C1Se1N1
Lu2C,mp-1222310,0.0,2.91431147,0.0,"{71: 2, 6: 1}","[6, 71]",61712,Lu2C1
TiVCN,mp-1216717,0.0,8.18339367,0.10448188871527897,"{22: 1, 23: 1, 6: 1, 7: 1}","[6, 7, 22, 23]",6171221231,Ti1V1C1N1
ZrTiCN,mp-1215184,0.0,7.23104448,0.06122452125000066,"{40: 1, 22: 1, 6: 1, 7: 1}","[6, 7, 22, 40]",6171221401,Zr1Ti1C1N1
HfTiCN,mp-1224279,0.0,7.66084137,0.03649704374999985,"{72: 1, 22: 1, 6: 1, 7: 1}","[6, 7, 22, 72]",6171221721,Hf1Ti1C1N1
TaTiCN,mp-1217920,0.0,8.23079374,0.07593300000000269,"{73: 1, 22: 1, 6: 1, 7: 1}","[6, 7, 22, 73]",6171221731,Ta1Ti1C1N1
Ti2CN,mp-1217142,0.0,8.3162388,0.0,"{22: 2, 6: 1, 7: 1}","[6, 7, 22]",6171222,Ti2C1N1
NbVCN,mp-1220407,0.0,7.67575892,0.15783846593750006,"{41: 1, 23: 1, 6: 1, 7: 1}","[6, 7, 23, 41]",6171231411,Nb1V1C1N1
TaVCN,mp-1217824,0.0,8.08378205,0.1311975725000032,"{73: 1, 23: 1, 6: 1, 7: 1}","[6, 7, 23, 73]",6171231731,Ta1V1C1N1
V2CN,mp-1216616,0.0,8.27690101,0.12346139371528153,"{23: 2, 6: 1, 7: 1}","[6, 7, 23]",6171232,V2C1N1
Mn6Zn2CN,mp-1221658,0.0,5.38335759,0.029779524009194702,"{25: 6, 30: 2, 6: 1, 7: 1}","[6, 7, 25, 30]",6171256302,Mn6Zn2C1N1
Mn6Ga2CN,mp-1221614,0.0,1.94295946,2.044806007500001,"{25: 6, 31: 2, 6: 1, 7: 1}","[6, 7, 25, 31]",6171256312,Mn6Ga2C1N1
CoCN,mp-1245659,0.0,6.07728418,0.2934395208333349,"{27: 1, 6: 1, 7: 1}","[6, 7, 27]",6171271,Co1C1N1
CSeN,mp-638137,2.1986,-0.77854737,0.2963565633854168,"{6: 1, 34: 1, 7: 1}","[6, 7, 34]",6171341,C1Se1N1
CBrN,mp-27989,5.0373,-2.85045664,0.28238251890624877,"{6: 1, 35: 1, 7: 1}","[6, 7, 35]",6171351,C1Br1N1
CdCBr3N,mp-1102642,0.0,-2.02480217,0.7963723677864567,"{48: 1, 6: 1, 35: 3, 7: 1}","[6, 7, 35, 48]",6171353481,Cd1C1Br3N1
HgCBr3N,mp-1102100,0.0,-2.6008846,0.7787625430642344,"{80: 1, 6: 1, 35: 3, 7: 1}","[6, 7, 35, 80]",6171353801,Hg1C1Br3N1
PbCBr3N,mp-1192518,1.0392000000000001,-0.79861168,0.333200418619791,"{82: 1, 6: 1, 35: 3, 7: 1}","[6, 7, 35, 82]",6171353821,Pb1C1Br3N1
Lu3TlC,mp-10607,0.0,4.41398857,0.0,"{71: 3, 81: 1, 6: 1}","[6, 71, 81]",61713811,Lu3Tl1C1
Lu3PbC,mp-1206877,0.0,5.0204297,0.0,"{71: 3, 82: 1, 6: 1}","[6, 71, 82]",61713821,Lu3Pb1C1
ZrNbCN,mp-1215232,0.0,6.87676319,0.08580299343750042,"{40: 1, 41: 1, 6: 1, 7: 1}","[6, 7, 40, 41]",6171401411,Zr1Nb1C1N1
HfZrCN,mp-1224228,0.0,7.0185337,0.00019946499999790035,"{72: 1, 40: 1, 6: 1, 7: 1}","[6, 7, 40, 72]",6171401721,Hf1Zr1C1N1
ZrTaCN,mp-1215225,0.0,7.37339006,0.07359595500000182,"{40: 1, 73: 1, 6: 1, 7: 1}","[6, 7, 40, 73]",6171401731,Zr1Ta1C1N1
ZrUCN,mp-1215199,0.0,9.28590899,0.023683617500001475,"{40: 1, 92: 1, 6: 1, 7: 1}","[6, 7, 40, 92]",6171401921,Zr1U1C1N1
Zr2CN,mp-1215592,0.0,6.61972556,0.0,"{40: 2, 6: 1, 7: 1}","[6, 7, 40]",6171402,Zr2C1N1
HfNbCN,mp-1224340,0.0,7.23749259,0.05347734843750196,"{72: 1, 41: 1, 6: 1, 7: 1}","[6, 7, 41, 72]",6171411721,Hf1Nb1C1N1
TaNbCN,mp-1217933,0.0,7.76419773,0.0842556276041666,"{73: 1, 41: 1, 6: 1, 7: 1}","[6, 7, 41, 73]",6171411731,Ta1Nb1C1N1
Nb2CN,mp-1220725,0.0,7.37062334,0.07542386343750174,"{41: 2, 6: 1, 7: 1}","[6, 7, 41]",6171412,Nb2C1N1
Mo2CN,mp-1221519,0.0,9.85287203,0.0,"{42: 2, 6: 1, 7: 1}","[6, 7, 42]",6171422,Mo2C1N1
AgCN,mp-9519,3.6601,-2.21942105,0.3482481286111101,"{47: 1, 6: 1, 7: 1}","[6, 7, 47]",6171471,Ag1C1N1
SnCI3N,mp-1072191,0.0,0.82839501,0.7656342559201352,"{50: 1, 6: 1, 53: 3, 7: 1}","[6, 7, 50, 53]",6171501533,Sn1C1I3N1
CIN,mp-30068,4.3987,-1.33561446,0.3976260516666672,"{6: 1, 53: 1, 7: 1}","[6, 7, 53]",6171531,C1I1N1
HgCI3N,mp-1181612,2.1755,-1.82420794,0.28493359177083155,"{80: 1, 6: 1, 53: 3, 7: 1}","[6, 7, 53, 80]",6171533801,Hg1C1I3N1
PbCI3N,mp-1077787,0.0,-0.46687049,0.8077080033333317,"{82: 1, 6: 1, 53: 3, 7: 1}","[6, 7, 53, 82]",6171533821,Pb1C1I3N1
La4CI6N,mp-1211788,1.1841,3.21318219,0.0,"{57: 4, 6: 1, 53: 6, 7: 1}","[6, 7, 53, 57]",6171536574,La4C1I6N1
Ce4CI6N,mp-1204612,0.008099999999999774,4.05812347,0.0,"{58: 4, 6: 1, 53: 6, 7: 1}","[6, 7, 53, 58]",6171536584,Ce4C1I6N1
CsCN,mp-1245795,4.9418,2.71771824,0.0,"{55: 1, 6: 1, 7: 1}","[6, 7, 55]",6171551,Cs1C1N1
LaThCN,mp-1222727,0.0,7.42386864,0.09818025916666606,"{57: 1, 90: 1, 6: 1, 7: 1}","[6, 7, 57, 90]",6171571901,La1Th1C1N1
CeThCN,mp-1226550,0.0,7.68336658,0.040653926111110295,"{58: 1, 90: 1, 6: 1, 7: 1}","[6, 7, 58, 90]",6171581901,Ce1Th1C1N1
CeUCN,mp-1226563,0.0,9.8774389,0.05346054749999496,"{58: 1, 92: 1, 6: 1, 7: 1}","[6, 7, 58, 92]",6171581921,Ce1U1C1N1
PrThCN,mp-1219723,0.0,5.47912667,0.07220584194444513,"{59: 1, 90: 1, 6: 1, 7: 1}","[6, 7, 59, 90]",6171591901,Pr1Th1C1N1
SmThCN,mp-1218989,0.0,5.24416217,0.04410884145833194,"{62: 1, 90: 1, 6: 1, 7: 1}","[6, 7, 62, 90]",6171621901,Sm1Th1C1N1
DyThCN,mp-1225528,0.0,5.83984735,0.0516642975000039,"{66: 1, 90: 1, 6: 1, 7: 1}","[6, 7, 66, 90]",6171661901,Dy1Th1C1N1
ErThCN,mp-1225387,0.0,5.87078183,0.0776408425000028,"{68: 1, 90: 1, 6: 1, 7: 1}","[6, 7, 68, 90]",6171681901,Er1Th1C1N1
HfTaCN,mp-1224289,0.0,7.77591823,0.054243695000002035,"{72: 1, 73: 1, 6: 1, 7: 1}","[6, 7, 72, 73]",6171721731,Hf1Ta1C1N1
Hf2CN,mp-1223850,0.0,7.44721119,0.0,"{72: 2, 6: 1, 7: 1}","[6, 7, 72]",6171722,Hf2C1N1
Ta2CN,mp-37179,0.0,9.07954703,0.1282482279166679,"{73: 2, 6: 1, 7: 1}","[6, 7, 73]",6171732,Ta2C1N1
AuCN,mp-29196,1.8610000000000002,-0.59943604,0.251197195833333,"{79: 1, 6: 1, 7: 1}","[6, 7, 79]",6171791,Au1C1N1
CNO,mp-1103367,0.0,-3.8937072,0.898165924583334,"{6: 1, 7: 1, 8: 1}","[6, 7, 8]",617181,C1N1O1
Al2Si2CNO10,mp-1198111,0.06589999999999996,-0.84890684,0.6889548642140157,"{13: 2, 14: 2, 6: 1, 7: 1, 8: 10}","[6, 7, 8, 13, 14]",6171810132142,Al2Si2C1N1O10
Ag3CN(ClO5)2,mp-1198516,1.3565999999999998,0.65141796,0.7725206991038576,"{47: 3, 6: 1, 7: 1, 17: 2, 8: 10}","[6, 7, 8, 17, 47]",6171810172473,Ag3C1N1Cl2O10
NaCNO,mp-546500,4.4323,-1.06749574,0.0,"{11: 1, 6: 1, 7: 1, 8: 1}","[6, 7, 8, 11]",617181111,Na1C1N1O1
K2P4PtCSNO11,mp-1197039,1.0776,0.65938437,0.6228776229761888,"{19: 2, 15: 4, 78: 1, 6: 1, 16: 1, 7: 1, 8: 11}","[6, 7, 8, 15, 16, 19, 78]",6171811154161192781,K2P4Pt1C1S1N1O11
CNClO,mp-722003,0.0,-1.78136838,1.759229837829861,"{6: 1, 7: 1, 17: 1, 8: 1}","[6, 7, 8, 17]",617181171,C1N1Cl1O1
PdCNCl2O,mp-725584,0.18569999999999998,-1.46696673,1.1673382768749994,"{46: 1, 6: 1, 7: 1, 17: 2, 8: 1}","[6, 7, 8, 17, 46]",617181172461,Pd1C1N1Cl2O1
SbCNCl4O,mp-557961,2.1439,-1.58740405,0.047046949327257614,"{51: 1, 6: 1, 7: 1, 17: 4, 8: 1}","[6, 7, 8, 17, 51]",617181174511,Sb1C1N1Cl4O1
Pb6CNO11,mp-729063,0.0,2.78341599,0.06768654824013165,"{82: 6, 6: 1, 7: 1, 8: 11}","[6, 7, 8, 82]",6171811826,Pb6C1N1O11
KCNO,mp-1223463,4.6895999999999995,-1.07372863,0.010794870555550062,"{19: 1, 6: 1, 7: 1, 8: 1}","[6, 7, 8, 19]",617181191,K1C1N1O1
Na4Al3Si3CNO13,mp-1173717,4.369400000000001,4.44736325,0.0,"{11: 4, 13: 3, 14: 3, 6: 1, 7: 1, 8: 13}","[6, 7, 8, 11, 13, 14]",6171813114133143,Na4Al3Si3C1N1O13
RbCNO,mp-1219568,4.5721,-1.21073817,0.0,"{37: 1, 6: 1, 7: 1, 8: 1}","[6, 7, 8, 37]",617181371,Rb1C1N1O1
AgCNO,mp-6781,3.0696,-0.73828172,0.15350355989583342,"{47: 1, 6: 1, 7: 1, 8: 1}","[6, 7, 8, 47]",617181471,Ag1C1N1O1
CsCNO,mp-1225916,4.5353,-0.84300048,0.0,"{55: 1, 6: 1, 7: 1, 8: 1}","[6, 7, 8, 55]",617181551,Cs1C1N1O1
K3Mo4CSNO16,mp-1181887,0.8165,-0.75111026,0.7541329325000392,"{19: 3, 42: 4, 6: 1, 16: 1, 7: 1, 8: 16}","[6, 7, 8, 16, 19, 42]",6171816161193424,K3Mo4C1S1N1O16
TlCNO,mp-1216754,2.5255,1.49264788,0.016325923229164374,"{81: 1, 6: 1, 7: 1, 8: 1}","[6, 7, 8, 81]",617181811,Tl1C1N1O1
BiCNO,mp-1147624,2.3915,5.98169214,0.3248612078749993,"{83: 1, 6: 1, 7: 1, 8: 1}","[6, 7, 8, 83]",617181831,Bi1C1N1O1
CSNOF5,mp-672266,4.0702,-2.03805327,0.26310683131018653,"{6: 1, 16: 1, 7: 1, 8: 1, 9: 5}","[6, 7, 8, 9, 16]",61718195161,C1S1N1O1F5
AsCS2NOF8,mp-1247925,1.2189,0.12458248,0.2499189869608518,"{33: 1, 6: 1, 16: 2, 7: 1, 8: 1, 9: 8}","[6, 7, 8, 9, 16, 33]",61718198162331,As1C1S2N1O1F8
CNO2,mp-1214309,2.9157,1.87590701,1.09071844921875,"{6: 1, 7: 1, 8: 2}","[6, 7, 8]",617182,C1N1O2
NaCNO2,mp-1210777,1.5941999999999998,1.42787156,0.5905473334166649,"{11: 1, 6: 1, 7: 1, 8: 2}","[6, 7, 8, 11]",617182111,Na1C1N1O2
CS2NClO2,mp-23150,2.7134,-1.13123607,0.3041511795357117,"{6: 1, 16: 2, 7: 1, 17: 1, 8: 2}","[6, 7, 8, 16, 17]",617182162171,C1S2N1Cl1O2
TaCN(ClO)2,mp-734438,0.0,-1.43198795,1.5932999846726208,"{73: 1, 6: 1, 7: 1, 17: 2, 8: 2}","[6, 7, 8, 17, 73]",617182172731,Ta1C1N1Cl2O2
ReCNCl3O2,mp-1201283,0.5540999999999999,-1.50763007,0.7926012492708399,"{75: 1, 6: 1, 7: 1, 17: 3, 8: 2}","[6, 7, 8, 17, 75]",617182173751,Re1C1N1Cl3O2
CSNO2F3,mp-559873,4.7073,-1.94843335,0.21037490647395796,"{6: 1, 16: 1, 7: 1, 8: 2, 9: 3}","[6, 7, 8, 9, 16]",61718293161,C1S1N1O2F3
CS3NO2F3,mp-555016,3.0166,-0.4602383,0.31634675323750105,"{6: 1, 16: 3, 7: 1, 8: 2, 9: 3}","[6, 7, 8, 9, 16]",61718293163,C1S3N1O2F3
CSNO3,mp-554110,3.7606,-1.55920138,0.29412127166666924,"{6: 1, 16: 1, 7: 1, 8: 3}","[6, 7, 8, 16]",617183161,C1S1N1O3
HgCNO3,mp-1224207,0.0,-1.87984885,1.4122392322916664,"{80: 1, 6: 1, 7: 1, 8: 3}","[6, 7, 8, 80]",617183801,Hg1C1N1O3
ZrPCN(OF)3,mp-1105376,0.0,-3.72732487,0.49900747914286026,"{40: 1, 15: 1, 6: 1, 7: 1, 8: 3, 9: 3}","[6, 7, 8, 9, 15, 40]",61718393151401,Zr1P1C1N1O3F3
Ag2CSNClO4,mp-680067,2.5336,1.03795128,0.8971311421000001,"{47: 2, 6: 1, 16: 1, 7: 1, 17: 1, 8: 4}","[6, 7, 8, 16, 17, 47]",617184161171472,Ag2C1S1N1Cl1O4
CNClO4,mp-1202752,0.0,-3.86334758,1.538739433035711,"{6: 1, 7: 1, 17: 1, 8: 4}","[6, 7, 8, 17]",617184171,C1N1Cl1O4
KCS2N(O2F)2,mp-555146,4.4578,-0.09006558,0.3548278143853283,"{19: 1, 6: 1, 16: 2, 7: 1, 8: 4, 9: 2}","[6, 7, 8, 9, 16, 19]",61718492162191,K1C1S2N1O4F2
AlCNO5,mp-1182891,0.3063,0.04137363,0.44529830775568247,"{13: 1, 6: 1, 7: 1, 8: 5}","[6, 7, 8, 13]",617185131,Al1C1N1O5
PuCNO5,mp-1189912,0.2996000000000001,1.07779709,0.5892372146875005,"{94: 1, 6: 1, 7: 1, 8: 5}","[6, 7, 8, 94]",617185941,Pu1C1N1O5
PbCNO6,mp-1199527,0.02290000000000003,0.6188645,0.3974666866666672,"{82: 1, 6: 1, 7: 1, 8: 6}","[6, 7, 8, 82]",617186821,Pb1C1N1O6
AlVP2CNO9,mp-735041,0.3904000000000001,-1.25933917,0.3841079589722236,"{13: 1, 23: 1, 15: 2, 6: 1, 7: 1, 8: 9}","[6, 7, 8, 13, 15, 23]",617189131152231,Al1V1P2C1N1O9
ThCN,mp-30521,1.5224000000000002,5.14845129,0.10686665083334468,"{90: 1, 6: 1, 7: 1}","[6, 7, 90]",6171901,Th1C1N1
Th2CN,mp-1217332,0.0,7.82296074,0.0,"{90: 2, 6: 1, 7: 1}","[6, 7, 90]",6171902,Th2C1N1
SnCSNF,mp-556146,2.8283000000000005,1.1616699,0.12812404462500115,"{50: 1, 6: 1, 16: 1, 7: 1, 9: 1}","[6, 7, 9, 16, 50]",617191161501,Sn1C1S1N1F1
U2CN,mp-1216828,0.0,11.6017146,0.0,"{92: 2, 6: 1, 7: 1}","[6, 7, 92]",6171922,U2C1N1
CSNF5,mp-556223,5.4516,-3.64000964,0.4229777992031254,"{6: 1, 16: 1, 7: 1, 9: 5}","[6, 7, 9, 16]",617195161,C1S1N1F5
CSNCl2F5,mp-1214114,4.0393,-1.60616955,0.19889392667812444,"{6: 1, 16: 1, 7: 1, 17: 2, 9: 5}","[6, 7, 9, 16, 17]",617195161172,C1S1N1Cl2F5
CS2NF5,mp-555513,2.9355,-1.2238193,0.38725729293055533,"{6: 1, 16: 2, 7: 1, 9: 5}","[6, 7, 9, 16]",617195162,C1S2N1F5
Te2AsCNF6,mp-558138,1.5716,-0.35497309,0.11710048214015067,"{52: 2, 33: 1, 6: 1, 7: 1, 9: 6}","[6, 7, 9, 33, 52]",617196331522,Te2As1C1N1F6
CN2,mp-1019086,4.660499999999999,3.60516332,0.37517436916666647,"{6: 1, 7: 2}","[6, 7]",6172,C1N2
HfC,mp-21075,0.0,6.37627258,0.0,"{72: 1, 6: 1}","[6, 72]",61721,Hf1C1
Na2CN2,mp-541989,3.024,1.35050221,0.0,"{11: 2, 6: 1, 7: 2}","[6, 7, 11]",6172112,Na2C1N2
MgCN2,mp-9166,3.7571,2.40216986,0.0,"{12: 1, 6: 1, 7: 2}","[6, 7, 12]",6172121,Mg1C1N2
PCN2Cl3,mp-679969,3.6218,-0.67660887,0.04678171025792821,"{15: 1, 6: 1, 7: 2, 17: 3}","[6, 7, 15, 17]",6172151173,P1C1N2Cl3
P3CN2Cl13,mp-1198055,0.011099999999999999,0.66532237,0.07280928820174992,"{15: 3, 6: 1, 7: 2, 17: 13}","[6, 7, 15, 17]",61721531713,P3C1N2Cl13
CSN2,mp-1214102,2.4741999999999997,2.23491613,0.27964595191964303,"{6: 1, 16: 1, 7: 2}","[6, 7, 16]",6172161,C1S1N2
SnCS(NCl)2,mp-1193396,0.9139,-0.855728,0.5241049528826514,"{50: 1, 6: 1, 16: 1, 7: 2, 17: 2}","[6, 7, 16, 17, 50]",6172161172501,Sn1C1S1N2Cl2
HgCS(NCl)2,mp-1104712,0.0,-1.51774125,1.0351601618112225,"{80: 1, 6: 1, 16: 1, 7: 2, 17: 2}","[6, 7, 16, 17, 80]",6172161172801,Hg1C1S1N2Cl2
PbCS(BrN)2,mp-1104819,0.375,0.09804438,0.5039347903826528,"{82: 1, 6: 1, 16: 1, 35: 2, 7: 2}","[6, 7, 16, 35, 82]",6172161352821,Pb1C1S1Br2N2
C(SN)2,mp-560169,0.4478,2.63660797,0.4457309173214288,"{6: 1, 16: 2, 7: 2}","[6, 7, 16]",6172162,C1S2N2
CS3(Br2N)2,mp-559900,1.2881,1.22721323,0.11388092136458283,"{6: 1, 16: 3, 35: 4, 7: 2}","[6, 7, 16, 35]",6172163354,C1S3Br4N2
LaCN2Cl,mp-567373,3.2,4.36790172,0.0,"{57: 1, 6: 1, 7: 2, 17: 1}","[6, 7, 17, 57]",6172171571,La1C1N2Cl1
Sr2C(NCl)2,mp-567655,4.202,1.08433203,0.0,"{38: 2, 6: 1, 7: 2, 17: 2}","[6, 7, 17, 38]",6172172382,Sr2C1N2Cl2
Eu2C(NCl)2,mp-582618,0.6898,4.18119344,0.0,"{63: 2, 6: 1, 7: 2, 17: 2}","[6, 7, 17, 63]",6172172632,Eu2C1N2Cl2
Hg2C(NCl)2,mp-568433,1.8761999999999999,-0.13493657,0.21403540357142692,"{80: 2, 6: 1, 7: 2, 17: 2}","[6, 7, 17, 80]",6172172802,Hg2C1N2Cl2
KCN2,mp-1211608,0.0,-0.38210958,0.35591895632812065,"{19: 1, 6: 1, 7: 2}","[6, 7, 19]",6172191,K1C1N2
K2CN2,mp-10408,3.1433,0.54709899,0.0,"{19: 2, 6: 1, 7: 2}","[6, 7, 19]",6172192,K2C1N2
CaCN2,mp-4124,3.5774,1.75282132,0.0,"{20: 1, 6: 1, 7: 2}","[6, 7, 20]",6172201,Ca1C1N2
VCN2,mp-1245868,0.0,6.75822766,0.35475668937499805,"{23: 1, 6: 1, 7: 2}","[6, 7, 23]",6172231,V1C1N2
CrCN2,mp-1247362,0.0,5.63553454,0.3164723406249994,"{24: 1, 6: 1, 7: 2}","[6, 7, 24]",6172241,Cr1C1N2
MnCN2,mp-12335,0.20760000000000023,4.23206654,0.07094195437499984,"{25: 1, 6: 1, 7: 2}","[6, 7, 25]",6172251,Mn1C1N2
CoCN2,mp-567767,0.0,4.30689648,0.20094209437499977,"{27: 1, 6: 1, 7: 2}","[6, 7, 27]",6172271,Co1C1N2
Hf2TlC,mp-1078712,0.0,6.99692237,0.0,"{72: 2, 81: 1, 6: 1}","[6, 72, 81]",61722811,Hf2Tl1C1
Hf2PbC,mp-1079076,0.0,7.6412452,0.0,"{72: 2, 82: 1, 6: 1}","[6, 72, 82]",61722821,Hf2Pb1C1
Hf3C,mp-976422,0.0,5.42621383,1.3237322125000013,"{72: 3, 6: 1}","[6, 72]",61723,Hf3C1
ZnCN2,mp-29826,3.4511,0.26268752,0.0,"{30: 1, 6: 1, 7: 2}","[6, 7, 30]",6172301,Zn1C1N2
GeCN2,mp-1246426,0.8840000000000001,0.55087577,0.2501116145833331,"{32: 1, 6: 1, 7: 2}","[6, 7, 32]",6172321,Ge1C1N2
RbCN2,mp-1197786,0.0,-0.68434134,0.33977087914062487,"{37: 1, 6: 1, 7: 2}","[6, 7, 37]",6172371,Rb1C1N2
Rb2CN2,mp-1029784,2.8228,0.77108726,0.0,"{37: 2, 6: 1, 7: 2}","[6, 7, 37]",6172372,Rb2C1N2
SrCN2,mp-9167,3.6025000000000005,0.94341029,0.0,"{38: 1, 6: 1, 7: 2}","[6, 7, 38]",6172381,Sr1C1N2
Sr2CN2,mp-1247462,0.0,4.70737049,0.2618285120000001,"{38: 2, 6: 1, 7: 2}","[6, 7, 38]",6172382,Sr2C1N2