formula,material_id,band_gap,efermi,energy_above_hull,comp_atoms,sorted_keys_comp_atoms,comp_number,new_formula
Mg3Si9B36C,mp-1222229,1.0420000000000007,5.72168316,0.0,"{12: 3, 14: 9, 5: 36, 6: 1}","[5, 6, 12, 14]",53661123149,Mg3Si9B36C1
Dy2Si9B36C,mp-1225372,1.1721999999999992,6.61601066,0.0,"{66: 2, 14: 9, 5: 36, 6: 1}","[5, 6, 14, 66]",53661149662,Dy2Si9B36C1
Tm2Si9B36C,mp-1216853,1.2088999999999999,6.635513,0.0,"{69: 2, 14: 9, 5: 36, 6: 1}","[5, 6, 14, 69]",53661149692,Tm2Si9B36C1
Lu2Si9B36C,mp-1222448,1.2246000000000006,6.64560413,0.0,"{71: 2, 14: 9, 5: 36, 6: 1}","[5, 6, 14, 71]",53661149712,Lu2Si9B36C1
La9B3C6Br5,mp-624186,0.0,7.4716006,0.0,"{57: 9, 5: 3, 6: 6, 35: 5}","[5, 6, 35, 57]",5366355579,La9B3C6Br5
Ce9B3C6Br5,mp-680283,0.0,6.9492658,0.0,"{58: 9, 5: 3, 6: 6, 35: 5}","[5, 6, 35, 58]",5366355589,Ce9B3C6Br5
La9B3C6I5,mp-679979,0.0,7.96362309,0.0,"{57: 9, 5: 3, 6: 6, 53: 5}","[5, 6, 53, 57]",5366535579,La9B3C6I5
CaB3(CO)6,mp-1214927,0.03459999999999974,-2.74237407,1.5396978010351523,"{20: 1, 5: 3, 6: 6, 8: 6}","[5, 6, 8, 20]",536686201,Ca1B3C6O6
Cr46(BC3)3,mp-1227102,0.0,7.40959266,0.022102358017239254,"{24: 46, 5: 3, 6: 9}","[5, 6, 24]",53692446,Cr46B3C9
B4C,mp-1238815,3.0415,5.1070427,0.0,"{5: 4, 6: 1}","[5, 6]",5461,B4C1
Tb2B4C,mp-1025379,0.0,5.15406189,0.0,"{65: 2, 5: 4, 6: 1}","[5, 6, 65]",5461652,Tb2B4C1
Dy2B4C,mp-568541,0.0,5.12844442,0.0,"{66: 2, 5: 4, 6: 1}","[5, 6, 66]",5461662,Dy2B4C1
Ho2B4C,mp-1025183,0.0,5.06999436,0.0,"{67: 2, 5: 4, 6: 1}","[5, 6, 67]",5461672,Ho2B4C1
Er2B4C,mp-1025246,0.0,5.11131782,0.0,"{68: 2, 5: 4, 6: 1}","[5, 6, 68]",5461682,Er2B4C1
B4CCl6O,mp-545479,4.0708,-1.71720098,0.31329846128472116,"{5: 4, 6: 1, 17: 6, 8: 1}","[5, 6, 8, 17]",546181176,B4C1Cl6O1
B4COF6,mp-553954,4.9195,-3.04631771,0.30274019118055673,"{5: 4, 6: 1, 8: 1, 9: 6}","[5, 6, 8, 9]",54618196,B4C1O1F6
Ca4MgB4(CO9)2,mp-1193253,0.0,1.14207054,0.18544059487068232,"{20: 4, 12: 1, 5: 4, 6: 2, 8: 18}","[5, 6, 8, 12, 20]",5462818121204,Ca4Mg1B4C2O18
Ta36B4C35,mp-1006594,0.0,7.45386227,0.09501956259999922,"{73: 36, 5: 4, 6: 35}","[5, 6, 73]",546357336,Ta36B4C35
HfTaTiB4MoC4,mp-1232383,0.0,9.91680061,0.6142410295833365,"{72: 1, 73: 1, 22: 1, 5: 4, 42: 1, 6: 4}","[5, 6, 22, 42, 72, 73]",5464221421721731,Hf1Ta1Ti1B4Mo1C4
Nb7(BC)4,mp-29981,0.0,7.18205293,0.0,"{41: 7, 5: 4, 6: 4}","[5, 6, 41]",5464417,Nb7B4C4
Ce5B4C5,mp-680054,0.0,7.68512127,0.037873204642857594,"{58: 5, 5: 4, 6: 5}","[5, 6, 58]",5465585,Ce5B4C5
Al17(BC3)6,mp-1247832,0.0,5.6934676,0.1493587014515585,"{13: 17, 5: 6, 6: 18}","[5, 6, 13]",566181317,Al17B6C18
Nd15(B3C10)2,mp-1220622,0.0,4.72762983,0.026917339121947492,"{60: 15, 5: 6, 6: 20}","[5, 6, 60]",566206015,Nd15B6C20
Th2Sc(B2C)3,mp-1208224,0.0,7.66929565,0.0,"{90: 2, 21: 1, 5: 6, 6: 3}","[5, 6, 21, 90]",5663211902,Th2Sc1B6C3
Nb7(B2C)3,mp-29982,0.0,7.41514145,0.011285638906253226,"{41: 7, 5: 6, 6: 3}","[5, 6, 41]",5663417,Nb7B6C3
V2(B24C)3,mp-1217011,0.0,5.12897714,0.023342010070340535,"{23: 2, 5: 72, 6: 3}","[5, 6, 23]",57263232,V2B72C3
Tb10B7C10,mp-570655,0.0,4.38579245,0.012586354166657543,"{65: 10, 5: 7, 6: 10}","[5, 6, 65]",576106510,Tb10B7C10
B9C,mp-633538,0.0,5.65186708,0.36863818920833324,"{5: 9, 6: 1}","[5, 6]",5961,B9C1
La10(B3C4)3,mp-570357,0.0,8.34487525,0.02084564712902548,"{57: 10, 5: 9, 6: 12}","[5, 6, 57]",596125710,La10B9C12
Ce10(B3C4)3,mp-569274,0.0,8.02927831,0.029056137661289227,"{58: 10, 5: 9, 6: 12}","[5, 6, 58]",596125810,Ce10B9C12
Pr10(B3C4)3,mp-567719,0.0,5.2259319,0.034972193360213844,"{59: 10, 5: 9, 6: 12}","[5, 6, 59]",596125910,Pr10B9C12
Nd10(B3C4)3,mp-571244,0.0,5.15902192,0.03686765932257252,"{60: 10, 5: 9, 6: 12}","[5, 6, 60]",596126010,Nd10B9C12
C,mp-2516584,0.10210000000000008,2.43154306,0.0,{6: 1},[6],61,C1
KC10,mp-16791,0.6087000000000002,3.78690974,0.24748406348484941,"{19: 1, 6: 10}","[6, 19]",610191,K1C10
RbC10,mp-16975,0.6839,3.63670383,0.24402905287878696,"{37: 1, 6: 10}","[6, 37]",610371,Rb1C10
SrC10,mp-17674,0.0,5.88506687,0.23524093272727065,"{38: 1, 6: 10}","[6, 38]",610381,Sr1C10
CsC10,mp-1721,0.7518000000000002,3.85892904,0.24062617060605973,"{55: 1, 6: 10}","[6, 55]",610551,Cs1C10
La(Ho2C5)2,mp-1223298,0.0,5.4166502,0.0804962446666595,"{57: 1, 67: 4, 6: 10}","[6, 57, 67]",610571674,La1Ho4C10
La4DyC10,mp-1223002,0.0,6.88869569,0.037723855977773724,"{57: 4, 66: 1, 6: 10}","[6, 57, 66]",610574661,La4Dy1C10
La4HoC10,mp-1223003,0.0,6.89411895,0.02886574116666285,"{57: 4, 67: 1, 6: 10}","[6, 57, 67]",610574671,La4Ho1C10
Ce4UC10,mp-1227213,0.0,7.7018302,0.07302597633333008,"{58: 4, 92: 1, 6: 10}","[6, 58, 92]",610584921,Ce4U1C10
SmC10,mp-17420,0.0,6.76533709,0.3441268250378773,"{62: 1, 6: 10}","[6, 62]",610621,Sm1C10
EuC10,mp-581000,0.0,6.02533513,0.2533384301515156,"{63: 1, 6: 10}","[6, 63]",610631,Eu1C10
K5Au5C10I2(N5O)2,mp-734296,0.0,-0.27199339,2.014922092819794,"{19: 5, 79: 5, 6: 10, 53: 2, 7: 10, 8: 2}","[6, 7, 8, 19, 53, 79]",61071082195532795,K5Au5C10I2N10O2
Si9C10NO18,mp-1219677,0.00770000000000004,1.27539593,0.5726257269736852,"{14: 9, 6: 10, 7: 1, 8: 18}","[6, 7, 8, 14]",61071818149,Si9C10N1O18
Si3C10NO7,mp-1199602,0.6337999999999999,1.10932924,0.7861568239880965,"{14: 3, 6: 10, 7: 1, 8: 7}","[6, 7, 8, 14]",6107187143,Si3C10N1O7
Ru3C10(NO6)2,mp-680280,0.8049000000000002,0.19432532,0.2882252721296297,"{44: 3, 6: 10, 7: 2, 8: 12}","[6, 7, 8, 44]",61072812443,Ru3C10N2O12
C10I3N4,mp-1202855,0.0,0.96588922,0.9464667449999995,"{6: 10, 53: 3, 7: 4}","[6, 7, 53]",61074533,C10I3N4
Os3C10SO10,mp-621927,2.8238000000000003,-0.62865793,0.18528287635416696,"{76: 3, 6: 10, 16: 1, 8: 10}","[6, 8, 16, 76]",610810161763,Os3C10S1O10
Cr2AsC10ClO10,mp-705033,1.3894000000000002,-0.79760159,0.5381666743749953,"{24: 2, 33: 1, 6: 10, 17: 1, 8: 10}","[6, 8, 17, 24, 33]",610810171242331,Cr2As1C10Cl1O10
Mn2InC10ClO10,mp-683791,2.454,0.23368522,0.5681448196354113,"{25: 2, 49: 1, 6: 10, 17: 1, 8: 10}","[6, 8, 17, 25, 49]",610810171252491,Mn2In1C10Cl1O10
InRe2C10ClO10,mp-651806,3.4859,2.3716298,0.23045711249999812,"{49: 1, 75: 2, 6: 10, 17: 1, 8: 10}","[6, 8, 17, 49, 75]",610810171491752,In1Re2C10Cl1O10
Mn2SnC10(ClO5)2,mp-637244,2.6858,-0.41172448,0.5309366588999929,"{25: 2, 50: 1, 6: 10, 17: 2, 8: 10}","[6, 8, 17, 25, 50]",610810172252501,Mn2Sn1C10Cl2O10
Re2SnC10(ClO5)2,mp-652791,0.12529999999999997,-0.72686972,0.8033103566000017,"{75: 2, 50: 1, 6: 10, 17: 2, 8: 10}","[6, 8, 17, 50, 75]",610810172501752,Re2Sn1C10Cl2O10
MnRe(CO)10,mp-1221941,2.5136000000000003,-1.02635443,0.42141209943181757,"{25: 1, 75: 1, 6: 10, 8: 10}","[6, 8, 25, 75]",610810251751,Mn1Re1C10O10
Mn2InC10BrO10,mp-683668,2.5023,0.05670222,0.5662154200520773,"{25: 2, 49: 1, 6: 10, 35: 1, 8: 10}","[6, 8, 25, 35, 49]",610810252351491,Mn2In1C10Br1O10
Mn2SnC10BrO10,mp-705194,2.9556,-0.09035954,0.5866902285937439,"{25: 2, 50: 1, 6: 10, 35: 1, 8: 10}","[6, 8, 25, 35, 50]",610810252351501,Mn2Sn1C10Br1O10
Mn2SnC10(BrO5)2,mp-637502,2.4829,-0.57077823,0.5367429751999966,"{25: 2, 50: 1, 6: 10, 35: 2, 8: 10}","[6, 8, 25, 35, 50]",610810252352501,Mn2Sn1C10Br2O10
Mn2InC10IO10,mp-683652,2.1914000000000002,0.28267211,0.5642671489756887,"{25: 2, 49: 1, 6: 10, 53: 1, 8: 10}","[6, 8, 25, 49, 53]",610810252491531,Mn2In1C10I1O10
Mn2Hg(CO)10,mp-836207,2.9755000000000003,-0.35155039,0.5673196616304308,"{25: 2, 80: 1, 6: 10, 8: 10}","[6, 8, 25, 80]",610810252801,Mn2Hg1C10O10
Co3Ge(CO)10,mp-645902,1.9585,-0.65702554,0.45176667586805497,"{27: 3, 32: 1, 6: 10, 8: 10}","[6, 8, 27, 32]",610810273321,Co3Ge1C10O10
GeW2C10(BrO5)2,mp-704542,2.1802,-0.87264763,0.4949345526750051,"{32: 1, 74: 2, 6: 10, 35: 2, 8: 10}","[6, 8, 32, 35, 74]",610810321352742,Ge1W2C10Br2O10
InRe2C10BrO10,mp-651750,3.2816,2.26134622,0.22896534203124652,"{49: 1, 75: 2, 6: 10, 35: 1, 8: 10}","[6, 8, 35, 49, 75]",610810351491752,In1Re2C10Br1O10
Os3C10(BrO5)2,mp-680415,0.2111,-0.24713725,0.4450627138500014,"{76: 3, 6: 10, 35: 2, 8: 10}","[6, 8, 35, 76]",610810352763,Os3C10Br2O10
Os2Pt(CO)10,mp-615529,2.5877,-0.5584565,0.2216228483695648,"{76: 2, 78: 1, 6: 10, 8: 10}","[6, 8, 76, 78]",610810762781,Os2Pt1C10O10
Os3(CO)10,mp-1199357,0.2799,-0.45978358,0.32402429097826335,"{76: 3, 6: 10, 8: 10}","[6, 8, 76]",610810763,Os3C10O10
Os3C10O11,mp-726426,1.6394,-0.70849737,0.2696845728645858,"{76: 3, 6: 10, 8: 11}","[6, 8, 76]",610811763,Os3C10O11
Cs6Mo4C10S2O27,mp-1204705,0.0756,-0.01232542,0.1814925826020426,"{55: 6, 42: 4, 6: 10, 16: 2, 8: 27}","[6, 8, 16, 42, 55]",610827162424556,Cs6Mo4C10S2O27
Ce4C10O31,mp-1228140,1.0241,-0.15046793,0.6571277952777788,"{58: 4, 6: 10, 8: 31}","[6, 8, 58]",610831584,Ce4C10O31
C10S(Cl4O)3,mp-1214681,3.3273,-0.38737952,0.18286118904532866,"{6: 10, 16: 1, 17: 12, 8: 3}","[6, 8, 16, 17]",610831611712,C10S1Cl12O3
Cr(C5O2)2,mp-1182495,0.9299000000000002,-2.41355837,1.4556271934583336,"{24: 1, 6: 10, 8: 4}","[6, 8, 24]",61084241,Cr1C10O4
Ru2C10S5Cl4O5,mp-1179746,0.4274,-1.86055841,1.3596468808722522,"{44: 2, 6: 10, 16: 5, 17: 4, 8: 5}","[6, 8, 16, 17, 44]",61085165174442,Ru2C10S5Cl4O5
Co3C10ClO9,mp-562584,2.1077,-1.43665303,0.4629516795380404,"{27: 3, 6: 10, 17: 1, 8: 9}","[6, 8, 17, 27]",61089171273,Co3C10Cl1O9
Co3C10O9,mp-647768,1.5321000000000002,-0.52680777,0.4843154284469673,"{27: 3, 6: 10, 8: 9}","[6, 8, 27]",61089273,Co3C10O9
Ru3C10I2O9,mp-707821,1.9706,0.38328617,0.2847234811979158,"{44: 3, 6: 10, 53: 2, 8: 9}","[6, 8, 44, 53]",61089443532,Ru3C10I2O9
C10F3,mp-647169,2.127,0.50246507,0.3236002851121764,"{6: 10, 9: 3}","[6, 9]",61093,C10F3
NaC,mp-1267,3.3844,-0.52088126,0.24106195618534443,"{11: 1, 6: 1}","[6, 11]",61111,Na1C1
NaMg14C,mp-1026713,0.0,3.54040082,0.2736767806950433,"{11: 1, 12: 14, 6: 1}","[6, 11, 12]",611111214,Na1Mg14C1
NaMg6C,mp-1098256,0.0,2.5316724,0.3893149201400865,"{11: 1, 12: 6, 6: 1}","[6, 11, 12]",61111126,Na1Mg6C1
NaW6CCl18,mp-567182,0.1048,2.13295179,0.0,"{11: 1, 74: 6, 6: 1, 17: 18}","[6, 11, 17, 74]",611111718746,Na1W6C1Cl18
Na2C,mp-1210274,0.0,0.58932312,1.2865880732471262,"{11: 2, 6: 1}","[6, 11]",61112,Na2C1
Na2CS3,mp-28810,1.215,1.63977712,0.0949059670833341,"{11: 2, 6: 1, 16: 3}","[6, 11, 16]",61112163,Na2C1S3
RbNa2C,mp-1209600,0.0,1.06417997,1.3484946087634697,"{37: 1, 11: 2, 6: 1}","[6, 11, 37]",61112371,Rb1Na2C1
Na3C,mp-977200,0.0,1.87769119,1.0789091395905168,"{11: 3, 6: 1}","[6, 11]",61113,Na3C1
La11C11Cl7,mp-571523,0.0,7.61590803,0.052464834655171266,"{57: 11, 6: 11, 17: 7}","[6, 17, 57]",6111775711,La11C11Cl7
Pr11C11Cl7,mp-1204834,0.0,4.88012866,0.008257090172415715,"{59: 11, 6: 11, 17: 7}","[6, 17, 59]",6111775911,Pr11C11Cl7
MgC,mp-1185851,0.0,5.88788066,1.25129138375,"{12: 1, 6: 1}","[6, 12]",61121,Mg1C1
MgCo3C,mp-20424,0.0,5.14843556,0.0,"{12: 1, 27: 3, 6: 1}","[6, 12, 27]",61121273,Mg1Co3C1
Mg14AlC,mp-1028322,0.0,3.81125244,0.28392504988281275,"{12: 14, 13: 1, 6: 1}","[6, 12, 13]",611214131,Mg14Al1C1
Mg14SiC,mp-1026800,0.0,3.75839643,0.2105867791085525,"{12: 14, 14: 1, 6: 1}","[6, 12, 14]",611214141,Mg14Si1C1
KMg14C,mp-1026853,0.0,3.27643767,0.3340104246035158,"{19: 1, 12: 14, 6: 1}","[6, 12, 19]",611214191,K1Mg14C1
CaMg14C,mp-1028169,0.0,3.41012555,0.2447049498437499,"{20: 1, 12: 14, 6: 1}","[6, 12, 20]",611214201,Ca1Mg14C1
Mg14TiC,mp-1026445,0.0,3.72462907,0.41652704750000025,"{12: 14, 22: 1, 6: 1}","[6, 12, 22]",611214221,Mg14Ti1C1
Mg14VC,mp-1028335,0.0,3.71275965,0.4126175709288198,"{12: 14, 23: 1, 6: 1}","[6, 12, 23]",611214231,Mg14V1C1
Mg14CrC,mp-1026556,0.0,3.67921136,0.3474710434374999,"{12: 14, 24: 1, 6: 1}","[6, 12, 24]",611214241,Mg14Cr1C1
Mg14MnC,mp-1028143,0.0,3.45552256,0.25679028571331575,"{12: 14, 25: 1, 6: 1}","[6, 12, 25]",611214251,Mg14Mn1C1
Mg14CoC,mp-1028405,0.0,3.56922346,0.22801125729166705,"{12: 14, 27: 1, 6: 1}","[6, 12, 27]",611214271,Mg14Co1C1
Mg14ZnC,mp-1028019,0.0,3.40288801,0.20306300888124995,"{12: 14, 30: 1, 6: 1}","[6, 12, 30]",611214301,Mg14Zn1C1
Mg14GaC,mp-1026540,0.0,3.5064656,0.19777227734375025,"{12: 14, 31: 1, 6: 1}","[6, 12, 31]",611214311,Mg14Ga1C1
RbMg14C,mp-1026737,0.0,3.06776321,0.3586821511132814,"{37: 1, 12: 14, 6: 1}","[6, 12, 37]",611214371,Rb1Mg14C1
SrMg14C,mp-1026595,0.0,3.27892822,0.28137352458333353,"{38: 1, 12: 14, 6: 1}","[6, 12, 38]",611214381,Sr1Mg14C1
Mg14ZrC,mp-1027990,0.0,3.52599578,0.3453695937500001,"{12: 14, 40: 1, 6: 1}","[6, 12, 40]",611214401,Mg14Zr1C1
Mg14NbC,mp-1026534,0.0,3.73310379,0.412096862109375,"{12: 14, 41: 1, 6: 1}","[6, 12, 41]",611214411,Mg14Nb1C1
Mg14MoC,mp-1026590,0.0,3.56331508,0.2916566472656248,"{12: 14, 42: 1, 6: 1}","[6, 12, 42]",611214421,Mg14Mo1C1
Mg14CdC,mp-1026647,0.0,3.5576685,0.19442114734375027,"{12: 14, 48: 1, 6: 1}","[6, 12, 48]",611214481,Mg14Cd1C1
Mg14SnC,mp-1026734,0.0,3.52795756,0.2334198045312501,"{12: 14, 50: 1, 6: 1}","[6, 12, 50]",611214501,Mg14Sn1C1
Mg14SbC,mp-1026465,0.0,3.65024013,0.27704079378906243,"{12: 14, 51: 1, 6: 1}","[6, 12, 51]",611214511,Mg14Sb1C1
CsMg14C,mp-1026663,0.0,3.24357901,0.38573206384698255,"{55: 1, 12: 14, 6: 1}","[6, 12, 55]",611214551,Cs1Mg14C1
LaMg14C,mp-1026807,0.0,3.8007736,0.2449127895312504,"{57: 1, 12: 14, 6: 1}","[6, 12, 57]",611214571,La1Mg14C1
CeMg14C,mp-1099116,0.0,3.6835946,0.26330051343750016,"{58: 1, 12: 14, 6: 1}","[6, 12, 58]",611214581,Ce1Mg14C1
HfMg14C,mp-1026630,0.0,3.74662142,0.3892686150000002,"{72: 1, 12: 14, 6: 1}","[6, 12, 72]",611214721,Hf1Mg14C1
Mg14WC,mp-1026733,0.0,3.54493178,0.23631201562500026,"{12: 14, 74: 1, 6: 1}","[6, 12, 74]",611214741,Mg14W1C1
Mg14BiC,mp-1098186,0.0,3.41853223,0.2422246299999995,"{12: 14, 83: 1, 6: 1}","[6, 12, 83]",611214831,Mg14Bi1C1
Mg15C,mp-1023497,0.0,3.45831852,0.30555822171875024,"{12: 15, 6: 1}","[6, 12]",611215,Mg15C1
La6Mg23C,mp-1192607,0.0,4.5296269,0.0020467190833328708,"{57: 6, 12: 23, 6: 1}","[6, 12, 57]",611223576,La6Mg23C1
Ce6Mg23C,mp-1192742,0.0,4.25365069,0.0026473311666652677,"{58: 6, 12: 23, 6: 1}","[6, 12, 58]",611223586,Ce6Mg23C1
Pr6Mg23C,mp-1192470,0.0,3.34242342,0.007682831249999911,"{59: 6, 12: 23, 6: 1}","[6, 12, 59]",611223596,Pr6Mg23C1
Nd6Mg23C,mp-1192447,0.0,3.31215361,0.008639248277777511,"{60: 6, 12: 23, 6: 1}","[6, 12, 60]",611223606,Nd6Mg23C1
Sm6Mg23C,mp-1192593,0.0,3.28662116,0.0018669484444435724,"{62: 6, 12: 23, 6: 1}","[6, 12, 62]",611223626,Sm6Mg23C1
Gd6Mg23C,mp-1192643,0.0,3.21469784,0.0,"{64: 6, 12: 23, 6: 1}","[6, 12, 64]",611223646,Gd6Mg23C1
Mg3C,mp-1185780,0.0,3.0191672,0.6046687843749998,"{12: 3, 6: 1}","[6, 12]",61123,Mg3C1
Mg3ZnC,mp-10185,0.0,2.68839861,0.2352944054199999,"{12: 3, 30: 1, 6: 1}","[6, 12, 30]",61123301,Mg3Zn1C1
Mg6AlC,mp-1023365,0.0,4.34844234,0.3636198560156254,"{12: 6, 13: 1, 6: 1}","[6, 12, 13]",61126131,Mg6Al1C1
Mg6SiC,mp-1017356,0.0,4.64188961,0.3999262763421054,"{12: 6, 14: 1, 6: 1}","[6, 12, 14]",61126141,Mg6Si1C1
KMg6C,mp-1021350,0.0,2.66565695,0.3711150598320314,"{19: 1, 12: 6, 6: 1}","[6, 12, 19]",61126191,K1Mg6C1
CaMg6C,mp-1023164,0.0,3.20584995,0.35083122093749974,"{20: 1, 12: 6, 6: 1}","[6, 12, 20]",61126201,Ca1Mg6C1
Mg6TiC,mp-1021374,0.0,3.74107069,0.4028490037500001,"{12: 6, 22: 1, 6: 1}","[6, 12, 22]",61126221,Mg6Ti1C1
Mg6VC,mp-1021449,0.0,4.06936999,0.356272795607639,"{12: 6, 23: 1, 6: 1}","[6, 12, 23]",61126231,Mg6V1C1
Mg6CrC,mp-1016677,0.0,3.75564583,0.2860884874999998,"{12: 6, 24: 1, 6: 1}","[6, 12, 24]",61126241,Mg6Cr1C1
Mg6MnC,mp-1022968,0.0,3.81919952,0.23048903080163097,"{12: 6, 25: 1, 6: 1}","[6, 12, 25]",61126251,Mg6Mn1C1
Mg6CoC,mp-1022051,0.0,3.73811173,0.39873249583333337,"{12: 6, 27: 1, 6: 1}","[6, 12, 27]",61126271,Mg6Co1C1
Mg6ZnC,mp-1022576,0.0,3.79101311,0.2939799808874999,"{12: 6, 30: 1, 6: 1}","[6, 12, 30]",61126301,Mg6Zn1C1
Mg6GaC,mp-1017277,0.0,4.00391977,0.35268380843750036,"{12: 6, 31: 1, 6: 1}","[6, 12, 31]",61126311,Mg6Ga1C1
RbMg6C,mp-1017159,0.0,2.66208749,0.39436617347656266,"{37: 1, 12: 6, 6: 1}","[6, 12, 37]",61126371,Rb1Mg6C1
SrMg6C,mp-1016514,0.0,3.09728219,0.36942147791666624,"{38: 1, 12: 6, 6: 1}","[6, 12, 38]",61126381,Sr1Mg6C1
Mg6ZrC,mp-1022553,0.0,3.02211066,0.4431443125000003,"{12: 6, 40: 1, 6: 1}","[6, 12, 40]",61126401,Mg6Zr1C1
Mg6NbC,mp-1016601,0.0,3.34358379,0.4449213742187501,"{12: 6, 41: 1, 6: 1}","[6, 12, 41]",61126411,Mg6Nb1C1
Mg6MoC,mp-1016666,0.0,3.50736122,0.34136714015624925,"{12: 6, 42: 1, 6: 1}","[6, 12, 42]",61126421,Mg6Mo1C1
Mg6CdC,mp-1017221,0.0,3.75337235,0.3361851990624998,"{12: 6, 48: 1, 6: 1}","[6, 12, 48]",61126481,Mg6Cd1C1
Mg6SnC,mp-1021392,0.0,4.29431484,0.45998677531249976,"{12: 6, 50: 1, 6: 1}","[6, 12, 50]",61126501,Mg6Sn1C1
Mg6SbC,mp-1017117,0.0,4.37255935,0.48224575257812496,"{12: 6, 51: 1, 6: 1}","[6, 12, 51]",61126511,Mg6Sb1C1
CsMg6C,mp-1016556,0.0,2.43597603,0.3954567389439654,"{55: 1, 12: 6, 6: 1}","[6, 12, 55]",61126551,Cs1Mg6C1
LaMg6C,mp-1017459,0.0,4.30560195,0.4464977528124998,"{57: 1, 12: 6, 6: 1}","[6, 12, 57]",61126571,La1Mg6C1
CeMg6C,mp-1100152,0.0,3.37449975,0.30325233437499977,"{58: 1, 12: 6, 6: 1}","[6, 12, 58]",61126581,Ce1Mg6C1
HfMg6C,mp-1017167,0.0,3.11047308,0.4842469775000007,"{72: 1, 12: 6, 6: 1}","[6, 12, 72]",61126721,Hf1Mg6C1
Mg6WC,mp-1017062,0.0,3.45931103,0.6045037568750007,"{12: 6, 74: 1, 6: 1}","[6, 12, 74]",61126741,Mg6W1C1
Mg6BiC,mp-1017172,0.0,4.10311243,0.4398800006249992,"{12: 6, 83: 1, 6: 1}","[6, 12, 83]",61126831,Mg6Bi1C1
Mg7C,mp-1016272,0.0,3.80795888,0.5731259596875002,"{12: 7, 6: 1}","[6, 12]",61127,Mg7C1
AlC,mp-1120783,0.0,0.07192782,0.6194922427291676,"{13: 1, 6: 1}","[6, 13]",61131,Al1C1
Sc2AlC,mp-13070,0.0,4.4679563,0.10086671296874972,"{21: 2, 13: 1, 6: 1}","[6, 13, 21]",61131212,Sc2Al1C1
Sc3AlC,mp-4079,0.0,4.49284498,0.0,"{21: 3, 13: 1, 6: 1}","[6, 13, 21]",61131213,Sc3Al1C1
TiAlVC,mp-1217042,0.0,6.82324494,0.010726406250000764,"{22: 1, 13: 1, 23: 1, 6: 1}","[6, 13, 22, 23]",61131221231,Ti1Al1V1C1
TiNbAlC,mp-1216714,0.0,6.4632619,0.00897464937500203,"{22: 1, 41: 1, 13: 1, 6: 1}","[6, 13, 22, 41]",61131221411,Ti1Nb1Al1C1
TaTiAlC,mp-1217909,0.0,6.87832994,0.0,"{73: 1, 22: 1, 13: 1, 6: 1}","[6, 13, 22, 73]",61131221731,Ta1Ti1Al1C1
Ti2AlC,mp-12990,0.0,6.78520972,0.0,"{22: 2, 13: 1, 6: 1}","[6, 13, 22]",61131222,Ti2Al1C1
Ti3AlC,mp-3271,0.0,6.78068226,0.0,"{22: 3, 13: 1, 6: 1}","[6, 13, 22]",61131223,Ti3Al1C1
AlVCrC,mp-1228847,0.0,7.46922057,0.0013378268750070532,"{13: 1, 23: 1, 24: 1, 6: 1}","[6, 13, 23, 24]",61131231241,Al1V1Cr1C1
NbAlVC,mp-1220371,0.0,6.64652113,0.038975689374993294,"{41: 1, 13: 1, 23: 1, 6: 1}","[6, 13, 23, 41]",61131231411,Nb1Al1V1C1
AlV2C,mp-1025497,0.0,7.13861002,0.0,"{13: 1, 23: 2, 6: 1}","[6, 13, 23]",61131232,Al1V2C1
AlCr2C,mp-9956,0.0,7.77866002,0.0,"{13: 1, 24: 2, 6: 1}","[6, 13, 24]",61131242,Al1Cr2C1
Mn3AlC,mp-4593,0.0,7.07086969,0.0,"{25: 3, 13: 1, 6: 1}","[6, 13, 25]",61131253,Mn3Al1C1
AlCo3C,mp-10037,0.0,7.12479403,0.03139390049999946,"{13: 1, 27: 3, 6: 1}","[6, 13, 27]",61131273,Al1Co3C1
Zr2AlC,mp-3886,0.0,5.22871888,0.01375619513888715,"{40: 2, 13: 1, 6: 1}","[6, 13, 40]",61131402,Zr2Al1C1
Nb2AlC,mp-996162,0.0,6.21319513,0.0,"{41: 2, 13: 1, 6: 1}","[6, 13, 41]",61131412,Nb2Al1C1
La3AlC,mp-10600,0.0,6.95241671,0.03453017149999926,"{57: 3, 13: 1, 6: 1}","[6, 13, 57]",61131573,La3Al1C1
Ce3AlC,mp-10036,0.0,7.12661914,0.0,"{58: 3, 13: 1, 6: 1}","[6, 13, 58]",61131583,Ce3Al1C1
Pr3AlC,mp-10039,0.0,3.75403595,0.058784596222222874,"{59: 3, 13: 1, 6: 1}","[6, 13, 59]",61131593,Pr3Al1C1
Nd3AlC,mp-571330,0.0,3.60697745,0.026321534000000035,"{60: 3, 13: 1, 6: 1}","[6, 13, 60]",61131603,Nd3Al1C1
Sm3AlC,mp-7144,0.0,3.31135497,0.0026391752500014576,"{62: 3, 13: 1, 6: 1}","[6, 13, 62]",61131623,Sm3Al1C1
Gd3AlC,mp-580539,0.0,3.36124582,0.0,"{64: 3, 13: 1, 6: 1}","[6, 13, 64]",61131643,Gd3Al1C1
Tb3AlC,mp-570822,0.0,3.48254034,0.0,"{65: 3, 13: 1, 6: 1}","[6, 13, 65]",61131653,Tb3Al1C1
Dy3AlC,mp-29676,0.0,3.40966886,0.0,"{66: 3, 13: 1, 6: 1}","[6, 13, 66]",61131663,Dy3Al1C1
Ho3AlC,mp-29677,0.0,3.35958985,0.0,"{67: 3, 13: 1, 6: 1}","[6, 13, 67]",61131673,Ho3Al1C1
Er3AlC,mp-568021,0.0,3.42219397,0.0,"{68: 3, 13: 1, 6: 1}","[6, 13, 68]",61131683,Er3Al1C1
Tm3AlC,mp-574239,0.0,1.60933591,1.8242066654999998,"{69: 3, 13: 1, 6: 1}","[6, 13, 69]",61131693,Tm3Al1C1
Lu3AlC,mp-1206894,0.0,3.48462365,0.0,"{71: 3, 13: 1, 6: 1}","[6, 13, 71]",61131713,Lu3Al1C1