formula,material_id,band_gap,efermi,energy_above_hull,comp_atoms,sorted_keys_comp_atoms,comp_number,new_formula
CsSi2H18C6N,mp-1199473,2.8221,-0.46324125,0.02507514221498308,"{55: 1, 14: 2, 1: 18, 6: 6, 7: 1}","[1, 6, 7, 14, 55]",1186671142551,Cs1Si2H18C6N1
CrCoH18(CN2)6,mp-24376,1.8356,-1.04774447,0.12469927613486576,"{24: 1, 27: 1, 1: 18, 6: 6, 7: 12}","[1, 6, 7, 24, 27]",11866712241271,Cr1Co1H18C6N12
MnCoH18(CN2)6,mp-510728,0.13129999999999997,-0.63594342,0.10474142192433966,"{25: 1, 27: 1, 1: 18, 6: 6, 7: 12}","[1, 6, 7, 25, 27]",11866712251271,Mn1Co1H18C6N12
SnH18C6Br3N,mp-571553,3.4837,-1.28188975,0.11151518357758583,"{50: 1, 1: 18, 6: 6, 35: 3, 7: 1}","[1, 6, 7, 35, 50]",1186671353501,Sn1H18C6Br3N1
Sb3H18C6N,mp-761898,3.3794,-0.20865781,0.17467888296875067,"{51: 3, 1: 18, 6: 6, 7: 1}","[1, 6, 7, 51]",1186671513,Sb3H18C6N1
Mo2AsH18C6NO12,mp-729102,2.7111,2.22956931,0.6372064224249936,"{42: 2, 33: 1, 1: 18, 6: 6, 7: 1, 8: 12}","[1, 6, 7, 8, 33, 42]",1186671812331422,Mo2As1H18C6N1O12
Mo2H18C6NClO7,mp-1203951,3.1916,1.2864576,0.22773816778571554,"{42: 2, 1: 18, 6: 6, 7: 1, 17: 1, 8: 7}","[1, 6, 7, 8, 17, 42]",118667187171422,Mo2H18C6N1Cl1O7
PH18C6NF4,mp-1196078,5.3271,2.42762865,0.0849530029040162,"{15: 1, 1: 18, 6: 6, 7: 1, 9: 4}","[1, 6, 7, 9, 15]",118667194151,P1H18C6N1F4
AlH18C6N2Cl3,mp-1197837,5.384399999999999,-2.50313586,0.10893424287499354,"{13: 1, 1: 18, 6: 6, 7: 2, 17: 3}","[1, 6, 7, 13, 17]",1186672131173,Al1H18C6N2Cl3
TaSi2PH18C6(NCl3)2,mp-568259,3.1119,-1.60466793,0.08596839092013653,"{73: 1, 14: 2, 15: 1, 1: 18, 6: 6, 7: 2, 17: 6}","[1, 6, 7, 14, 15, 17, 73]",1186672142151176731,Ta1Si2P1H18C6N2Cl6
H18PbC6S4N2O9,mp-559034,4.9717,-0.80681652,0.2970400983214292,"{1: 18, 82: 1, 6: 6, 16: 4, 7: 2, 8: 9}","[1, 6, 7, 8, 16, 82]",118667289164821,H18Pb1C6S4N2O9
TiAsH18C6N3Cl4,mp-1203989,1.9546000000000001,-0.90440689,0.16292581946212525,"{22: 1, 33: 1, 1: 18, 6: 6, 7: 3, 17: 4}","[1, 6, 7, 17, 22, 33]",1186673174221331,Ti1As1H18C6N3Cl4
PH18C6N3O,mp-777777,3.7876000000000003,-0.53092552,0.12433190577586117,"{15: 1, 1: 18, 6: 6, 7: 3, 8: 1}","[1, 6, 7, 8, 15]",118667381151,P1H18C6N3O1
H18RuC6S3N3ClO3,mp-706304,3.3993,0.35026461,0.33492666509999935,"{1: 18, 44: 1, 6: 6, 16: 3, 7: 3, 17: 1, 8: 3}","[1, 6, 7, 8, 16, 17, 44]",118667383163171441,H18Ru1C6S3N3Cl1O3
H18WC6,mp-1203177,2.7408,-1.64109196,0.2427709736999999,"{1: 18, 74: 1, 6: 6}","[1, 6, 74]",11866741,H18W1C6
Re(H3C)6,mp-1200938,1.0936000000000001,-0.98316133,0.25691112320000187,"{75: 1, 1: 18, 6: 6}","[1, 6, 75]",11866751,Re1H18C6
CoH18C6SO10,mp-744689,1.4335,-0.32255605,0.5412424191435159,"{27: 1, 1: 18, 6: 6, 16: 1, 8: 10}","[1, 6, 8, 16, 27]",11866810161271,Co1H18C6S1O10
NaMgAlH18(C2O7)3,mp-1198421,3.5646,-1.5557685,0.030750338168400226,"{11: 1, 12: 1, 13: 1, 1: 18, 6: 6, 8: 21}","[1, 6, 8, 11, 12, 13]",11866821111121131,Na1Mg1Al1H18C6O21
H18IrC6S3(ClO)3,mp-1195210,2.6683,-0.99914158,0.2385273732921922,"{1: 18, 77: 1, 6: 6, 16: 3, 17: 3, 8: 3}","[1, 6, 8, 16, 17, 77]",1186683163173771,H18Ir1C6S3Cl3O3
P2H18WC6(ClO2)2,mp-1201006,3.8953,1.88395749,0.06767834188973154,"{15: 2, 1: 18, 74: 1, 6: 6, 17: 2, 8: 4}","[1, 6, 8, 15, 17, 74]",1186684152172741,P2H18W1C6Cl2O4
CrP3H18C6(SO)6,mp-728403,2.5998,-0.33642766,0.11843221523526726,"{24: 1, 15: 3, 1: 18, 6: 6, 16: 6, 8: 6}","[1, 6, 8, 15, 16, 24]",1186686153166241,Cr1P3H18C6S6O6
AsP3H18C6(SO)6,mp-553984,3.4175,-0.6235549,0.12207330107366676,"{33: 1, 15: 3, 1: 18, 6: 6, 16: 6, 8: 6}","[1, 6, 8, 15, 16, 33]",1186686153166331,As1P3H18C6S6O6
P3H18RuC6(SO)6,mp-698364,3.1254999999999997,1.26695361,0.15485341997098345,"{15: 3, 1: 18, 44: 1, 6: 6, 16: 6, 8: 6}","[1, 6, 8, 15, 16, 44]",1186686153166441,P3H18Ru1C6S6O6
P3H18OsC6(SO)6,mp-698354,0.22960000000000003,1.58009416,0.16025237115848423,"{15: 3, 1: 18, 76: 1, 6: 6, 16: 6, 8: 6}","[1, 6, 8, 15, 16, 76]",1186686153166761,P3H18Os1C6S6O6
PH18PtC6S3ClF6,mp-1202301,3.2089,-1.43783727,0.0033565979216305664,"{15: 1, 1: 18, 78: 1, 6: 6, 16: 3, 17: 1, 9: 6}","[1, 6, 9, 15, 16, 17, 78]",1186696151163171781,P1H18Pt1C6S3Cl1F6
PH18PtC6S3BrF6,mp-1204443,3.0185,-1.30814338,0.0,"{15: 1, 1: 18, 78: 1, 6: 6, 16: 3, 35: 1, 9: 6}","[1, 6, 9, 15, 16, 35, 78]",1186696151163351781,P1H18Pt1C6S3Br1F6
Si2H18C7N2,mp-569078,4.5038,-1.98452795,0.113531227857532,"{14: 2, 1: 18, 6: 7, 7: 2}","[1, 6, 7, 14]",1186772142,Si2H18C7N2
UH18C7(N2O3)4,mp-1196270,1.9867000000000001,0.97294119,0.036934934896858174,"{92: 1, 1: 18, 6: 7, 7: 8, 8: 12}","[1, 6, 7, 8, 92]",1186778812921,U1H18C7N8O12
Cd5H18C8N20(Cl2O)2,mp-1215066,2.8508,0.49337782,0.19785309885964875,"{48: 5, 1: 18, 6: 8, 7: 20, 17: 4, 8: 2}","[1, 6, 7, 8, 17, 48]",1186872082174485,Cd5H18C8N20Cl4O2
Co3H18C8(N3O4)2,mp-1195037,1.4389,-0.85220412,0.21488729550387387,"{27: 3, 1: 18, 6: 8, 7: 6, 8: 8}","[1, 6, 7, 8, 27]",118687688273,Co3H18C8N6O8
Cd2H18C8O17,mp-1204115,2.7824999999999998,-0.11424726,0.14481588461110473,"{48: 2, 1: 18, 6: 8, 8: 17}","[1, 6, 8, 48]",11868817482,Cd2H18C8O17
GaCoPH18C9NCl2O3,mp-562835,3.327,-1.34089831,0.19156667842923447,"{31: 1, 27: 1, 15: 1, 1: 18, 6: 9, 7: 1, 17: 2, 8: 3}","[1, 6, 7, 8, 15, 17, 27, 31]",118697183151172271311,Ga1Co1P1H18C9N1Cl2O3
TeH18C9S6N3Cl,mp-1198652,2.8664,0.01924053,0.13975251400689181,"{52: 1, 1: 18, 6: 9, 16: 6, 7: 3, 17: 1}","[1, 6, 7, 16, 17, 52]",1186973166171521,Te1H18C9S6N3Cl1
NaH18C9I(NO)3,mp-720100,0.16620000000000001,-0.92071831,0.5874953608452405,"{11: 1, 1: 18, 6: 9, 53: 1, 7: 3, 8: 3}","[1, 6, 7, 8, 11, 53]",118697383111531,Na1H18C9I1N3O3
CoB10H19C11,mp-1195847,1.7185,1.15596333,0.14230241243902597,"{27: 1, 5: 10, 1: 19, 6: 11}","[1, 5, 6, 27]",119510611271,Co1B10H19C11
H19PbC15S2N3O5,mp-1200727,2.1135,-0.03717511,0.23692734343333477,"{1: 19, 82: 1, 6: 15, 16: 2, 7: 3, 8: 5}","[1, 6, 7, 8, 16, 82]",1196157385162821,H19Pb1C15S2N3O5
Zn2P3H19C4(NO6)2,mp-535004,4.8409,-0.63418259,0.03281538482141677,"{30: 2, 15: 3, 1: 19, 6: 4, 7: 2, 8: 12}","[1, 6, 7, 8, 15, 30]",1196472812153302,Zn2P3H19C4N2O12
P2H19C6I2NCl4,mp-567256,2.1525000000000003,-0.04277416,0.05652323737132203,"{15: 2, 1: 19, 6: 6, 53: 2, 7: 1, 17: 4}","[1, 6, 7, 15, 17, 53]",1196671152174532,P2H19C6I2N1Cl4
P2H19C6I7N,mp-1196394,1.5585,0.57465263,0.0,"{15: 2, 1: 19, 6: 6, 53: 7, 7: 1}","[1, 6, 7, 15, 53]",1196671152537,P2H19C6I7N1
MnH19C6I3N2,mp-738687,2.0021,-0.19627604,0.15401889693811377,"{25: 1, 1: 19, 6: 6, 53: 3, 7: 2}","[1, 6, 7, 25, 53]",1196672251533,Mn1H19C6I3N2
TiH19C6N3Cl2,mp-1202903,2.4623999999999997,-1.62086735,0.14046563905241793,"{22: 1, 1: 19, 6: 6, 7: 3, 17: 2}","[1, 6, 7, 17, 22]",1196673172221,Ti1H19C6N3Cl2
H19C6N3ClO2,mp-1200968,4.468,-1.84402006,0.11431318062499862,"{1: 19, 6: 6, 7: 3, 17: 1, 8: 2}","[1, 6, 7, 8, 17]",119667382171,H19C6N3Cl1O2
H19C6S2(NO2)5,mp-1203194,3.3494,-1.16874794,0.4434029028259632,"{1: 19, 6: 6, 16: 2, 7: 5, 8: 10}","[1, 6, 7, 8, 16]",1196675810162,H19C6S2N5O10
H19C6N7O4,mp-1203308,4.7942,3.02796724,0.048052987291666405,"{1: 19, 6: 6, 7: 7, 8: 4}","[1, 6, 7, 8]",119667784,H19C6N7O4
InSi2H19C7Br2,mp-1202311,3.1192,-2.07268268,0.043322181035443386,"{49: 1, 14: 2, 1: 19, 6: 7, 35: 2}","[1, 6, 14, 35, 49]",11967142352491,In1Si2H19C7Br2
GaH19C8,mp-605088,3.558,-1.4465701,0.09218321597470247,"{31: 1, 1: 19, 6: 8}","[1, 6, 31]",11968311,Ga1H19C8
B2PH20C5N,mp-1203791,5.0846,2.29736615,0.1466408858620687,"{5: 2, 15: 1, 1: 20, 6: 5, 7: 1}","[1, 5, 6, 7, 15]",120526571151,B2P1H20C5N1
B2H20C6N3Cl5,mp-1204652,0.4334,-1.25955246,0.20828474451388868,"{5: 2, 1: 20, 6: 6, 7: 3, 17: 5}","[1, 5, 6, 7, 17]",120526673175,B2H20C6N3Cl5
B3H20(CN)3,mp-1199209,5.413600000000001,2.29797158,0.1552344464655171,"{5: 3, 1: 20, 6: 3, 7: 3}","[1, 5, 6, 7]",120536373,B3H20C3N3
AlZnB5H20C5(NO2)5,mp-1195233,4.5107,-0.42425283,0.03833972647606476,"{13: 1, 30: 1, 5: 5, 1: 20, 6: 5, 7: 5, 8: 10}","[1, 5, 6, 7, 8, 13, 30]",120556575810131301,Al1Zn1B5H20C5N5O10
Na2H20CO13,mp-699482,5.2775,-1.56387856,0.01416594980323449,"{11: 2, 1: 20, 6: 1, 8: 13}","[1, 6, 8, 11]",12061813112,Na2H20C1O13
MnH20C22(N5O3)2,mp-1202611,0.9573999999999999,0.94660094,0.40058245258474656,"{25: 1, 1: 20, 6: 22, 7: 10, 8: 6}","[1, 6, 7, 8, 25]",12062271086251,Mn1H20C22N10O6
CoH20C22(N5O3)2,mp-1204304,2.5675999999999997,1.45828161,0.3902482326129961,"{27: 1, 1: 20, 6: 22, 7: 10, 8: 6}","[1, 6, 7, 8, 27]",12062271086271,Co1H20C22N10O6
AlH20C2S2NO14,mp-708992,5.595599999999999,-1.30185283,0.0808425065170475,"{13: 1, 1: 20, 6: 2, 16: 2, 7: 1, 8: 14}","[1, 6, 7, 8, 13, 16]",1206271814131162,Al1H20C2S2N1O14
GaH20C2S2NO14,mp-554951,4.8359,-1.5740491,0.08469353974431915,"{31: 1, 1: 20, 6: 2, 16: 2, 7: 1, 8: 14}","[1, 6, 7, 8, 16, 31]",1206271814162311,Ga1H20C2S2N1O14
MnH20C2S2(NO2)6,mp-1201200,4.7606,-0.29376975,0.0327855299988995,"{25: 1, 1: 20, 6: 2, 16: 2, 7: 6, 8: 12}","[1, 6, 7, 8, 16, 25]",1206276812162251,Mn1H20C2S2N6O12
CdH20C2S2(NO2)6,mp-1204215,4.4107,3.63887272,0.04245622061627152,"{48: 1, 1: 20, 6: 2, 16: 2, 7: 6, 8: 12}","[1, 6, 7, 8, 16, 48]",1206276812162481,Cd1H20C2S2N6O12
VH20C2S2N6O13,mp-727288,3.0467,-0.58855575,0.06329760494318037,"{23: 1, 1: 20, 6: 2, 16: 2, 7: 6, 8: 13}","[1, 6, 7, 8, 16, 23]",1206276813162231,V1H20C2S2N6O13
H20C3(N2O5)2,mp-766262,4.7128,-0.70245911,0.0065718615540486525,"{1: 20, 6: 3, 7: 4, 8: 10}","[1, 6, 7, 8]",1206374810,H20C3N4O10
H20RhC3N9Cl6O,mp-1198867,1.4438,1.29124958,0.017664870569442215,"{1: 20, 45: 1, 6: 3, 7: 9, 17: 6, 8: 1}","[1, 6, 7, 8, 17, 45]",120637981176451,H20Rh1C3N9Cl6O1
MgH20C4(N5O6)2,mp-1201659,3.4129,2.06613537,0.1300256937234039,"{12: 1, 1: 20, 6: 4, 7: 10, 8: 12}","[1, 6, 7, 8, 12]",12064710812121,Mg1H20C4N10O12
CoH20C4(N5O6)2,mp-1214088,2.616,1.39611001,0.15446162329787239,"{27: 1, 1: 20, 6: 4, 7: 10, 8: 12}","[1, 6, 7, 8, 27]",12064710812271,Co1H20C4N10O12
ZnH20C4(N5O6)2,mp-1198633,3.4283,2.00825443,0.13966716170213367,"{30: 1, 1: 20, 6: 4, 7: 10, 8: 12}","[1, 6, 7, 8, 30]",12064710812301,Zn1H20C4N10O12
Ta3H20C4Br8NO4,mp-1199657,1.4781,0.78533262,0.16243055429374564,"{73: 3, 1: 20, 6: 4, 35: 8, 7: 1, 8: 4}","[1, 6, 7, 8, 35, 73]",120647184358733,Ta3H20C4Br8N1O4
Zn3P4H20C4(NO6)2,mp-1201966,4.9205000000000005,3.51204122,0.06559844819444205,"{30: 3, 15: 4, 1: 20, 6: 4, 7: 2, 8: 12}","[1, 6, 7, 8, 15, 30]",1206472812154303,Zn3P4H20C4N2O12
CaH20C4S4(NO6)2,mp-24272,5.6987,-1.41778886,0.22371487803155965,"{20: 1, 1: 20, 6: 4, 16: 4, 7: 2, 8: 12}","[1, 6, 7, 8, 16, 20]",1206472812164201,Ca1H20C4S4N2O12
CdH20C4S4(NO6)2,mp-24273,4.837,-1.29099409,0.24822320916943497,"{48: 1, 1: 20, 6: 4, 16: 4, 7: 2, 8: 12}","[1, 6, 7, 8, 16, 48]",1206472812164481,Cd1H20C4S4N2O12
MnTe2H20(CN)4,mp-1198837,0.9299,1.40615102,0.072173082903225,"{25: 1, 52: 2, 1: 20, 6: 4, 7: 4}","[1, 6, 7, 25, 52]",1206474251522,Mn1Te2H20C4N4
MgZnH20PtC4(NO3)4,mp-1233282,1.2155,0.76042664,0.12504298691863447,"{12: 1, 30: 1, 1: 20, 78: 1, 6: 4, 7: 4, 8: 12}","[1, 6, 7, 8, 12, 30, 78]",1206474812121301781,Mg1Zn1H20Pt1C4N4O12
CoH20PtC4(NO3)4,mp-1197411,3.026,-0.53241335,0.0484559426190474,"{27: 1, 1: 20, 78: 1, 6: 4, 7: 4, 8: 12}","[1, 6, 7, 8, 27, 78]",1206474812271781,Co1H20Pt1C4N4O12
ZnH20PdC4(NO3)4,mp-1196037,3.0881,1.92901804,0.058559239047620615,"{30: 1, 1: 20, 46: 1, 6: 4, 7: 4, 8: 12}","[1, 6, 7, 8, 30, 46]",1206474812301461,Zn1H20Pd1C4N4O12
ZnH20PtC4(NO3)4,mp-1199354,3.0854,2.32488411,0.05548816785714372,"{30: 1, 1: 20, 78: 1, 6: 4, 7: 4, 8: 12}","[1, 6, 7, 8, 30, 78]",1206474812301781,Zn1H20Pt1C4N4O12
MgP2H20C4(N2O3)4,mp-504807,5.0476,-0.25699958,0.024733501245061795,"{12: 1, 15: 2, 1: 20, 6: 4, 7: 8, 8: 12}","[1, 6, 7, 8, 12, 15]",1206478812121152,Mg1P2H20C4N8O12
CaP2H20C4(N2O3)4,mp-540920,4.984500000000001,-0.64736157,0.022963447667861736,"{20: 1, 15: 2, 1: 20, 6: 4, 7: 8, 8: 12}","[1, 6, 7, 8, 15, 20]",1206478812152201,Ca1P2H20C4N8O12
ThH20C4S2N8O15,mp-707467,0.4196,-0.94756127,0.11674839178612206,"{90: 1, 1: 20, 6: 4, 16: 2, 7: 8, 8: 15}","[1, 6, 7, 8, 16, 90]",1206478815162901,Th1H20C4S2N8O15
MgH20C4Br2(N4O3)2,mp-703426,1.5996000000000001,-0.82358963,0.6873460973170893,"{12: 1, 1: 20, 6: 4, 35: 2, 7: 8, 8: 6}","[1, 6, 7, 8, 12, 35]",120647886121352,Mg1H20C4Br2N8O6
CoH20C4SO10,mp-1200270,2.5478,-1.24451173,0.20410290329860992,"{27: 1, 1: 20, 6: 4, 16: 1, 8: 10}","[1, 6, 8, 16, 27]",12064810161271,Co1H20C4S1O10
Nb3H20C5Cl7O5,mp-1202280,1.1763000000000001,0.43363882,0.1551424262343799,"{41: 3, 1: 20, 6: 5, 17: 7, 8: 5}","[1, 6, 8, 17, 41]",1206585177413,Nb3H20C5Cl7O5
H20RuC6NO14,mp-709027,0.6910000000000001,-0.10420456,0.10464138933035727,"{1: 20, 44: 1, 6: 6, 7: 1, 8: 14}","[1, 6, 7, 8, 44]",1206671814441,H20Ru1C6N1O14
HgH20C6(NCl2)2,mp-1197209,3.2998000000000003,-2.06374751,0.08245727393939184,"{80: 1, 1: 20, 6: 6, 7: 2, 17: 4}","[1, 6, 7, 17, 80]",1206672174801,Hg1H20C6N2Cl4
SnH20C6(NCl3)2,mp-570348,2.9572000000000003,-1.67981042,0.07160269578571388,"{50: 1, 1: 20, 6: 6, 7: 2, 17: 6}","[1, 6, 7, 17, 50]",1206672176501,Sn1H20C6N2Cl6
TeH20C6(NCl3)2,mp-570177,3.1535,-1.25795101,0.06089049053571216,"{52: 1, 1: 20, 6: 6, 7: 2, 17: 6}","[1, 6, 7, 17, 52]",1206672176521,Te1H20C6N2Cl6
TaH20C6N3Cl4,mp-571507,2.7556000000000003,-0.80472026,0.1007732660130749,"{73: 1, 1: 20, 6: 6, 7: 3, 17: 4}","[1, 6, 7, 17, 73]",1206673174731,Ta1H20C6N3Cl4
SnH20C7IN,mp-1203750,3.3954,-0.9802816,0.13916014916666608,"{50: 1, 1: 20, 6: 7, 53: 1, 7: 1}","[1, 6, 7, 50, 53]",1206771501531,Sn1H20C7I1N1
MoH20C7NClO6,mp-1200340,2.6576,1.74094994,0.3023106075347224,"{42: 1, 1: 20, 6: 7, 7: 1, 17: 1, 8: 6}","[1, 6, 7, 8, 17, 42]",120677186171421,Mo1H20C7N1Cl1O6
Mo3H20C8S13N2,mp-1221927,0.0,1.62392393,0.3029910158229834,"{42: 3, 1: 20, 6: 8, 16: 13, 7: 2}","[1, 6, 7, 16, 42]",12068721613423,Mo3H20C8S13N2
TiH20C8(NF3)2,mp-1217199,1.8836,-1.8678063,0.3564732395270269,"{22: 1, 1: 20, 6: 8, 7: 2, 9: 6}","[1, 6, 7, 9, 22]",120687296221,Ti1H20C8N2F6
CoB10H21(C6Cl)2,mp-1196618,1.7155,0.41272489,0.16604294567632838,"{27: 1, 5: 10, 1: 21, 6: 12, 17: 2}","[1, 5, 6, 17, 27]",121510612172271,Co1B10H21C12Cl2
CoB10(H7C4)3,mp-1204917,1.7818999999999998,0.66609894,0.13212410298295474,"{27: 1, 5: 10, 1: 21, 6: 12}","[1, 5, 6, 27]",121510612271,Co1B10H21C12
B12H21C4S2I,mp-849805,4.1333,-0.56023373,0.03678218095486496,"{5: 12, 1: 21, 6: 4, 16: 2, 53: 1}","[1, 5, 6, 16, 53]",12151264162531,B12H21C4S2I1
AlZnB5H21C6(NO2)5,mp-1195904,4.6496,4.44748445,0.04074992349490092,"{13: 1, 30: 1, 5: 5, 1: 21, 6: 6, 7: 5, 8: 10}","[1, 5, 6, 7, 8, 13, 30]",121556675810131301,Al1Zn1B5H21C6N5O10
B6H21C5N2O,mp-560159,4.4939,-1.70449095,0.22217915099851382,"{5: 6, 1: 21, 6: 5, 7: 2, 8: 1}","[1, 5, 6, 7, 8]",12156657281,B6H21C5N2O1
CoH21C2N6Cl2O5,mp-603406,0.5487,-0.17809956,0.03543881103603752,"{27: 1, 1: 21, 6: 2, 7: 6, 17: 2, 8: 5}","[1, 6, 7, 8, 17, 27]",121627685172271,Co1H21C2N6Cl2O5
AlH21C3(SO5)3,mp-1201938,5.3382,-1.00554828,0.12029183463455251,"{13: 1, 1: 21, 6: 3, 16: 3, 8: 15}","[1, 6, 8, 13, 16]",12163815131163,Al1H21C3S3O15
H21C6N2Cl3,mp-759161,5.2189,-1.74688287,0.0870145202343755,"{1: 21, 6: 6, 7: 2, 17: 3}","[1, 6, 7, 17]",1216672173,H21C6N2Cl3
SiH21C6N2OF5,mp-849790,6.7652,-1.21207087,0.11860101049768268,"{14: 1, 1: 21, 6: 6, 7: 2, 8: 1, 9: 5}","[1, 6, 7, 8, 9, 14]",12166728195141,Si1H21C6N2O1F5
Sn2H21C6ClO2,mp-605078,2.8846999999999996,-0.45054808,0.288513712280273,"{50: 2, 1: 21, 6: 6, 17: 1, 8: 2}","[1, 6, 8, 17, 50]",1216682171502,Sn2H21C6Cl1O2
MnH21C7S3N,mp-557785,1.4871000000000003,0.55568185,0.11659036104545262,"{25: 1, 1: 21, 6: 7, 16: 3, 7: 1}","[1, 6, 7, 16, 25]",1216771163251,Mn1H21C7S3N1
SnH21C7S4N(O3F)2,mp-554187,4.7629,-1.15147343,0.3251568619727827,"{50: 1, 1: 21, 6: 7, 16: 4, 7: 1, 8: 6, 9: 2}","[1, 6, 7, 8, 9, 16, 50]",12167718692164501,Sn1H21C7S4N1O6F2
TeH21C7(NCl2)3,mp-600198,2.945,-0.98166278,0.1063685921847588,"{52: 1, 1: 21, 6: 7, 7: 3, 17: 6}","[1, 6, 7, 17, 52]",1216773176521,Te1H21C7N3Cl6
H21C7S3N3O8,mp-1200273,3.4663,-0.29636964,0.2980632779166683,"{1: 21, 6: 7, 16: 3, 7: 3, 8: 8}","[1, 6, 7, 8, 16]",121677388163,H21C7S3N3O8
VH21C7N4Cl7,mp-710509,3.9156000000000004,1.39242856,0.2876898995468755,"{23: 1, 1: 21, 6: 7, 7: 4, 17: 7}","[1, 6, 7, 17, 23]",1216774177231,V1H21C7N4Cl7
H21OsC9NO7,mp-709068,2.0118,-0.79105448,0.26044214458333403,"{1: 21, 76: 1, 6: 9, 7: 1, 8: 7}","[1, 6, 7, 8, 76]",121697187761,H21Os1C9N1O7
P3H21C9S2(OF)6,mp-1194856,3.9067,-1.35462932,0.2821054009370183,"{15: 3, 1: 21, 6: 9, 16: 2, 8: 6, 9: 6}","[1, 6, 8, 9, 15, 16]",121698696153162,P3H21C9S2O6F6
Mg2B4H22C2S,mp-1202789,5.0333000000000006,-2.02482296,0.14341721105752736,"{12: 2, 5: 4, 1: 22, 6: 2, 16: 1}","[1, 5, 6, 12, 16]",1225462122161,Mg2B4H22C2S1
NaAlH22C10(NO6)2,mp-1173817,0.0267,0.33718598,0.2368267963584989,"{11: 1, 13: 1, 1: 22, 6: 10, 7: 2, 8: 12}","[1, 6, 7, 8, 11, 13]",12261072812111131,Na1Al1H22C10N2O12
Nd2H22C10(N2O7)3,mp-1200221,0.0,2.58295588,0.04217296219944888,"{60: 2, 1: 22, 6: 10, 7: 6, 8: 21}","[1, 6, 7, 8, 60]",12261076821602,Nd2H22C10N6O21
H22C10O3,mp-707910,5.196,-2.01544816,0.07575491514285648,"{1: 22, 6: 10, 8: 3}","[1, 6, 8]",12261083,H22C10O3
Al8P8H22C14N4O33F2,mp-1229326,0.6758,0.6072109,0.15560897053265865,"{13: 8, 15: 8, 1: 22, 6: 14, 7: 4, 8: 33, 9: 2}","[1, 6, 7, 8, 9, 13, 15]",1226147483392138158,Al8P8H22C14N4O33F2
Co2H22C(N2O3)4,mp-1198550,2.9117,2.18400353,0.14435053736666692,"{27: 2, 1: 22, 6: 1, 7: 8, 8: 12}","[1, 6, 7, 8, 27]",1226178812272,Co2H22C1N8O12
Ca4Al2H22CO20,mp-707897,4.3173,0.10309249,0.013075186445580478,"{20: 4, 13: 2, 1: 22, 6: 1, 8: 20}","[1, 6, 8, 13, 20]",12261820132204,Ca4Al2H22C1O20
CoH22C3(N3O4)2,mp-746670,3.1475999999999997,-0.74541759,0.03840652187499938,"{27: 1, 1: 22, 6: 3, 7: 6, 8: 8}","[1, 6, 7, 8, 27]",122637688271,Co1H22C3N6O8
H22RhC3(N3O4)2,mp-600156,3.2578,-0.46819606,0.026698408187500355,"{1: 22, 45: 1, 6: 3, 7: 6, 8: 8}","[1, 6, 7, 8, 45]",122637688451,H22Rh1C3N6O8
H22IrC3(N3O4)2,mp-698362,2.7618,0.02776513,0.032661868812501105,"{1: 22, 77: 1, 6: 3, 7: 6, 8: 8}","[1, 6, 7, 8, 77]",122637688771,H22Ir1C3N6O8
P3H22C3N9O11,mp-720461,5.0764,-1.33787778,0.027214317415353406,"{15: 3, 1: 22, 6: 3, 7: 9, 8: 11}","[1, 6, 7, 8, 15]",1226379811153,P3H22C3N9O11
ReH22C4S4N8Cl8O3,mp-707926,3.3911999999999995,0.68416653,0.08161430216336107,"{75: 1, 1: 22, 6: 4, 16: 4, 7: 8, 17: 8, 8: 3}","[1, 6, 7, 8, 16, 17, 75]",122647883164178751,Re1H22C4S4N8Cl8O3
MnZnH22C5N10(Cl2O3)2,mp-1201453,4.0945,3.04514443,0.0015881526020526948,"{25: 1, 30: 1, 1: 22, 6: 5, 7: 10, 17: 4, 8: 6}","[1, 6, 7, 8, 17, 25, 30]",1226571086174251301,Mn1Zn1H22C5N10Cl4O6
ZnCoH22C5N10(Cl2O3)2,mp-1201753,3.2584,1.91577249,0.01058813106121459,"{30: 1, 27: 1, 1: 22, 6: 5, 7: 10, 17: 4, 8: 6}","[1, 6, 7, 8, 17, 27, 30]",1226571086174271301,Zn1Co1H22C5N10Cl4O6
ZnH22C5N18O17,mp-1205040,0.9052,1.02774167,0.481577412433869,"{30: 1, 1: 22, 6: 5, 7: 18, 8: 17}","[1, 6, 7, 8, 30]",12265718817301,Zn1H22C5N18O17
SnH22C6(NCl2)2,mp-983519,4.0721,-1.01591664,0.08117130332142874,"{50: 1, 1: 22, 6: 6, 7: 2, 17: 4}","[1, 6, 7, 17, 50]",1226672174501,Sn1H22C6N2Cl4
H22Pt2C6SO6,mp-1204319,3.6173,2.36223728,0.23524375010135135,"{1: 22, 78: 2, 6: 6, 16: 1, 8: 6}","[1, 6, 8, 16, 78]",1226686161782,H22Pt2C6S1O6
GdH22C7NCl2O9,mp-1196098,2.9811,1.76817654,0.11106596360119436,"{64: 1, 1: 22, 6: 7, 7: 1, 17: 2, 8: 9}","[1, 6, 7, 8, 17, 64]",122677189172641,Gd1H22C7N1Cl2O9
Sn2As2H22C7(ClO2)2,mp-684698,0.32099999999999995,0.59571646,0.5906047149198708,"{50: 2, 33: 2, 1: 22, 6: 7, 17: 2, 8: 4}","[1, 6, 8, 17, 33, 50]",1226784172332502,Sn2As2H22C7Cl2O4
Si2TeH22Pd(C4Cl)2,mp-1204279,1.7525,-0.96391126,0.11303108493877989,"{14: 2, 52: 1, 1: 22, 46: 1, 6: 8, 17: 2}","[1, 6, 14, 17, 46, 52]",12268142172461521,Si2Te1H22Pd1C8Cl2
AgMo4H22C8(NO5)3,mp-603946,1.9177,1.85458628,0.24760641991195076,"{47: 1, 42: 4, 1: 22, 6: 8, 7: 3, 8: 15}","[1, 6, 7, 8, 42, 47]",1226873815424471,Ag1Mo4H22C8N3O15
CoB10H23C13,mp-1202054,1.5361,-0.94958537,0.1285515557978698,"{27: 1, 5: 10, 1: 23, 6: 13}","[1, 5, 6, 27]",123510613271,Co1B10H23C13
SiH23C11N3O8,mp-1195418,4.38,3.11895432,0.24874754052536208,"{14: 1, 1: 23, 6: 11, 7: 3, 8: 8}","[1, 6, 7, 8, 14]",1236117388141,Si1H23C11N3O8