formula,material_id,band_gap,efermi,energy_above_hull,comp_atoms,sorted_keys_comp_atoms,comp_number,new_formula
RuCN2,mp-1245843,0.0,6.37377158,0.3525053243749987,"{44: 1, 6: 1, 7: 2}","[6, 7, 44]",6172441,Ru1C1N2
PdCN2,mp-1245872,0.0,0.8610071,0.2590730781249997,"{46: 1, 6: 1, 7: 2}","[6, 7, 46]",6172461,Pd1C1N2
Ag2CN2,mp-574486,1.0037,2.01795346,0.2729056413333337,"{47: 2, 6: 1, 7: 2}","[6, 7, 47]",6172472,Ag2C1N2
CdCN2,mp-10969,2.3076,1.56267834,0.0,"{48: 1, 6: 1, 7: 2}","[6, 7, 48]",6172481,Cd1C1N2
InCN2,mp-1247379,0.27199999999999935,4.4555096,0.12982575861111112,"{49: 1, 6: 1, 7: 2}","[6, 7, 49]",6172491,In1C1N2
SnCN2,mp-1245869,0.7578000000000005,4.13026788,0.02957340687499954,"{50: 1, 6: 1, 7: 2}","[6, 7, 50]",6172501,Sn1C1N2
SnCI3N2,mp-1194439,0.0,1.29447956,0.6399416636607134,"{50: 1, 6: 1, 53: 3, 7: 2}","[6, 7, 50, 53]",6172501533,Sn1C1I3N2
TeCN2,mp-1246047,0.2469999999999999,3.43734122,0.38136099145833224,"{52: 1, 6: 1, 7: 2}","[6, 7, 52]",6172521,Te1C1N2
PbCI3N2,mp-1220224,0.0,-0.29572934,0.6301641732142826,"{82: 1, 6: 1, 53: 3, 7: 2}","[6, 7, 53, 82]",6172533821,Pb1C1I3N2
Cs2CN2,mp-1029699,2.2801,0.93747371,0.0,"{55: 2, 6: 1, 7: 2}","[6, 7, 55]",6172552,Cs2C1N2
EuCN2,mp-1212716,0.4575,3.99593022,0.0,"{63: 1, 6: 1, 7: 2}","[6, 7, 63]",6172631,Eu1C1N2
PtCN2,mp-1245892,0.0,1.5323299,0.3370808331249995,"{78: 1, 6: 1, 7: 2}","[6, 7, 78]",6172781,Pt1C1N2
HgCN2,mp-29853,2.4669,0.18213636,0.2808110087499971,"{80: 1, 6: 1, 7: 2}","[6, 7, 80]",6172801,Hg1C1N2
CN2O,mp-1182145,0.2846000000000002,-4.2864249,0.5794237878124999,"{6: 1, 7: 2, 8: 1}","[6, 7, 8]",617281,C1N2O1
Re2PbC(NO5)2,mp-1211989,0.3115999999999999,-2.39095182,0.805479809687502,"{75: 2, 82: 1, 6: 1, 7: 2, 8: 10}","[6, 7, 8, 75, 82]",6172810752821,Re2Pb1C1N2O10
CS2N2O,mp-1214254,2.5607,0.82709889,0.5311428494345236,"{6: 1, 16: 2, 7: 2, 8: 1}","[6, 7, 8, 16]",617281162,C1S2N2O1
HgCN2Cl2O,mp-1193326,0.4939,-1.94474532,0.49179835517857384,"{80: 1, 6: 1, 7: 2, 17: 2, 8: 1}","[6, 7, 8, 17, 80]",617281172801,Hg1C1N2Cl2O1
Tl2CN2,mp-570443,1.8922000000000003,2.34026478,0.0,"{81: 2, 6: 1, 7: 2}","[6, 7, 81]",6172812,Tl2C1N2
MnP3C(NO7)2,mp-1198149,0.2254,-0.68459684,0.8987471626587427,"{25: 1, 15: 3, 6: 1, 7: 2, 8: 14}","[6, 7, 8, 15, 25]",6172814153251,Mn1P3C1N2O14
CSN2OF2,mp-648193,3.8453999999999997,-0.72180524,0.27411084221428794,"{6: 1, 16: 1, 7: 2, 8: 1, 9: 2}","[6, 7, 8, 9, 16]",61728192161,C1S1N2O1F2
SbCN2OF3,mp-1198449,1.6382999999999999,-1.41574528,0.4429505232812492,"{51: 1, 6: 1, 7: 2, 8: 1, 9: 3}","[6, 7, 8, 9, 51]",61728193511,Sb1C1N2O1F3
AsCS2N2OF5,mp-554876,2.7431,-1.15706069,0.189893344439648,"{33: 1, 6: 1, 16: 2, 7: 2, 8: 1, 9: 5}","[6, 7, 8, 9, 16, 33]",61728195162331,As1C1S2N2O1F5
C(NO)2,mp-1197051,1.8502999999999998,-0.44570758,1.1348039342500007,"{6: 1, 7: 2, 8: 2}","[6, 7, 8]",617282,C1N2O2
PbCN2,mp-19727,1.7030999999999996,3.23809057,0.0,"{82: 1, 6: 1, 7: 2}","[6, 7, 82]",6172821,Pb1C1N2
CS(NO)2,mp-1191171,0.0,-3.40523768,0.8039491795833351,"{6: 1, 16: 1, 7: 2, 8: 2}","[6, 7, 8, 16]",617282161,C1S1N2O2
ReCSN2Cl3O2,mp-1204366,0.359,-1.16357086,0.4286324385555558,"{75: 1, 6: 1, 16: 1, 7: 2, 17: 3, 8: 2}","[6, 7, 8, 16, 17, 75]",617282161173751,Re1C1S1N2Cl3O2
Ca2CoC(NO)2,mp-1147777,0.0,4.68102787,0.3648624487500003,"{20: 2, 27: 1, 6: 1, 7: 2, 8: 2}","[6, 7, 8, 20, 27]",617282202271,Ca2Co1C1N2O2
La2C(NO)2,mp-1223241,1.9623000000000008,6.19961322,0.5567104687499995,"{57: 2, 6: 1, 7: 2, 8: 2}","[6, 7, 8, 57]",617282572,La2C1N2O2
Ce2C(NO)2,mp-1025352,0.0,6.79713788,0.0,"{58: 2, 6: 1, 7: 2, 8: 2}","[6, 7, 8, 58]",617282582,Ce2C1N2O2
Pr2C(NO)2,mp-9497,3.7169999999999996,1.71947591,0.0,"{59: 2, 6: 1, 7: 2, 8: 2}","[6, 7, 8, 59]",617282592,Pr2C1N2O2
Nd2C(NO)2,mp-9498,3.7725,1.68605389,0.0,"{60: 2, 6: 1, 7: 2, 8: 2}","[6, 7, 8, 60]",617282602,Nd2C1N2O2
Sm2C(NO)2,mp-9499,3.9197,1.54761732,0.0,"{62: 2, 6: 1, 7: 2, 8: 2}","[6, 7, 8, 62]",617282622,Sm2C1N2O2
Eu2C(NO)2,mp-22234,0.0,1.6739378,0.11685121273809607,"{63: 2, 6: 1, 7: 2, 8: 2}","[6, 7, 8, 63]",617282632,Eu2C1N2O2
Gd2C(NO)2,mp-1025163,2.4609,1.88124867,0.0,"{64: 2, 6: 1, 7: 2, 8: 2}","[6, 7, 8, 64]",617282642,Gd2C1N2O2
Dy2C(NO)2,mp-13038,3.9833,1.82929255,0.0,"{66: 2, 6: 1, 7: 2, 8: 2}","[6, 7, 8, 66]",617282662,Dy2C1N2O2
Ho2C(NO)2,mp-20374,3.9966000000000004,1.85615505,0.0,"{67: 2, 6: 1, 7: 2, 8: 2}","[6, 7, 8, 67]",617282672,Ho2C1N2O2
Er2C(NO)2,mp-6574,4.0097000000000005,1.81514646,0.0,"{68: 2, 6: 1, 7: 2, 8: 2}","[6, 7, 8, 68]",617282682,Er2C1N2O2
Tm2C(NO)2,mp-13039,4.0331,1.78270581,0.0,"{69: 2, 6: 1, 7: 2, 8: 2}","[6, 7, 8, 69]",617282692,Tm2C1N2O2
HgCN2O3,mp-1224387,3.3212,-2.04028306,0.6139850098214277,"{80: 1, 6: 1, 7: 2, 8: 3}","[6, 7, 8, 80]",617283801,Hg1C1N2O3
CSe2S2N2(OF)3,mp-555329,1.4161000000000001,0.42319398,0.2587539176108944,"{6: 1, 34: 2, 16: 2, 7: 2, 8: 3, 9: 3}","[6, 7, 8, 9, 16, 34]",61728393162342,C1Se2S2N2O3F3
CS4N2(OF)3,mp-555309,1.1363,0.74340424,0.3057199977660252,"{6: 1, 16: 4, 7: 2, 8: 3, 9: 3}","[6, 7, 8, 9, 16]",61728393164,C1S4N2O3F3
La2SiC(NO2)2,mp-1204122,3.7006000000000006,5.09415711,0.0,"{57: 2, 14: 1, 6: 1, 7: 2, 8: 4}","[6, 7, 8, 14, 57]",617284141572,La2Si1C1N2O4
Pr2SiC(NO2)2,mp-1186715,3.8967000000000005,3.00624692,0.0,"{59: 2, 14: 1, 6: 1, 7: 2, 8: 4}","[6, 7, 8, 14, 59]",617284141592,Pr2Si1C1N2O4
KC(NO2)2,mp-555541,1.9993,-0.11546874,0.5244260495625008,"{19: 1, 6: 1, 7: 2, 8: 4}","[6, 7, 8, 19]",617284191,K1C1N2O4
KCBr(NO2)2,mp-558178,1.9626000000000001,-0.48711224,0.49423665944444384,"{19: 1, 6: 1, 35: 1, 7: 2, 8: 4}","[6, 7, 8, 19, 35]",617284191351,K1C1Br1N2O4
CIN2(O2F)3,mp-555996,3.3350999999999997,-1.20947564,0.2541362246373602,"{6: 1, 53: 1, 7: 2, 8: 6, 9: 3}","[6, 7, 8, 9, 53]",61728693531,C1I1N2O6F3
CIN2O7,mp-1203490,0.0,-1.45165999,1.2633743172402614,"{6: 1, 53: 1, 7: 2, 8: 7}","[6, 7, 8, 53]",617287531,C1I1N2O7
AsCS3N2F11,mp-555986,3.2632000000000003,-2.5609888,0.20197002693672683,"{33: 1, 6: 1, 16: 3, 7: 2, 9: 11}","[6, 7, 9, 16, 33]",6172911163331,As1C1S3N2F11
LaCN2F,mp-556405,2.6827999999999994,4.87308511,0.0,"{57: 1, 6: 1, 7: 2, 9: 1}","[6, 7, 9, 57]",617291571,La1C1N2F1
TaC,mp-1086,0.0,7.83089568,0.0,"{73: 1, 6: 1}","[6, 73]",61731,Ta1C1
Ti8Al4CN3,mp-1217099,0.0,7.12673736,0.002745354999998284,"{22: 8, 13: 4, 6: 1, 7: 3}","[6, 7, 13, 22]",6173134228,Ti8Al4C1N3
P2CN3Cl5,mp-662643,3.9229,-0.3595243,0.05417426315909779,"{15: 2, 6: 1, 7: 3, 17: 5}","[6, 7, 15, 17]",6173152175,P2C1N3Cl5
SbP3C(NCl5)3,mp-647342,2.0859,-0.60239913,0.0,"{51: 1, 15: 3, 6: 1, 7: 3, 17: 15}","[6, 7, 15, 17, 51]",61731531715511,Sb1P3C1N3Cl15
CSN3,mp-1214236,0.0,-2.76971342,0.28811127903571254,"{6: 1, 16: 1, 7: 3}","[6, 7, 16]",6173161,C1S1N3
HgCSN3Cl2,mp-1201879,0.0,-2.7829895,0.25958236720981986,"{80: 1, 6: 1, 16: 1, 7: 3, 17: 2}","[6, 7, 16, 17, 80]",6173161172801,Hg1C1S1N3Cl2
CS2(NCl)3,mp-560879,2.6841,-0.80060001,0.245591523247354,"{6: 1, 16: 2, 7: 3, 17: 3}","[6, 7, 16, 17]",6173162173,C1S2N3Cl3
CN3Cl,mp-1188937,0.3063,-1.42238338,0.9102432036666626,"{6: 1, 7: 3, 17: 1}","[6, 7, 17]",6173171,C1N3Cl1
La2CN3Cl,mp-567756,1.8792,5.41103679,0.0,"{57: 2, 6: 1, 7: 3, 17: 1}","[6, 7, 17, 57]",6173171572,La2C1N3Cl1
Ce2CN3Cl,mp-1213870,0.0,6.87970387,0.0,"{58: 2, 6: 1, 7: 3, 17: 1}","[6, 7, 17, 58]",6173171582,Ce2C1N3Cl1
AuCN3Cl4,mp-1198967,0.0,-2.28215648,0.9948528717592602,"{79: 1, 6: 1, 7: 3, 17: 4}","[6, 7, 17, 79]",6173174791,Au1C1N3Cl4
Hg2CN3Cl5,mp-1212240,0.0,-1.71249264,0.8477652175757595,"{80: 2, 6: 1, 7: 3, 17: 5}","[6, 7, 17, 80]",6173175802,Hg2C1N3Cl5
Ta2C,mp-7088,0.0,6.50559956,0.0,"{73: 2, 6: 1}","[6, 73]",61732,Ta2C1
Ti4CN3,mp-1217107,0.0,8.5887428,0.0,"{22: 4, 6: 1, 7: 3}","[6, 7, 22]",6173224,Ti4C1N3
Mn12Zn4CN3,mp-1222039,0.0,5.54445643,0.022637469004599176,"{25: 12, 30: 4, 6: 1, 7: 3}","[6, 7, 25, 30]",61732512304,Mn12Zn4C1N3
Ta3C,mp-1187218,0.0,6.30087663,1.4294546481666686,"{73: 3, 6: 1}","[6, 73]",61733,Ta3C1
Zr4CN3,mp-1215387,0.0,6.95850599,0.0,"{40: 4, 6: 1, 7: 3}","[6, 7, 40]",6173404,Zr4C1N3
Hf4CN3,mp-1224384,0.0,7.86906037,0.0,"{72: 4, 6: 1, 7: 3}","[6, 7, 72]",6173724,Hf4C1N3
Ta2CN3,mp-979265,0.0,5.71002788,1.202614355178568,"{73: 2, 6: 1, 7: 3}","[6, 7, 73]",6173732,Ta2C1N3
AlP2CN3O10,mp-1214981,0.0,-1.56385232,1.3427564671568613,"{13: 1, 15: 2, 6: 1, 7: 3, 8: 10}","[6, 7, 8, 13, 15]",6173810131152,Al1P2C1N3O10
Al4CN3O,mp-10990,0.13470000000000004,3.19883658,0.8835374915972203,"{13: 4, 6: 1, 7: 3, 8: 1}","[6, 7, 8, 13]",617381134,Al4C1N3O1
CdCSBr2N3O,mp-1106319,0.38459999999999994,-1.29098557,0.7048855454365057,"{48: 1, 6: 1, 16: 1, 35: 2, 7: 3, 8: 1}","[6, 7, 8, 16, 35, 48]",617381161352481,Cd1C1S1Br2N3O1
CdCN3Cl2O,mp-726642,0.07739999999999991,-2.74355271,0.2833569404687495,"{48: 1, 6: 1, 7: 3, 17: 2, 8: 1}","[6, 7, 8, 17, 48]",617381172481,Cd1C1N3Cl2O1
Zn2P3C(NO4)3,mp-1199569,0.0,-1.96491157,0.8938789599702446,"{30: 2, 15: 3, 6: 1, 7: 3, 8: 12}","[6, 7, 8, 15, 30]",6173812153302,Zn2P3C1N3O12
Sn4P3C(NO4)3,mp-727994,0.0,0.5715367,0.42853985657607563,"{50: 4, 15: 3, 6: 1, 7: 3, 8: 12}","[6, 7, 8, 15, 50]",6173812153504,Sn4P3C1N3O12
CBrN3O,mp-1103144,0.0,-1.46415715,1.732762575078124,"{6: 1, 35: 1, 7: 3, 8: 1}","[6, 7, 8, 35]",617381351,C1Br1N3O1
PCSN3O2,mp-1199821,0.7656000000000001,-0.81330242,0.7244576161681548,"{15: 1, 6: 1, 16: 1, 7: 3, 8: 2}","[6, 7, 8, 15, 16]",617382151161,P1C1S1N3O2
KCN3O2,mp-558995,3.3521,-1.41593119,0.45226409276785606,"{19: 1, 6: 1, 7: 3, 8: 2}","[6, 7, 8, 19]",617382191,K1C1N3O2
AgCN3O2,mp-560460,2.4627,-0.3473269,0.5840530751190478,"{47: 1, 6: 1, 7: 3, 8: 2}","[6, 7, 8, 47]",617382471,Ag1C1N3O2
CI(NO)3,mp-1198908,0.5977999999999999,-1.2789699,1.1704816538392908,"{6: 1, 53: 1, 7: 3, 8: 3}","[6, 7, 8, 53]",617383531,C1I1N3O3
Ag3CS(NO2)3,mp-562248,2.1029999999999998,0.70655998,0.5565124473809524,"{47: 3, 6: 1, 16: 1, 7: 3, 8: 6}","[6, 7, 8, 16, 47]",617386161473,Ag3C1S1N3O6
KC(NO2)3,mp-555972,2.1635,-0.69652175,0.44242985636363397,"{19: 1, 6: 1, 7: 3, 8: 6}","[6, 7, 8, 19]",617386191,K1C1N3O6
Ag3C(NO2)3,mp-1229212,2.5277000000000003,-0.23930237,0.345861704615384,"{47: 3, 6: 1, 7: 3, 8: 6}","[6, 7, 8, 47]",617386473,Ag3C1N3O6
Ag4C(NO3)3,mp-1229230,2.3921,0.44428186,0.27215905470588364,"{47: 4, 6: 1, 7: 3, 8: 9}","[6, 7, 8, 47]",617389474,Ag4C1N3O9
WC,mp-1894,0.0,7.93987235,0.0,"{74: 1, 6: 1}","[6, 74]",61741,W1C1
Mg4CN4,mp-1245729,1.9104999999999999,4.46321558,0.07587477069444404,"{12: 4, 6: 1, 7: 4}","[6, 7, 12]",6174124,Mg4C1N4
Si2CN4,mp-30161,4.3744,2.15597846,0.0,"{14: 2, 6: 1, 7: 4}","[6, 7, 14]",6174142,Si2C1N4
P3CN4Cl7,mp-638206,3.7592999999999996,-0.13032922,0.024694334666669704,"{15: 3, 6: 1, 7: 4, 17: 7}","[6, 7, 15, 17]",6174153177,P3C1N4Cl7
CS3N4,mp-28390,1.9381,-0.15721219,0.5103634494419635,"{6: 1, 16: 3, 7: 4}","[6, 7, 16]",6174163,C1S3N4
CN4Cl,mp-1190824,1.2285999999999997,-4.01904134,0.6952738755555545,"{6: 1, 7: 4, 17: 1}","[6, 7, 17]",6174171,C1N4Cl1
W2C,mp-2034,0.0,7.99016282,0.0654497191666703,"{74: 2, 6: 1}","[6, 74]",61742,W2C1
Sr3CaCN4,mp-1208816,1.4804000000000004,4.16791229,0.0,"{38: 3, 20: 1, 6: 1, 7: 4}","[6, 7, 20, 38]",6174201383,Sr3Ca1C1N4
Ca4CN4,mp-5251,1.7906999999999997,3.04393236,0.0,"{20: 4, 6: 1, 7: 4}","[6, 7, 20]",6174204,Ca4C1N4
Ti5CN4,mp-1217133,0.0,8.78926586,0.003550156000009963,"{22: 5, 6: 1, 7: 4}","[6, 7, 22]",6174225,Ti5C1N4
Cr4CN4,mp-1245711,0.0,7.74252516,0.5294024772222219,"{24: 4, 6: 1, 7: 4}","[6, 7, 24]",6174244,Cr4C1N4
Co4CN4,mp-1246094,0.0,6.39691958,0.2560920236111093,"{27: 4, 6: 1, 7: 4}","[6, 7, 27]",6174274,Co4C1N4
ReW2C,mp-1219519,0.0,7.66555952,0.2688563593750004,"{75: 1, 74: 2, 6: 1}","[6, 74, 75]",61742751,Re1W2C1
W3C,mp-979413,0.0,7.30868024,1.3306667375000014,"{74: 3, 6: 1}","[6, 74]",61743,W3C1
Zn4CN4,mp-1246159,0.05169999999999986,3.19199929,0.14269381611111065,"{30: 4, 6: 1, 7: 4}","[6, 7, 30]",6174304,Zn4C1N4
Re2W3C,mp-16877,0.0,7.59614921,0.06860266125000081,"{75: 2, 74: 3, 6: 1}","[6, 74, 75]",61743752,Re2W3C1
Sr4CN4,mp-567601,1.2186,2.81763472,0.0,"{38: 4, 6: 1, 7: 4}","[6, 7, 38]",6174384,Sr4C1N4
ZrNb4CN4,mp-1215243,0.0,7.83935717,0.16700801737500015,"{40: 1, 41: 4, 6: 1, 7: 4}","[6, 7, 40, 41]",6174401414,Zr1Nb4C1N4
HfNb4CN4,mp-1224363,0.0,8.01112679,0.18003707234999666,"{72: 1, 41: 4, 6: 1, 7: 4}","[6, 7, 41, 72]",6174414721,Hf1Nb4C1N4
Ru4CN4,mp-1246213,0.0,6.5989571,0.3744962594444434,"{44: 4, 6: 1, 7: 4}","[6, 7, 44]",6174444,Ru4C1N4
Cd4CN4,mp-1247502,0.0253000000000001,2.38462318,0.3153510536111117,"{48: 4, 6: 1, 7: 4}","[6, 7, 48]",6174484,Cd4C1N4
In4CN4,mp-1247157,0.3448000000000002,4.38341643,0.20053652280864043,"{49: 4, 6: 1, 7: 4}","[6, 7, 49]",6174494,In4C1N4
Sn4CN4,mp-1246078,0.5005999999999995,5.53415277,0.17713701055555564,"{50: 4, 6: 1, 7: 4}","[6, 7, 50]",6174504,Sn4C1N4
Er4ThCN4,mp-1225602,0.0,5.23714552,0.051675499000003455,"{68: 4, 90: 1, 6: 1, 7: 4}","[6, 7, 68, 90]",6174684901,Er4Th1C1N4
C(N2O)2,mp-1194028,0.0,-2.53437834,1.627030620357142,"{6: 1, 7: 4, 8: 2}","[6, 7, 8]",617482,C1N4O2
CS4N4ClO2,mp-726331,0.5275000000000001,0.83301328,0.5776929329166629,"{6: 1, 16: 4, 7: 4, 17: 1, 8: 2}","[6, 7, 8, 16, 17]",617482164171,C1S4N4Cl1O2
Pb4CN4,mp-1246391,0.3431999999999995,5.57821994,0.28960759555555526,"{82: 4, 6: 1, 7: 4}","[6, 7, 82]",6174824,Pb4C1N4
CoCBrN4O3,mp-1202336,0.18269999999999997,0.82255917,0.868579651199993,"{27: 1, 6: 1, 35: 1, 7: 4, 8: 3}","[6, 7, 8, 27, 35]",617483271351,Co1C1Br1N4O3
Pt2CN4O7,mp-1197773,0.6299,0.08157535,0.5123824116071436,"{78: 2, 6: 1, 7: 4, 8: 7}","[6, 7, 8, 78]",617487782,Pt2C1N4O7
ReC,mp-1009735,0.0,9.41107823,0.26545401937500124,"{75: 1, 6: 1}","[6, 75]",61751,Re1C1
CS3N5Cl,mp-558295,2.2804,-0.18596615,0.49513985667559446,"{6: 1, 16: 3, 7: 5, 17: 1}","[6, 7, 16, 17]",6175163171,C1S3N5Cl1
Re2C,mp-974437,0.0,8.26816147,0.0,"{75: 2, 6: 1}","[6, 75]",61752,Re2C1
Re3C,mp-974452,0.0,7.44504544,1.401150023125,"{75: 3, 6: 1}","[6, 75]",61753,Re3C1
Sr4GaCN5,mp-672334,1.4465,3.21306413,0.009258491818181724,"{38: 4, 31: 1, 6: 1, 7: 5}","[6, 7, 31, 38]",6175311384,Sr4Ga1C1N5
CS5N5O3F,mp-558959,1.8838000000000001,0.19423945,0.34280461704166676,"{6: 1, 16: 5, 7: 5, 8: 3, 9: 1}","[6, 7, 8, 9, 16]",61758391165,C1S5N5O3F1
CoCIN5O4,mp-1197836,0.9436,-0.30335801,1.0761119692916683,"{27: 1, 6: 1, 53: 1, 7: 5, 8: 4}","[6, 7, 8, 27, 53]",617584271531,Co1C1I1N5O4
OsC,mp-1009540,0.14530000000000065,6.65431973,0.7169758262499997,"{76: 1, 6: 1}","[6, 76]",61761,Os1C1
La2Si4CN6,mp-866650,2.3360000000000003,7.70275778,0.0,"{57: 2, 14: 4, 6: 1, 7: 6}","[6, 7, 14, 57]",6176144572,La2Si4C1N6
Gd2Si4CN6,mp-1205044,2.0209,5.45658004,0.0,"{64: 2, 14: 4, 6: 1, 7: 6}","[6, 7, 14, 64]",6176144642,Gd2Si4C1N6
Tb2Si4CN6,mp-1208544,3.1495999999999995,5.57802036,0.0,"{65: 2, 14: 4, 6: 1, 7: 6}","[6, 7, 14, 65]",6176144652,Tb2Si4C1N6
Ho2Si4CN6,mp-6825,3.081200000000001,5.5674306,0.0,"{67: 2, 14: 4, 6: 1, 7: 6}","[6, 7, 14, 67]",6176144672,Ho2Si4C1N6
Er2Si4CN6,mp-1212966,3.2788000000000004,5.47628433,0.0,"{68: 2, 14: 4, 6: 1, 7: 6}","[6, 7, 14, 68]",6176144682,Er2Si4C1N6
CoCS(N3Cl)2,mp-1095455,0.0,2.80300954,1.644063870922186,"{27: 1, 6: 1, 16: 1, 7: 6, 17: 2}","[6, 7, 16, 17, 27]",6176161172271,Co1C1S1N6Cl2
CN6Cl,mp-1105904,0.0,0.57008188,0.6080257135416689,"{6: 1, 7: 6, 17: 1}","[6, 7, 17]",6176171,C1N6Cl1
CoC(N3Cl)2,mp-1181833,0.3914000000000001,-1.10644964,1.6799569382499993,"{27: 1, 6: 1, 7: 6, 17: 2}","[6, 7, 17, 27]",6176172271,Co1C1N6Cl2
Ca7CN6,mp-1245373,1.206,3.9321619,0.210692521964285,"{20: 7, 6: 1, 7: 6}","[6, 7, 20]",6176207,Ca7C1N6
Sr7CN6,mp-1245482,0.4330000000000003,3.5280893,0.28063175642857185,"{38: 7, 6: 1, 7: 6}","[6, 7, 38]",6176387,Sr7C1N6
CN6O,mp-1197543,3.6774999999999998,-2.18192595,0.2965681348437492,"{6: 1, 7: 6, 8: 1}","[6, 7, 8]",617681,C1N6O1
IrCSN6(ClO4)2,mp-1199733,0.0,-1.69598282,1.7698212232017516,"{77: 1, 6: 1, 16: 1, 7: 6, 17: 2, 8: 8}","[6, 7, 8, 16, 17, 77]",617688161172771,Ir1C1S1N6Cl2O8
IrC,mp-1001789,0.0,7.07623614,0.5319193412499992,"{77: 1, 6: 1}","[6, 77]",61771,Ir1C1
PtC,mp-1018164,0.0,6.21489538,0.91122566625,"{78: 1, 6: 1}","[6, 78]",61781,Pt1C1
Os5C17O16,mp-647725,2.0169,-0.09820503,0.22595535052631632,"{76: 5, 6: 17, 8: 16}","[6, 8, 76]",617816765,Os5C17O16
Os6C17SO17,mp-667389,1.4785,0.25866785,0.21583975173780523,"{76: 6, 6: 17, 16: 1, 8: 17}","[6, 8, 16, 76]",617817161766,Os6C17S1O17
Ru6C17S2O17,mp-650984,0.7986,-0.02070064,0.6329393012797633,"{44: 6, 6: 17, 16: 2, 8: 17}","[6, 8, 16, 44]",617817162446,Ru6C17S2O17
Os6C17S2O17,mp-648264,2.0941,-0.19414637,0.19656539752976343,"{76: 6, 6: 17, 16: 2, 8: 17}","[6, 8, 16, 76]",617817162766,Os6C17S2O17
Pt3PbC,mp-20097,0.0,7.19899127,0.4826028475000017,"{78: 3, 82: 1, 6: 1}","[6, 78, 82]",61783821,Pt3Pb1C1
AuC,mp-1183164,0.0,4.63816008,1.8776272787499995,"{79: 1, 6: 1}","[6, 79]",61791,Au1C1
SbC(N3Cl2)3,mp-650049,1.7935,-0.78718767,0.1754922682843123,"{51: 1, 6: 1, 7: 9, 17: 6}","[6, 7, 17, 51]",6179176511,Sb1C1N9Cl6
C17F5,mp-644802,0.0,2.52139831,0.29998937167613615,"{6: 17, 9: 5}","[6, 9]",61795,C17F5
Co2CN9(Cl2O3)2,mp-1182699,0.30499999999999994,-1.52283431,1.3138514598863598,"{27: 2, 6: 1, 7: 9, 17: 4, 8: 6}","[6, 7, 8, 17, 27]",617986174272,Co2C1N9Cl4O6
HgC,mp-1184566,0.0,2.31722757,2.2918428374999964,"{80: 1, 6: 1}","[6, 80]",61801,Hg1C1
Hg3C,mp-973461,0.0,2.88915074,1.5148404887499949,"{80: 3, 6: 1}","[6, 80]",61803,Hg3C1
CO,mp-995183,0.0,1.72432341,0.5488482481250001,"{6: 1, 8: 1}","[6, 8]",6181,C1O1
Na2ZrPCO10,mp-1180616,0.3286,-0.00119683,0.46384333740741024,"{11: 2, 40: 1, 15: 1, 6: 1, 8: 10}","[6, 8, 11, 15, 40]",61810112151401,Na2Zr1P1C1O10
Zr6C(I7O5)2,mp-1199921,0.0,-0.04899863,0.9791738746236582,"{40: 6, 6: 1, 53: 14, 8: 10}","[6, 8, 40, 53]",618104065314,Zr6C1I14O10
TlC,mp-1187517,0.0,4.79763444,1.9856494795833295,"{81: 1, 6: 1}","[6, 81]",61811,Tl1C1
Na3PCO11,mp-1213582,0.29040000000000005,-0.43325987,0.5759188940625002,"{11: 3, 15: 1, 6: 1, 8: 11}","[6, 8, 11, 15]",61811113151,Na3P1C1O11
Ca5Si2CO11,mp-6796,4.4954,2.05947553,0.010419568157884918,"{20: 5, 14: 2, 6: 1, 8: 11}","[6, 8, 14, 20]",61811142205,Ca5Si2C1O11
K2Mn3V2CO11,mp-1195006,2.1887,1.12081321,0.0,"{19: 2, 25: 3, 23: 2, 6: 1, 8: 11}","[6, 8, 19, 23, 25]",61811192232253,K2Mn3V2C1O11
ScAlCO,mp-1080747,1.2166999999999994,6.03704088,0.0,"{21: 1, 13: 1, 6: 1, 8: 1}","[6, 8, 13, 21]",6181131211,Sc1Al1C1O1
Al2CO,mp-772624,2.662799999999999,6.32362023,0.07650396250000036,"{13: 2, 6: 1, 8: 1}","[6, 8, 13]",6181132,Al2C1O1
Al4CO,mp-1173027,0.0,7.76919014,0.29450207166666864,"{13: 4, 6: 1, 8: 1}","[6, 8, 13]",6181134,Al4C1O1
CSO,mp-28240,4.9077,-2.42454909,0.10505763297619186,"{6: 1, 16: 1, 8: 1}","[6, 8, 16]",6181161,C1S1O1
K2CS3O,mp-1193648,1.7940999999999998,2.38155108,0.39591942541666736,"{19: 2, 6: 1, 16: 3, 8: 1}","[6, 8, 16, 19]",6181163192,K2C1S3O1
AuCClO,mp-561703,3.0723,-1.57841525,0.14637202156250062,"{79: 1, 6: 1, 17: 1, 8: 1}","[6, 8, 17, 79]",6181171791,Au1C1Cl1O1
CCl2O,mp-27727,4.5857,-2.53402142,0.014668103906249286,"{6: 1, 17: 2, 8: 1}","[6, 8, 17]",6181172,C1Cl2O1
K12Ag4As8CSe20O,mp-1224735,0.6591000000000002,1.53488454,0.13807055711352678,"{19: 12, 47: 4, 33: 8, 6: 1, 34: 20, 8: 1}","[6, 8, 19, 33, 34, 47]",618119123383420474,K12Ag4As8C1Se20O1
K2OsCBr5O,mp-556047,0.5206,-0.12181481,0.0,"{19: 2, 76: 1, 6: 1, 35: 5, 8: 1}","[6, 8, 19, 35, 76]",6181192355761,K2Os1C1Br5O1
K2IrCBr5O,mp-648833,1.815,0.10544397,0.20603521812500158,"{19: 2, 77: 1, 6: 1, 35: 5, 8: 1}","[6, 8, 19, 35, 77]",6181192355771,K2Ir1C1Br5O1
K3CO,mp-1070737,0.2972,0.1386257,1.0502585302374987,"{19: 3, 6: 1, 8: 1}","[6, 8, 19]",6181193,K3C1O1
Sc2CO,mp-1219429,0.0,5.52440689,0.0,"{21: 2, 6: 1, 8: 1}","[6, 8, 21]",6181212,Sc2C1O1
Tl2Mo3PCO12,mp-722560,0.5375999999999999,1.99826156,0.48568409210526386,"{81: 2, 42: 3, 15: 1, 6: 1, 8: 12}","[6, 8, 15, 42, 81]",61812151423812,Tl2Mo3P1C1O12
Ca5P3CO12,mp-1214051,0.6253000000000002,4.83451976,0.24470876912617356,"{20: 5, 15: 3, 6: 1, 8: 12}","[6, 8, 15, 20]",61812153205,Ca5P3C1O12
Ca5V3CO12,mp-1214147,0.6478999999999999,3.6261175,0.2920747662882608,"{20: 5, 23: 3, 6: 1, 8: 12}","[6, 8, 20, 23]",61812205233,Ca5V3C1O12