formula,material_id,band_gap,efermi,energy_above_hull,comp_atoms,sorted_keys_comp_atoms,comp_number,new_formula
BeH24C8S4(ClO2)2,mp-1199791,3.6696,-0.57924386,0.18627035007475445,"{4: 1, 1: 24, 6: 8, 16: 4, 17: 2, 8: 4}","[1, 4, 6, 8, 16, 17]",124416884164172,Be1H24C8S4Cl2O4
B2H24PdC8(SF2)4,mp-1247811,0.4173,-1.17811085,0.5049811409916423,"{5: 2, 1: 24, 46: 1, 6: 8, 16: 4, 9: 8}","[1, 5, 6, 9, 16, 46]",124526898164461,B2H24Pd1C8S4F8
MnB4H24(C2N)2,mp-1203789,1.9167,-1.46178473,0.1952146225,"{25: 1, 5: 4, 1: 24, 6: 4, 7: 2}","[1, 5, 6, 7, 25]",124546472251,Mn1B4H24C4N2
B8PH24RhC7,mp-1196243,1.6749999999999998,1.09072709,0.10822272140751998,"{5: 8, 15: 1, 1: 24, 45: 1, 6: 7}","[1, 5, 6, 15, 45]",1245867151451,B8P1H24Rh1C7
B8PH24PtC7,mp-1198024,1.3137,-0.28462287,0.10708159637957326,"{5: 8, 15: 1, 1: 24, 78: 1, 6: 7}","[1, 5, 6, 15, 78]",1245867151781,B8P1H24Pt1C7
ZnH24Au2C12S8(NCl)4,mp-1194676,1.6528,-0.6019652,0.18317399965584258,"{30: 1, 1: 24, 79: 2, 6: 12, 16: 8, 7: 4, 17: 4}","[1, 6, 7, 16, 17, 30, 79]",12461274168174301792,Zn1H24Au2C12S8N4Cl4
P2H24PdC12(BrN3)2,mp-708969,1.5577,0.7621364,0.22376570532624118,"{15: 2, 1: 24, 46: 1, 6: 12, 35: 2, 7: 6}","[1, 6, 7, 15, 35, 46]",12461276152352461,P2H24Pd1C12Br2N6
P2H24PtC12(IN3)2,mp-1198949,2.1069,3.14609243,0.2255966534574485,"{15: 2, 1: 24, 78: 1, 6: 12, 53: 2, 7: 6}","[1, 6, 7, 15, 53, 78]",12461276152532781,P2H24Pt1C12I2N6
Zn2H24C12Br7O6,mp-1195346,2.2822999999999998,-1.42607634,0.28348399383578116,"{30: 2, 1: 24, 6: 12, 35: 7, 8: 6}","[1, 6, 8, 30, 35]",12461286302357,Zn2H24C12Br7O6
Zn3H24C12Br11O6,mp-1194720,1.5606,0.33388295,0.3112259532440369,"{30: 3, 1: 24, 6: 12, 35: 11, 8: 6}","[1, 6, 8, 30, 35]",124612863033511,Zn3H24C12Br11O6
Zn3H24C12(Br4O3)2,mp-1194806,2.1113,-1.35218754,0.27654175933568936,"{30: 3, 1: 24, 6: 12, 35: 8, 8: 6}","[1, 6, 8, 30, 35]",12461286303358,Zn3H24C12Br8O6
KMnH24(C7N4)2,mp-698214,0.2816,0.24159555,0.23370094166014965,"{19: 1, 25: 1, 1: 24, 6: 14, 7: 8}","[1, 6, 7, 19, 25]",12461478191251,K1Mn1H24C14N8
RbCoH24(C7N4)2,mp-698210,4.2736,-1.39088351,0.21117206691406043,"{37: 1, 27: 1, 1: 24, 6: 14, 7: 8}","[1, 6, 7, 27, 37]",12461478271371,Rb1Co1H24C14N8
CsCoH24(C7N4)2,mp-1197964,4.2725,-1.93761126,0.17243563699218534,"{55: 1, 27: 1, 1: 24, 6: 14, 7: 8}","[1, 6, 7, 27, 55]",12461478271551,Cs1Co1H24C14N8
H24AuC16S2N3O4,mp-1201227,2.3314,-0.34174906,0.20998450628000054,"{1: 24, 79: 1, 6: 16, 16: 2, 7: 3, 8: 4}","[1, 6, 7, 8, 16, 79]",1246167384162791,H24Au1C16S2N3O4
CoH24C2S2(N3O7)2,mp-1198847,1.879,1.78774439,0.03395036287075115,"{27: 1, 1: 24, 6: 2, 16: 2, 7: 6, 8: 14}","[1, 6, 7, 8, 16, 27]",1246276814162271,Co1H24C2S2N6O14
LaH24C3N3(Cl2O)3,mp-600190,4.1757,-0.76502798,0.040985911531247865,"{57: 1, 1: 24, 6: 3, 7: 3, 17: 6, 8: 3}","[1, 6, 7, 8, 17, 57]",124637383176571,La1H24C3N3Cl6O3
ScH24C3S3(N3O5)3,mp-559113,4.3525,-0.8154746,0.029919121394637926,"{21: 1, 1: 24, 6: 3, 16: 3, 7: 9, 8: 15}","[1, 6, 7, 8, 16, 21]",1246379815163211,Sc1H24C3S3N9O15
CaMgUH24C3O23,mp-720999,2.3373,-1.41273405,0.01990655632077054,"{20: 1, 12: 1, 92: 1, 1: 24, 6: 3, 8: 23}","[1, 6, 8, 12, 20, 92]",12463823121201921,Ca1Mg1U1H24C3O23
SrMgUH24C3O23,mp-707710,2.2667,-1.45975052,0.015646904198125533,"{38: 1, 12: 1, 92: 1, 1: 24, 6: 3, 8: 23}","[1, 6, 8, 12, 38, 92]",12463823121381921,Sr1Mg1U1H24C3O23
CdH24C4(BrN2)6,mp-707501,3.4789,-0.83860373,0.0023179021843962033,"{48: 1, 1: 24, 6: 4, 35: 6, 7: 12}","[1, 6, 7, 35, 48]",12464712356481,Cd1H24C4Br6N12
Zn3H24C4Se5(N4O5)3,mp-1198217,4.199,-0.32440634,0.1432419242724885,"{30: 3, 1: 24, 6: 4, 34: 5, 7: 12, 8: 15}","[1, 6, 7, 8, 30, 34]",12464712815303345,Zn3H24C4Se5N12O15
VH24C4N4Cl7,mp-736386,0.14590000000000003,0.82500778,0.06583169224999796,"{23: 1, 1: 24, 6: 4, 7: 4, 17: 7}","[1, 6, 7, 17, 23]",1246474177231,V1H24C4N4Cl7
LuH24C4N4Cl7,mp-600181,4.8904,-1.39774902,0.041539687249999346,"{71: 1, 1: 24, 6: 4, 7: 4, 17: 7}","[1, 6, 7, 17, 71]",1246474177711,Lu1H24C4N4Cl7
PuCoH24C4N6O13,mp-729906,0.8905000000000001,1.72867737,0.058325236989777096,"{94: 1, 27: 1, 1: 24, 6: 4, 7: 6, 8: 13}","[1, 6, 7, 8, 27, 94]",1246476813271941,Pu1Co1H24C4N6O13
CoH24C4S4N8(ClO4)2,mp-1199171,1.4274,-0.23180562,0.3302469386114817,"{27: 1, 1: 24, 6: 4, 16: 4, 7: 8, 17: 2, 8: 8}","[1, 6, 7, 8, 16, 17, 27]",124647888164172271,Co1H24C4S4N8Cl2O8
NdH24C4I3(NO)8,mp-1198292,4.0563,3.23551653,0.023381156649328716,"{60: 1, 1: 24, 6: 4, 53: 3, 7: 8, 8: 8}","[1, 6, 7, 8, 53, 60]",124647888533601,Nd1H24C4I3N8O8
Na6UH24C5O27,mp-1201393,0.39190000000000014,1.89882106,0.05644032346010608,"{11: 6, 92: 1, 1: 24, 6: 5, 8: 27}","[1, 6, 8, 11, 92]",12465827116921,Na6U1H24C5O27
MgH24C6N12(ClO6)2,mp-707907,5.1989,-0.86082454,0.24037162713449156,"{12: 1, 1: 24, 6: 6, 7: 12, 17: 2, 8: 12}","[1, 6, 7, 8, 12, 17]",12466712812121172,Mg1H24C6N12Cl2O12
CaH24C6Br2(N2O)6,mp-1195960,4.6316,3.38711003,0.0,"{20: 1, 1: 24, 6: 6, 35: 2, 7: 12, 8: 6}","[1, 6, 7, 8, 20, 35]",1246671286201352,Ca1H24C6Br2N12O6
TiH24C6I3(N2O)6,mp-1203248,0.0,1.82653076,0.02952402263087439,"{22: 1, 1: 24, 6: 6, 53: 3, 7: 12, 8: 6}","[1, 6, 7, 8, 22, 53]",1246671286221533,Ti1H24C6I3N12O6
ZnH24C6(N7O6)2,mp-1200249,3.4005,2.47978701,0.20338492715401113,"{30: 1, 1: 24, 6: 6, 7: 14, 8: 12}","[1, 6, 7, 8, 30]",12466714812301,Zn1H24C6N14O12
Zn3P4H24C6(NO6)2,mp-1200588,4.9593,3.7605309,0.09624969698528574,"{30: 3, 15: 4, 1: 24, 6: 6, 7: 2, 8: 12}","[1, 6, 7, 8, 15, 30]",1246672812154303,Zn3P4H24C6N2O12
SnH24C6N2(OF3)2,mp-698397,4.7044,-2.46349816,0.07709477475609461,"{50: 1, 1: 24, 6: 6, 7: 2, 8: 2, 9: 6}","[1, 6, 7, 8, 9, 50]",12466728296501,Sn1H24C6N2O2F6
CrCo3H24C6(N10O11)3,mp-744721,0.5861000000000001,-1.18326715,0.745054206670102,"{24: 1, 27: 3, 1: 24, 6: 6, 7: 30, 8: 33}","[1, 6, 7, 8, 24, 27]",12466730833241273,Cr1Co3H24C6N30O33
SbH24C6(NCl2)3,mp-738686,3.5956,-0.60030208,0.028119206562498,"{51: 1, 1: 24, 6: 6, 7: 3, 17: 6}","[1, 6, 7, 17, 51]",1246673176511,Sb1H24C6N3Cl6
Sb2H24C6(NCl3)3,mp-1198102,3.1938999999999997,-0.67640916,0.04654803051136547,"{51: 2, 1: 24, 6: 6, 7: 3, 17: 9}","[1, 6, 7, 17, 51]",1246673179512,Sb2H24C6N3Cl9
InH24C6(Br2N)3,mp-600242,2.7839,-1.05813365,0.0708958077499986,"{49: 1, 1: 24, 6: 6, 35: 6, 7: 3}","[1, 6, 7, 35, 49]",1246673356491,In1H24C6Br6N3
BiH24C6(I2N)3,mp-601924,2.7822999999999998,-0.04525463,0.06997456743750075,"{83: 1, 1: 24, 6: 6, 53: 6, 7: 3}","[1, 6, 7, 53, 83]",1246673536831,Bi1H24C6I6N3
SiMo12H24C6N3O40,mp-729152,0.0,-0.61211531,0.24478124081152774,"{14: 1, 42: 12, 1: 24, 6: 6, 7: 3, 8: 40}","[1, 6, 7, 8, 14, 42]",12466738401414212,Si1Mo12H24C6N3O40
Mo12PH24C6N3O40,mp-720800,2.341,-0.48404466,0.19666822482800228,"{42: 12, 15: 1, 1: 24, 6: 6, 7: 3, 8: 40}","[1, 6, 7, 8, 15, 42]",12466738401514212,Mo12P1H24C6N3O40
PH24W12C6N3O40,mp-1180044,3.3213,-0.94616755,0.1004323661944948,"{15: 1, 1: 24, 74: 12, 6: 6, 7: 3, 8: 40}","[1, 6, 7, 8, 15, 74]",12466738401517412,P1H24W12C6N3O40
CoH24C6Br2(N2O3)2,mp-1195446,2.5201000000000002,-2.24252081,0.15555907165697658,"{27: 1, 1: 24, 6: 6, 35: 2, 7: 4, 8: 6}","[1, 6, 7, 8, 27, 35]",124667486271352,Co1H24C6Br2N4O6
CaH24C6(BrO3)2,mp-1202638,4.6551,-2.10606193,0.12522511083333043,"{20: 1, 1: 24, 6: 6, 35: 2, 8: 6}","[1, 6, 8, 20, 35]",1246686201352,Ca1H24C6Br2O6
H24RuC7S3NCl3O4,mp-738597,2.7961,0.22482538,0.24204526671926896,"{1: 24, 44: 1, 6: 7, 16: 3, 7: 1, 17: 3, 8: 4}","[1, 6, 7, 8, 16, 17, 44]",124677184163173441,H24Ru1C7S3N1Cl3O4
AlGe2P(H3C)8,mp-568107,3.8439,-1.35437032,0.08508619958333163,"{13: 1, 32: 2, 15: 1, 1: 24, 6: 8}","[1, 6, 13, 15, 32]",12468131151322,Al1Ge2P1H24C8
AlSn2P(H3C)8,mp-567609,3.3878000000000004,-0.80731869,0.12221313722222238,"{13: 1, 50: 2, 15: 1, 1: 24, 6: 8}","[1, 6, 13, 15, 50]",12468131151502,Al1Sn2P1H24C8
InSi2P(H3C)8,mp-569070,3.7122,-0.84430504,0.0660697111520463,"{49: 1, 14: 2, 15: 1, 1: 24, 6: 8}","[1, 6, 14, 15, 49]",12468142151491,In1Si2P1H24C8
GaSi2As(H3C)8,mp-568873,3.7194000000000003,-1.03479758,0.06278890434649043,"{31: 1, 14: 2, 33: 1, 1: 24, 6: 8}","[1, 6, 14, 31, 33]",12468142311331,Ga1Si2As1H24C8
InSi2As(H3C)8,mp-568872,3.4387,-0.78276293,0.07278561740204648,"{49: 1, 14: 2, 33: 1, 1: 24, 6: 8}","[1, 6, 14, 33, 49]",12468142331491,In1Si2As1H24C8
InGe2P(H3C)8,mp-1202409,3.3761,-1.26698683,0.0937978927777765,"{49: 1, 32: 2, 15: 1, 1: 24, 6: 8}","[1, 6, 15, 32, 49]",12468151322491,In1Ge2P1H24C8
InSn2P(H3C)8,mp-1200383,3.1096,1.76649122,0.13226511462962787,"{49: 1, 50: 2, 15: 1, 1: 24, 6: 8}","[1, 6, 15, 49, 50]",12468151491502,In1Sn2P1H24C8
P2H24AuC8I,mp-1173391,3.1130000000000004,-1.08616665,0.049215001191893926,"{15: 2, 1: 24, 79: 1, 6: 8, 53: 1}","[1, 6, 15, 53, 79]",12468152531791,P2H24Au1C8I1
SnSb2H24C8(SCl)2,mp-773893,3.0911999999999997,-0.21119202,0.12675647397435874,"{50: 1, 51: 2, 1: 24, 6: 8, 16: 2, 17: 2}","[1, 6, 16, 17, 50, 51]",12468162172501512,Sn1Sb2H24C8S2Cl2
H24RuC8(S2Cl)2,mp-605665,2.3670999999999998,0.64631667,0.056258852220696376,"{1: 24, 44: 1, 6: 8, 16: 4, 17: 2}","[1, 6, 16, 17, 44]",12468164172441,H24Ru1C8S4Cl2
CoP2H24C8S4NClO4,mp-746679,2.0123,0.28338075,0.13535961892592496,"{27: 1, 15: 2, 1: 24, 6: 8, 16: 4, 7: 1, 17: 1, 8: 4}","[1, 6, 7, 8, 15, 16, 17, 27]",124687184152164171271,Co1P2H24C8S4N1Cl1O4
NaH24Ru(C2N5)4,mp-1194938,0.2587,0.59516679,0.28952620703704124,"{11: 1, 1: 24, 44: 1, 6: 8, 7: 20}","[1, 6, 7, 11, 44]",12468720111441,Na1H24Ru1C8N20
MnGe4H24C8(S5N)2,mp-698410,1.4138000000000002,1.02280069,0.05793690155612552,"{25: 1, 32: 4, 1: 24, 6: 8, 16: 10, 7: 2}","[1, 6, 7, 16, 25, 32]",12468721610251324,Mn1Ge4H24C8S10N2
RbBiAs6H24C8(S6N)2,mp-556621,1.8746,1.41780301,0.05031210241666795,"{37: 1, 83: 1, 33: 6, 1: 24, 6: 8, 16: 12, 7: 2}","[1, 6, 7, 16, 33, 37, 83]",12468721612336371831,Rb1Bi1As6H24C8S12N2
Mo3H24C8S13N2,mp-40157,1.2768,1.41087371,0.10186420950714137,"{42: 3, 1: 24, 6: 8, 16: 13, 7: 2}","[1, 6, 7, 16, 42]",12468721613423,Mo3H24C8S13N2
As4H24C8S7N2,mp-782100,2.4279,1.59227414,0.07180682535555594,"{33: 4, 1: 24, 6: 8, 16: 7, 7: 2}","[1, 6, 7, 16, 33]",1246872167334,As4H24C8S7N2
H24PdC8(NCl2)2,mp-707284,1.8282,-0.71339968,0.0955585270512831,"{1: 24, 46: 1, 6: 8, 7: 2, 17: 4}","[1, 6, 7, 17, 46]",1246872174461,H24Pd1C8N2Cl4
MnSn4H24C8(Se5N)2,mp-1199595,0.9195000000000001,0.84195022,0.05950993012754946,"{25: 1, 50: 4, 1: 24, 6: 8, 34: 10, 7: 2}","[1, 6, 7, 25, 34, 50]",12468722513410504,Mn1Sn4H24C8Se10N2
HgH24C8(I2N)2,mp-605659,2.5974,-0.88341506,0.11479083155448766,"{80: 1, 1: 24, 6: 8, 53: 4, 7: 2}","[1, 6, 7, 53, 80]",1246872534801,Hg1H24C8I4N2
Cr3H24C8(NO5)2,mp-728473,3.0674,-1.92166926,0.3472194365558492,"{24: 3, 1: 24, 6: 8, 7: 2, 8: 10}","[1, 6, 7, 8, 24]",1246872810243,Cr3H24C8N2O10
Mo6H24C8N2O19,mp-1199757,2.8571999999999997,-1.46395959,0.22622870237288328,"{42: 6, 1: 24, 6: 8, 7: 2, 8: 19}","[1, 6, 7, 8, 42]",1246872819426,Mo6H24C8N2O19
UH24C8N2(Cl2O)2,mp-1197122,2.3977,-1.94676542,0.07793579419248697,"{92: 1, 1: 24, 6: 8, 7: 2, 17: 4, 8: 2}","[1, 6, 7, 8, 17, 92]",124687282174921,U1H24C8N2Cl4O2
PuH24C8N2(Cl2O)2,mp-1203606,0.22460000000000002,-0.90897697,0.11902200093495807,"{94: 1, 1: 24, 6: 8, 7: 2, 17: 4, 8: 2}","[1, 6, 7, 8, 17, 94]",124687282174941,Pu1H24C8N2Cl4O2
V12CoH24C8(NO16)2,mp-1201666,0.38020000000000004,-0.26788104,0.3715002336919868,"{23: 12, 27: 1, 1: 24, 6: 8, 7: 2, 8: 32}","[1, 6, 7, 8, 23, 27]",12468728322312271,V12Co1H24C8N2O32
H24C8S(NO2)2,mp-707249,3.7835,-0.08169541,0.1561111750256412,"{1: 24, 6: 8, 16: 1, 7: 2, 8: 4}","[1, 6, 7, 8, 16]",124687284161,H24C8S1N2O4
U6H24C8S7(NO21)2,mp-1200392,0.1298,-0.28968978,0.2706092636797628,"{92: 6, 1: 24, 6: 8, 16: 7, 7: 2, 8: 42}","[1, 6, 7, 8, 16, 92]",1246872842167926,U6H24C8S7N2O42
H24C8Se(NO2)2,mp-677203,4.1072,-0.7424113,0.22095948843349333,"{1: 24, 6: 8, 34: 1, 7: 2, 8: 4}","[1, 6, 7, 8, 34]",124687284341,H24C8Se1N2O4
VH24C8S2N2O9,mp-721235,3.1064,-0.54415802,0.208162771739131,"{23: 1, 1: 24, 6: 8, 16: 2, 7: 2, 8: 9}","[1, 6, 7, 8, 16, 23]",124687289162231,V1H24C8S2N2O9
ZrH24C8(NF3)2,mp-1203669,6.552,-3.68128588,0.0908654500609618,"{40: 1, 1: 24, 6: 8, 7: 2, 9: 6}","[1, 6, 7, 9, 40]",124687296401,Zr1H24C8N2F6
H24OsC8(NF3)2,mp-555945,0.17430000000000012,1.2582464,0.18563443957317105,"{1: 24, 76: 1, 6: 8, 7: 2, 9: 6}","[1, 6, 7, 9, 76]",124687296761,H24Os1C8N2F6
H24PtC8(NF3)2,mp-698446,2.8681,-1.55665837,0.2061986510365852,"{1: 24, 78: 1, 6: 8, 7: 2, 9: 6}","[1, 6, 7, 9, 78]",124687296781,H24Pt1C8N2F6
RbAs7H24C8N3,mp-707888,0.0,0.997509,0.2593833012354674,"{37: 1, 33: 7, 1: 24, 6: 8, 7: 3}","[1, 6, 7, 33, 37]",1246873337371,Rb1As7H24C8N3
TaH24C8N4Cl,mp-1198272,2.7991,1.722139,0.14197755929824396,"{73: 1, 1: 24, 6: 8, 7: 4, 17: 1}","[1, 6, 7, 17, 73]",1246874171731,Ta1H24C8N4Cl1
VH24(C2N)4,mp-1205195,0.0043999999999999595,0.56011351,0.1628161433277029,"{23: 1, 1: 24, 6: 8, 7: 4}","[1, 6, 7, 23]",1246874231,V1H24C8N4
Mg3ZnH24(CO3)8,mp-1222377,4.7282,-1.43906982,0.07789913649999392,"{12: 3, 30: 1, 1: 24, 6: 8, 8: 24}","[1, 6, 8, 12, 30]",12468824123301,Mg3Zn1H24C8O24
Sn2As2H24C8S2O3,mp-1203137,3.1092000000000004,-0.79641448,0.14554874405487883,"{50: 2, 33: 2, 1: 24, 6: 8, 16: 2, 8: 3}","[1, 6, 8, 16, 33, 50]",1246883162332502,Sn2As2H24C8S2O3
Sr3CaAl8H24(C2O11)4,mp-1218664,5.0444,0.99241368,0.001505726789779338,"{38: 3, 20: 1, 13: 8, 1: 24, 6: 8, 8: 44}","[1, 6, 8, 13, 20, 38]",12468844138201383,Sr3Ca1Al8H24C8O44
V2Sn4H24C8O9,mp-867517,3.1644,2.13840997,0.14565484329787548,"{23: 2, 50: 4, 1: 24, 6: 8, 8: 9}","[1, 6, 8, 23, 50]",1246889232504,V2Sn4H24C8O9
AgH24C9S3N6ClO4,mp-1202475,3.3139,-0.11186298,0.30078561135416937,"{47: 1, 1: 24, 6: 9, 16: 3, 7: 6, 17: 1, 8: 4}","[1, 6, 7, 8, 16, 17, 47]",124697684163171471,Ag1H24C9S3N6Cl1O4
B11H2CCl11,mp-1205245,3.5631,-0.79638028,0.0006327366646470267,"{5: 11, 1: 2, 6: 1, 17: 11}","[1, 5, 6, 17]",12511611711,B11H2C1Cl11
BH2CN,mp-1228833,4.8878,1.25692261,0.54330837925,"{5: 1, 1: 2, 6: 1, 7: 1}","[1, 5, 6, 7]",12516171,B1H2C1N1
BH2CO,mp-696298,4.0087,-3.089221,0.6044682757291655,"{5: 1, 1: 2, 6: 1, 8: 1}","[1, 5, 6, 8]",12516181,B1H2C1O1
B(HC)2,mp-1214830,0.18230000000000013,-3.31247389,0.8278984959583324,"{5: 1, 1: 2, 6: 2}","[1, 5, 6]",125162,B1H2C2
B9H25C4NCl,mp-1199287,3.6529,1.98061462,0.17360790595192288,"{5: 9, 1: 25, 6: 4, 7: 1, 17: 1}","[1, 5, 6, 7, 17]",125596471171,B9H25C4N1Cl1
Si2H25C10N,mp-605056,4.3908,-1.30226833,0.06630612742555364,"{14: 2, 1: 25, 6: 10, 7: 1}","[1, 6, 7, 14]",12561071142,Si2H25C10N1
UH25C12NO8,mp-1197493,2.4013,-1.43482945,0.09587730237588143,"{92: 1, 1: 25, 6: 12, 7: 1, 8: 8}","[1, 6, 7, 8, 92]",1256127188921,U1H25C12N1O8
KH25C13(NO4)2,mp-1196190,1.2326,1.06323424,0.30697442261479413,"{19: 1, 1: 25, 6: 13, 7: 2, 8: 8}","[1, 6, 7, 8, 19]",1256137288191,K1H25C13N2O8
H25C8IN2(OF2)2,mp-1199286,4.616,-1.74336824,0.24016441627976182,"{1: 25, 6: 8, 53: 1, 7: 2, 8: 2, 9: 4}","[1, 6, 7, 8, 9, 53]",12568728294531,H25C8I1N2O2F4
NaMo2H25(C4O5)2,mp-1201482,2.6776,-1.10657518,0.2080181562817005,"{11: 1, 42: 2, 1: 25, 6: 8, 8: 10}","[1, 6, 8, 11, 42]",12568810111422,Na1Mo2H25C8O10
BiH25C8(SO2)6,mp-1200655,3.9231,3.21246992,0.2711522078640112,"{83: 1, 1: 25, 6: 8, 16: 6, 8: 12}","[1, 6, 8, 16, 83]",12568812166831,Bi1H25C8S6O12
H2C,mp-985782,6.167999999999999,-2.1309155,0.044776267916665446,"{1: 2, 6: 1}","[1, 6]",1261,H2C1
H2Os3(CO)10,mp-600347,1.7320000000000002,-0.39957702,0.22614426065000082,"{1: 2, 76: 3, 6: 10, 8: 10}","[1, 6, 8, 76]",12610810763,H2Os3C10O10
H2CS3,mp-709098,2.0285,0.23271947,0.17559379133928488,"{1: 2, 6: 1, 16: 3}","[1, 6, 16]",1261163,H2C1S3
H2CBrCl,mp-1224461,4.740600000000001,-2.75110009,0.06783938099999887,"{1: 2, 6: 1, 35: 1, 17: 1}","[1, 6, 17, 35]",1261171351,H2C1Br1Cl1
As2H2CCl4,mp-1198214,3.1959,-0.73060863,0.07729292199074056,"{33: 2, 1: 2, 6: 1, 17: 4}","[1, 6, 17, 33]",1261174332,As2H2C1Cl4
K3Mn3H2C12O13,mp-728768,1.8800000000000003,0.88426509,0.6076029124810614,"{19: 3, 25: 3, 1: 2, 6: 12, 8: 13}","[1, 6, 8, 19, 25]",12612813193253,K3Mn3H2C12O13
H2Ru4(CO)13,mp-721193,1.7978999999999998,-0.13087782,0.2236336825781251,"{1: 2, 44: 4, 6: 13, 8: 13}","[1, 6, 8, 44]",12613813444,H2Ru4C13O13
H2Os4Pt(CO)15,mp-740758,1.8919000000000001,-0.13612513,0.22540975736486502,"{1: 2, 76: 4, 78: 1, 6: 15, 8: 15}","[1, 6, 8, 76, 78]",12615815764781,H2Os4Pt1C15O15
H2Os5(CO)16,mp-707849,1.7437,1.58242269,0.22263092964743514,"{1: 2, 76: 5, 6: 16, 8: 16}","[1, 6, 8, 76]",12616816765,H2Os5C16O16
AgH2CS2N,mp-1192660,1.9599,1.68940157,0.07488072763702469,"{47: 1, 1: 2, 6: 1, 16: 2, 7: 1}","[1, 6, 7, 16, 47]",126171162471,Ag1H2C1S2N1
H2CN2,mp-30094,4.709899999999999,-1.33020542,0.13903318024999933,"{1: 2, 6: 1, 7: 2}","[1, 6, 7]",126172,H2C1N2
As8H2CS10(N10Cl)2,mp-1197935,1.3071,1.10736811,0.4824007643059556,"{33: 8, 1: 2, 6: 1, 16: 10, 7: 20, 17: 2}","[1, 6, 7, 16, 17, 33]",12617201610172338,As8H2C1S10N20Cl2
P3H2CN2Cl11,mp-1201431,2.3205999999999998,0.13889865,0.06269199876315756,"{15: 3, 1: 2, 6: 1, 7: 2, 17: 11}","[1, 6, 7, 15, 17]",1261721531711,P3H2C1N2Cl11
Sb2Te3H2C(NCl9)2,mp-1201099,1.71,-0.16022592,0.1923948419592132,"{51: 2, 52: 3, 1: 2, 6: 1, 7: 2, 17: 18}","[1, 6, 7, 17, 51, 52]",1261721718512523,Sb2Te3H2C1N2Cl18
H2C(NO)2,mp-24332,2.1612,-0.48869532,0.4459624103769846,"{1: 2, 6: 1, 7: 2, 8: 2}","[1, 6, 7, 8]",12617282,H2C1N2O2
KCoH2CN4O7,mp-1212205,0.7127000000000001,-1.2928569,1.1461262712500009,"{19: 1, 27: 1, 1: 2, 6: 1, 7: 4, 8: 7}","[1, 6, 7, 8, 19, 27]",12617487191271,K1Co1H2C1N4O7
H2CN5,mp-1212563,4.1171999999999995,3.98250835,0.16179864781250064,"{1: 2, 6: 1, 7: 5}","[1, 6, 7]",126175,H2C1N5
KH2CN5,mp-1211655,4.0164,-0.31247911,0.014462388055553,"{19: 1, 1: 2, 6: 1, 7: 5}","[1, 6, 7, 19]",126175191,K1H2C1N5
RbH2CN5,mp-1209399,4.1362,3.7218297,0.0063119252777763535,"{37: 1, 1: 2, 6: 1, 7: 5}","[1, 6, 7, 37]",126175371,Rb1H2C1N5
CsH2CN5,mp-1213652,4.0637,4.06614728,0.004858975833331058,"{55: 1, 1: 2, 6: 1, 7: 5}","[1, 6, 7, 55]",126175551,Cs1H2C1N5
H2Ru6(CO)17,mp-720808,1.5791,0.12409813,0.23367837642857303,"{1: 2, 44: 6, 6: 17, 8: 17}","[1, 6, 8, 44]",12617817446,H2Ru6C17O17
H2CO,mp-625082,0.022800000000000015,0.16753935,0.22530582624999962,"{1: 2, 6: 1, 8: 1}","[1, 6, 8]",126181,H2C1O1
Ca4Si2H2CO11,mp-604909,4.6256,1.34997855,0.003991702333332903,"{20: 4, 14: 2, 1: 2, 6: 1, 8: 11}","[1, 6, 8, 14, 20]",1261811142204,Ca4Si2H2C1O11
UP2H2CO13,mp-1201340,0.23860000000000015,-1.28917687,1.193766304440791,"{92: 1, 15: 2, 1: 2, 6: 1, 8: 13}","[1, 6, 8, 15, 92]",1261813152921,U1P2H2C1O13
U2P2H2CO14,mp-1198873,0.0,-0.66860401,1.0779555912797605,"{92: 2, 15: 2, 1: 2, 6: 1, 8: 14}","[1, 6, 8, 15, 92]",1261814152922,U2P2H2C1O14
H2CO2,mp-558412,4.8596,-2.39383245,0.12911330524999975,"{1: 2, 6: 1, 8: 2}","[1, 6, 8]",126182,H2C1O2
K2H2OsCCl5O2,mp-774223,0.5613,0.11662532,0.029117403333333236,"{19: 2, 1: 2, 76: 1, 6: 1, 17: 5, 8: 2}","[1, 6, 8, 17, 19, 76]",126182175192761,K2H2Os1C1Cl5O2
H2CO3,mp-1001080,5.6848,-3.106265,0.0047426720833332325,"{1: 2, 6: 1, 8: 3}","[1, 6, 8]",126183,H2C1O3
CaH2CClO3,mp-644418,3.5857,0.39316398,0.016242131171876117,"{20: 1, 1: 2, 6: 1, 17: 1, 8: 3}","[1, 6, 8, 17, 20]",126183171201,Ca1H2C1Cl1O3
CoH2CO3,mp-1204815,0.0,1.61067285,0.19227444619047418,"{27: 1, 1: 2, 6: 1, 8: 3}","[1, 6, 8, 27]",126183271,Co1H2C1O3
CsH2CO3,mp-696986,3.4219999999999997,-0.10926641,0.042383318660704994,"{55: 1, 1: 2, 6: 1, 8: 3}","[1, 6, 8, 55]",126183551,Cs1H2C1O3
SiH2CS(OF)3,mp-1201229,5.5535,-2.43113238,0.7457523805806314,"{14: 1, 1: 2, 6: 1, 16: 1, 8: 3, 9: 3}","[1, 6, 8, 9, 14, 16]",12618393141161,Si1H2C1S1O3F3
UH2C(OF)3,mp-1200440,0.17510000000000003,2.99822755,0.053490125833332236,"{92: 1, 1: 2, 6: 1, 8: 3, 9: 3}","[1, 6, 8, 9, 92]",12618393921,U1H2C1O3F3
SbH2CS(OF3)3,mp-1196706,4.9442,-3.34402251,0.0990713321200909,"{51: 1, 1: 2, 6: 1, 16: 1, 8: 3, 9: 9}","[1, 6, 8, 9, 16, 51]",12618399161511,Sb1H2C1S1O3F9
Na2H2CO4,mp-721312,4.169099999999999,0.42586907,0.002118314212962602,"{11: 2, 1: 2, 6: 1, 8: 4}","[1, 6, 8, 11]",126184112,Na2H2C1O4
H2CSO4,mp-995221,5.8997,-1.87969018,0.34049842525567886,"{1: 2, 6: 1, 16: 1, 8: 4}","[1, 6, 8, 16]",126184161,H2C1S1O4