formula,material_id,band_gap,efermi,energy_above_hull,comp_atoms,sorted_keys_comp_atoms,comp_number,new_formula
Cr2C13SN3(O2F)5,mp-699555,1.8131,1.03704888,0.6026051519599092,"{24: 2, 6: 13, 16: 1, 7: 3, 8: 10, 9: 5}","[6, 7, 8, 9, 16, 24]",6137381095161242,Cr2C13S1N3O10F5
Rb4C,mp-1209415,0.0,0.56364976,0.9900803910625002,"{37: 4, 6: 1}","[6, 37]",61374,Rb4C1
SrC,mp-1208639,0.0,2.1810573,1.2958611983333324,"{38: 1, 6: 1}","[6, 38]",61381,Sr1C1
Co6C13(SO6)2,mp-622901,1.6518000000000002,-0.44518159,0.5058543360132504,"{27: 6, 6: 13, 16: 2, 8: 12}","[6, 8, 16, 27]",613812162276,Co6C13S2O12
Os4C13(SO6)2,mp-662796,1.8984999999999999,0.49346133,0.2148921133064512,"{76: 4, 6: 13, 16: 2, 8: 12}","[6, 8, 16, 76]",613812162764,Os4C13S2O12
Co6C13(SeO6)2,mp-706566,1.4655,-0.48442179,0.4806687332070707,"{27: 6, 6: 13, 34: 2, 8: 12}","[6, 8, 27, 34]",613812276342,Co6C13Se2O12
Os4C13SO13,mp-649945,1.96,1.71184079,0.19644558044354632,"{76: 4, 6: 13, 16: 1, 8: 13}","[6, 8, 16, 76]",613813161764,Os4C13S1O13
Os4C13S2O13,mp-648263,2.9367,0.04048179,0.17077309589843637,"{76: 4, 6: 13, 16: 2, 8: 13}","[6, 8, 16, 76]",613813162764,Os4C13S2O13
Co4Ge(CO)13,mp-652229,1.958,-1.07412856,0.45013822801075243,"{27: 4, 32: 1, 6: 13, 8: 13}","[6, 8, 27, 32]",613813274321,Co4Ge1C13O13
MoP4C13O2,mp-1180604,0.0,-2.655932,2.1905166379993384,"{42: 1, 15: 4, 6: 13, 8: 2}","[6, 8, 15, 42]",61382154421,Mo1P4C13O2
C13F7,mp-1196461,1.1301,1.19057255,0.2684688293229165,"{6: 13, 9: 7}","[6, 9]",61397,C13F7
ZrC,mp-2795,0.0,5.77434079,0.0,"{40: 1, 6: 1}","[6, 40]",61401,Zr1C1
ZrRu3C,mp-10706,0.0,7.78904207,0.0,"{40: 1, 44: 3, 6: 1}","[6, 40, 44]",61401443,Zr1Ru3C1
Zr2InC,mp-20004,0.0,6.24500662,0.0,"{40: 2, 49: 1, 6: 1}","[6, 40, 49]",61402491,Zr2In1C1
Zr2SnC,mp-4613,0.0,6.97129634,0.0,"{40: 2, 50: 1, 6: 1}","[6, 40, 50]",61402501,Zr2Sn1C1
Zr2TlC,mp-1025524,0.0,6.24135752,0.0,"{40: 2, 81: 1, 6: 1}","[6, 40, 81]",61402811,Zr2Tl1C1
Zr2PbC,mp-1079992,0.0,6.94202042,0.0,"{40: 2, 82: 1, 6: 1}","[6, 40, 82]",61402821,Zr2Pb1C1
Zr3C,mp-1188023,0.0,5.02973132,1.1510861962499996,"{40: 3, 6: 1}","[6, 40]",61403,Zr3C1
Zr4Os2C,mp-1193527,0.0,5.37543524,0.05521221870748505,"{40: 4, 76: 2, 6: 1}","[6, 40, 76]",61404762,Zr4Os2C1
Zr5Sn3C,mp-1207413,0.0,6.7595044,0.0,"{40: 5, 50: 3, 6: 1}","[6, 40, 50]",61405503,Zr5Sn3C1
Zr5Sb3C,mp-1105738,0.0,7.56150026,0.0,"{40: 5, 51: 3, 6: 1}","[6, 40, 51]",61405513,Zr5Sb3C1
Zr6CI12,mp-28345,0.28039999999999976,4.04770762,0.0023934831578964477,"{40: 6, 6: 1, 53: 12}","[6, 40, 53]",614065312,Zr6C1I12
Zr6CI14,mp-28344,0.7934999999999999,2.80136651,0.0,"{40: 6, 6: 1, 53: 14}","[6, 40, 53]",614065314,Zr6C1I14
CsZr6CI14,mp-582176,0.0,3.94093123,0.0,"{55: 1, 40: 6, 6: 1, 53: 14}","[6, 40, 53, 55]",614065314551,Cs1Zr6C1I14
Cs2Zr7CI18,mp-571150,0.11840000000000028,3.88890435,0.0,"{55: 2, 40: 7, 6: 1, 53: 18}","[6, 40, 53, 55]",614075318552,Cs2Zr7C1I18
NbC,mp-910,0.0,7.21371337,0.04103211687499986,"{41: 1, 6: 1}","[6, 41]",61411,Nb1C1
NbRu3C,mp-22351,0.0,8.07374744,0.17016543475000034,"{41: 1, 44: 3, 6: 1}","[6, 41, 44]",61411443,Nb1Ru3C1
Nb2C,mp-569989,0.0,5.55107395,0.0,"{41: 2, 6: 1}","[6, 41]",61412,Nb2C1
Nb2InC,mp-19835,0.0,7.0534482,0.0,"{41: 2, 49: 1, 6: 1}","[6, 41, 49]",61412491,Nb2In1C1
Nb2SnC,mp-5443,0.0,7.8072834,0.0,"{41: 2, 50: 1, 6: 1}","[6, 41, 50]",61412501,Nb2Sn1C1
Nb4Rh2C,mp-1194192,0.0,5.93513191,0.027490772142858333,"{41: 4, 45: 2, 6: 1}","[6, 41, 45]",61414452,Nb4Rh2C1
La14C14Cl9,mp-570240,0.0,7.44440147,0.0,"{57: 14, 6: 14, 17: 9}","[6, 17, 57]",6141795714,La14C14Cl9
Pr14C14Cl9,mp-1196687,0.0,4.61273813,0.0055375772972965365,"{59: 14, 6: 14, 17: 9}","[6, 17, 59]",6141795914,Pr14C14Cl9
MoC,mp-2305,0.0,8.99072525,0.00149550312499791,"{42: 1, 6: 1}","[6, 42]",61421,Mo1C1
Mo2C,mp-1552,0.0,8.61518803,0.0,"{42: 2, 6: 1}","[6, 42]",61422,Mo2C1
Mo2Rh2C,mp-1221480,0.0,7.69297209,0.10139066549999853,"{42: 2, 45: 2, 6: 1}","[6, 42, 45]",61422452,Mo2Rh2C1
ReMo2C,mp-1219541,0.0,8.16275103,0.3287955668749998,"{75: 1, 42: 2, 6: 1}","[6, 42, 75]",61422751,Re1Mo2C1
Mo2Ir2C,mp-1221512,0.0,8.96842161,0.7127966744999998,"{42: 2, 77: 2, 6: 1}","[6, 42, 77]",61422772,Mo2Ir2C1
Re2Mo3C,mp-1190846,0.0,8.07704508,0.07215963958333305,"{75: 2, 42: 3, 6: 1}","[6, 42, 75]",61423752,Re2Mo3C1
TcC,mp-1009848,0.0,6.33978937,0.5580503837499986,"{43: 1, 6: 1}","[6, 43]",61431,Tc1C1
TcW2C,mp-1217376,0.0,7.8806409,0.22881035875000144,"{43: 1, 74: 2, 6: 1}","[6, 43, 74]",61431742,Tc1W2C1
Tc3C,mp-1187391,0.0,8.78713628,1.045193819375001,"{43: 3, 6: 1}","[6, 43]",61433,Tc3C1
RuC,mp-999259,0.0,7.98122942,0.3661330237500007,"{44: 1, 6: 1}","[6, 44]",61441,Ru1C1
CeRu3C,mp-1206127,0.0,9.09503889,0.0,"{58: 1, 44: 3, 6: 1}","[6, 44, 58]",61443581,Ce1Ru3C1
DyRu3C,mp-1206121,0.0,6.77260655,0.0,"{66: 1, 44: 3, 6: 1}","[6, 44, 66]",61443661,Dy1Ru3C1
HoRu3C,mp-1206820,0.0,6.71920971,0.0,"{67: 1, 44: 3, 6: 1}","[6, 44, 67]",61443671,Ho1Ru3C1
ErRu3C,mp-1206911,0.0,6.69897523,0.0,"{68: 1, 44: 3, 6: 1}","[6, 44, 68]",61443681,Er1Ru3C1
TmRu3C,mp-1206773,0.0,6.66775119,0.0,"{69: 1, 44: 3, 6: 1}","[6, 44, 69]",61443691,Tm1Ru3C1
LuRu3C,mp-1207093,0.0,6.6395639,0.0,"{71: 1, 44: 3, 6: 1}","[6, 44, 71]",61443711,Lu1Ru3C1
TaRu3C,mp-22087,0.0,8.43366787,0.15355960599999996,"{73: 1, 44: 3, 6: 1}","[6, 44, 73]",61443731,Ta1Ru3C1
ThRu3C,mp-22394,0.0,8.88235079,0.0,"{90: 1, 44: 3, 6: 1}","[6, 44, 90]",61443901,Th1Ru3C1
PuRu3C,mp-19828,0.0,10.07039502,0.32892912875000135,"{94: 1, 44: 3, 6: 1}","[6, 44, 94]",61443941,Pu1Ru3C1
RhC,mp-1009696,0.0,5.51843131,0.5606591462499999,"{45: 1, 6: 1}","[6, 45]",61451,Rh1C1
Rh2W2C,mp-1219505,0.0,7.26097259,0.5321573500000021,"{45: 2, 74: 2, 6: 1}","[6, 45, 74]",61452742,Rh2W2C1
LaRh3C,mp-1206401,0.0,8.21967343,0.048086153499999895,"{57: 1, 45: 3, 6: 1}","[6, 45, 57]",61453571,La1Rh3C1
CeRh3C,mp-22519,0.0,8.2550874,0.1457306564999996,"{58: 1, 45: 3, 6: 1}","[6, 45, 58]",61453581,Ce1Rh3C1
PrRh3C,mp-10708,0.0,6.25066054,0.022491175499999017,"{59: 1, 45: 3, 6: 1}","[6, 45, 59]",61453591,Pr1Rh3C1
NdRh3C,mp-16287,0.0,6.21448641,0.016713651833329735,"{60: 1, 45: 3, 6: 1}","[6, 45, 60]",61453601,Nd1Rh3C1
SmRh3C,mp-7167,0.0,6.10359398,0.0,"{62: 1, 45: 3, 6: 1}","[6, 45, 62]",61453621,Sm1Rh3C1
EuRh3C,mp-21076,0.0,6.03889636,0.06089381649999659,"{63: 1, 45: 3, 6: 1}","[6, 45, 63]",61453631,Eu1Rh3C1
GdRh3C,mp-20182,0.0,5.72640681,0.0,"{64: 1, 45: 3, 6: 1}","[6, 45, 64]",61453641,Gd1Rh3C1
TbRh3C,mp-542103,0.0,6.27692277,0.0,"{65: 1, 45: 3, 6: 1}","[6, 45, 65]",61453651,Tb1Rh3C1
DyRh3C,mp-15856,0.0,6.25469755,0.0,"{66: 1, 45: 3, 6: 1}","[6, 45, 66]",61453661,Dy1Rh3C1
HoRh3C,mp-22664,0.0,6.23878868,0.0,"{67: 1, 45: 3, 6: 1}","[6, 45, 67]",61453671,Ho1Rh3C1
ErRh3C,mp-568727,0.0,6.22194768,0.0,"{68: 1, 45: 3, 6: 1}","[6, 45, 68]",61453681,Er1Rh3C1
TmRh3C,mp-10714,0.0,6.21031195,0.0,"{69: 1, 45: 3, 6: 1}","[6, 45, 69]",61453691,Tm1Rh3C1
LuRh3C,mp-10699,0.0,6.19634086,0.0,"{71: 1, 45: 3, 6: 1}","[6, 45, 71]",61453711,Lu1Rh3C1
PuRh3C,mp-510492,0.0,9.16446127,0.12076639049999649,"{94: 1, 45: 3, 6: 1}","[6, 45, 94]",61453941,Pu1Rh3C1
PdC,mp-1009538,0.0,4.44260095,1.2160977162500002,"{46: 1, 6: 1}","[6, 46]",61461,Pd1C1
SnPd3C,mp-1018636,0.0,6.73136556,0.5334003644999985,"{50: 1, 46: 3, 6: 1}","[6, 46, 50]",61463501,Sn1Pd3C1
LaPd3C,mp-1017581,0.0,6.99086234,0.4675903564999855,"{57: 1, 46: 3, 6: 1}","[6, 46, 57]",61463571,La1Pd3C1
Pd3PbC,mp-21031,0.0,6.2418628,0.43425457250000044,"{46: 3, 82: 1, 6: 1}","[6, 46, 82]",61463821,Pd3Pb1C1
AgC,mp-1008653,0.0,3.82974572,2.241655820416667,"{47: 1, 6: 1}","[6, 47]",61471,Ag1C1
Mo2P4C14SNCl4,mp-1205052,0.2581,-0.87909653,1.4448164852019234,"{42: 2, 15: 4, 6: 14, 16: 1, 7: 1, 17: 4}","[6, 7, 15, 16, 17, 42]",61471154161174422,Mo2P4C14S1N1Cl4
Re3C14NO16,mp-683995,0.11839999999999995,0.87383279,0.31970326033089336,"{75: 3, 6: 14, 7: 1, 8: 16}","[6, 7, 8, 75]",61471816753,Re3C14N1O16
CdC,mp-1006887,0.0,3.14017725,2.0086685362500005,"{48: 1, 6: 1}","[6, 48]",61481,Cd1C1
Ru4C14O13,mp-653243,1.9679,-0.59608754,0.2505424380241923,"{44: 4, 6: 14, 8: 13}","[6, 8, 44]",614813444,Ru4C14O13
Co4Si(CO)14,mp-651279,2.5423,-0.42997647,0.5401217045959603,"{27: 4, 14: 1, 6: 14, 8: 14}","[6, 8, 14, 27]",614814141274,Co4Si1C14O14
Ru5C14(SO7)2,mp-650978,3.577,-0.52074002,0.18585329849999965,"{44: 5, 6: 14, 16: 2, 8: 14}","[6, 8, 16, 44]",614814162445,Ru5C14S2O14
InRe4C14I3O14,mp-1200518,1.6973,0.51490265,0.2119250116666631,"{49: 1, 75: 4, 6: 14, 53: 3, 8: 14}","[6, 8, 49, 53, 75]",614814491533754,In1Re4C14I3O14
Cd3C,mp-1183622,0.20460000000000012,2.96252095,1.2479079381250013,"{48: 3, 6: 1}","[6, 48]",61483,Cd3C1
InC,mp-1184819,0.0,5.85962773,1.4595293404166672,"{49: 1, 6: 1}","[6, 49]",61491,In1C1
La3InC,mp-29056,0.0,7.32305443,0.0,"{57: 3, 49: 1, 6: 1}","[6, 49, 57]",61491573,La3In1C1
Ce3InC,mp-20992,0.0,7.5772221,0.0,"{58: 3, 49: 1, 6: 1}","[6, 49, 58]",61491583,Ce3In1C1
Pr3InC,mp-19749,0.0,2.04852171,1.8279494223333335,"{59: 3, 49: 1, 6: 1}","[6, 49, 59]",61491593,Pr3In1C1
Nd3InC,mp-20385,0.0,4.15417651,0.0,"{60: 3, 49: 1, 6: 1}","[6, 49, 60]",61491603,Nd3In1C1
Sm3InC,mp-20229,0.0,1.8098814,1.8720807280000011,"{62: 3, 49: 1, 6: 1}","[6, 49, 62]",61491623,Sm3In1C1
Gd3InC,mp-20501,0.0,1.86857888,1.8886703820000008,"{64: 3, 49: 1, 6: 1}","[6, 49, 64]",61491643,Gd3In1C1
Tb3InC,mp-21392,0.0,2.03505971,1.9188017671666655,"{65: 3, 49: 1, 6: 1}","[6, 49, 65]",61491653,Tb3In1C1
Dy3InC,mp-19881,0.0,4.11101517,0.0,"{66: 3, 49: 1, 6: 1}","[6, 49, 66]",61491663,Dy3In1C1
Ho3InC,mp-10356,0.0,2.02043488,1.9560694859999992,"{67: 3, 49: 1, 6: 1}","[6, 49, 67]",61491673,Ho3In1C1
Er3InC,mp-10275,0.0,2.07068398,1.9685486399999976,"{68: 3, 49: 1, 6: 1}","[6, 49, 68]",61491683,Er3In1C1
Tm3InC,mp-21292,0.0,2.06816993,1.9883497264500005,"{69: 3, 49: 1, 6: 1}","[6, 49, 69]",61491693,Tm3In1C1
Lu3InC,mp-1206516,0.0,4.28634854,0.0,"{71: 3, 49: 1, 6: 1}","[6, 49, 71]",61491713,Lu3In1C1
Hf2InC,mp-22156,0.0,6.95719039,0.0,"{72: 2, 49: 1, 6: 1}","[6, 49, 72]",61491722,Hf2In1C1
Ta2InC,mp-22144,0.0,7.87625497,0.07333495583333516,"{73: 2, 49: 1, 6: 1}","[6, 49, 73]",61491732,Ta2In1C1
InPt3C,mp-20796,0.0,7.95980865,0.5390159525000007,"{49: 1, 78: 3, 6: 1}","[6, 49, 78]",61491783,In1Pt3C1
SnC,mp-1009820,0.6257000000000001,7.78231166,0.8178256637499999,"{50: 1, 6: 1}","[6, 50]",61501,Sn1C1
La3SnC,mp-1206443,0.0,7.78855268,0.0,"{57: 3, 50: 1, 6: 1}","[6, 50, 57]",61501573,La3Sn1C1
Ce3SnC,mp-20159,0.0,3.9363091,2.007927047666665,"{58: 3, 50: 1, 6: 1}","[6, 50, 58]",61501583,Ce3Sn1C1
Pr3SnC,mp-20543,0.0,2.08682519,1.8252353017777754,"{59: 3, 50: 1, 6: 1}","[6, 50, 59]",61501593,Pr3Sn1C1
Nd3SnC,mp-20423,0.0,2.03268136,1.840612416,"{60: 3, 50: 1, 6: 1}","[6, 50, 60]",61501603,Nd3Sn1C1
Sm3SnC,mp-10718,0.0,1.95574332,1.8865557954999987,"{62: 3, 50: 1, 6: 1}","[6, 50, 62]",61501623,Sm3Sn1C1
Gd3SnC,mp-1207074,0.0,4.59242852,0.0,"{64: 3, 50: 1, 6: 1}","[6, 50, 64]",61501643,Gd3Sn1C1
Tb3SnC,mp-20750,0.0,2.14799478,1.9633422661111126,"{65: 3, 50: 1, 6: 1}","[6, 50, 65]",61501653,Tb3Sn1C1
Dy3SnC,mp-19899,0.0,4.84140759,0.0,"{66: 3, 50: 1, 6: 1}","[6, 50, 66]",61501663,Dy3Sn1C1
Ho3SnC,mp-7114,0.0,2.09202509,2.0006568153333335,"{67: 3, 50: 1, 6: 1}","[6, 50, 67]",61501673,Ho3Sn1C1
Er3SnC,mp-22537,0.0,2.14495624,2.018977587000002,"{68: 3, 50: 1, 6: 1}","[6, 50, 68]",61501683,Er3Sn1C1
Tm3SnC,mp-21888,0.0,2.14115387,2.0414656258666657,"{69: 3, 50: 1, 6: 1}","[6, 50, 69]",61501693,Tm3Sn1C1
Lu3SnC,mp-10609,0.0,5.03377335,0.0,"{71: 3, 50: 1, 6: 1}","[6, 50, 71]",61501713,Lu3Sn1C1
Hf2SnC,mp-4893,0.0,7.72352404,0.0,"{72: 2, 50: 1, 6: 1}","[6, 50, 72]",61501722,Hf2Sn1C1
SnPt3C,mp-20446,0.0,7.84822718,0.6445537544999986,"{50: 1, 78: 3, 6: 1}","[6, 50, 78]",61501783,Sn1Pt3C1
La5Sn3C,mp-1189433,0.0,7.5084916,0.00155318949999117,"{57: 5, 50: 3, 6: 1}","[6, 50, 57]",61503575,La5Sn3C1
C15S4,mp-28709,1.5194999999999999,0.7447371,0.2854216976691726,"{6: 15, 16: 4}","[6, 16]",615164,C15S4
C15BrCl6,mp-1214340,1.2955999999999999,0.97790731,0.2379308927201711,"{6: 15, 35: 1, 17: 6}","[6, 17, 35]",615176351,C15Br1Cl6
Pr12(MnC3)5,mp-1209974,0.0,4.64571913,0.0,"{59: 12, 25: 5, 6: 15}","[6, 25, 59]",6152555912,Pr12Mn5C15
Nd12(MnC3)5,mp-1210168,0.0,4.55449025,0.0,"{60: 12, 25: 5, 6: 15}","[6, 25, 60]",6152556012,Nd12Mn5C15
Sm12(MnC3)5,mp-1208799,0.0,4.48532889,0.0,"{62: 12, 25: 5, 6: 15}","[6, 25, 62]",6152556212,Sm12Mn5C15
Tb12(MnC3)5,mp-1208636,0.0,4.63505184,0.0,"{65: 12, 25: 5, 6: 15}","[6, 25, 65]",6152556512,Tb12Mn5C15
Dy12(MnC3)5,mp-543017,0.0,4.62044084,0.0,"{66: 12, 25: 5, 6: 15}","[6, 25, 66]",6152556612,Dy12Mn5C15
Ho12(MnC3)5,mp-1212501,0.0,4.51856131,0.0,"{67: 12, 25: 5, 6: 15}","[6, 25, 67]",6152556712,Ho12Mn5C15
Er12(MnC3)5,mp-1213203,0.0,4.56199263,0.0,"{68: 12, 25: 5, 6: 15}","[6, 25, 68]",6152556812,Er12Mn5C15
Tm12(MnC3)5,mp-1208128,0.0,4.47784637,0.0,"{69: 12, 25: 5, 6: 15}","[6, 25, 69]",6152556912,Tm12Mn5C15
Lu12(MnC3)5,mp-1211114,0.0,4.45631044,0.0,"{71: 12, 25: 5, 6: 15}","[6, 25, 71]",6152557112,Lu12Mn5C15
CI,mp-1197830,3.4211,-0.89993419,0.7593925649999997,"{6: 1, 53: 1}","[6, 53]",61531,C1I1
CsEr6CI12,mp-23118,0.21999999999999975,3.79371137,0.0,"{55: 1, 68: 6, 6: 1, 53: 12}","[6, 53, 55, 68]",615312551686,Cs1Er6C1I12
LaCI,mp-1206182,0.0,5.69236565,0.029091458055556352,"{57: 1, 6: 1, 53: 1}","[6, 53, 57]",61531571,La1C1I1
Gd2CI,mp-28724,0.0,5.17990632,0.0,"{64: 2, 6: 1, 53: 1}","[6, 53, 64]",61531642,Gd2C1I1
Tb2CI,mp-1207197,0.0,6.09376497,0.0,"{65: 2, 6: 1, 53: 1}","[6, 53, 65]",61531652,Tb2C1I1
CI2,mp-1214237,2.575,3.14728016,0.25566237416666704,"{6: 1, 53: 2}","[6, 53]",61532,C1I2
Gd3CI3,mp-1104611,0.06109999999999971,5.1373298,0.0,"{64: 3, 6: 1, 53: 3}","[6, 53, 64]",61533643,Gd3C1I3
Dy2CI3,mp-1225760,0.5520999999999998,3.3016921,0.0,"{66: 2, 6: 1, 53: 3}","[6, 53, 66]",61533662,Dy2C1I3
CI4,mp-27962,1.1181,1.04029954,0.18847416449999965,"{6: 1, 53: 4}","[6, 53]",61534,C1I4
La3CI5,mp-568591,0.19200000000000017,5.3588169,0.0,"{57: 3, 6: 1, 53: 5}","[6, 53, 57]",61535573,La3C1I5
Ce3CI5,mp-573743,0.0,5.27979164,0.0,"{58: 3, 6: 1, 53: 5}","[6, 53, 58]",61535583,Ce3C1I5
C15Br7,mp-1214506,1.2164,0.37066235,0.20853050906960124,"{6: 15, 35: 7}","[6, 35]",615357,C15Br7
CsPr3CI6,mp-1190682,0.7084000000000001,3.51581103,0.0,"{55: 1, 59: 3, 6: 1, 53: 6}","[6, 53, 55, 59]",61536551593,Cs1Pr3C1I6
CsC,mp-505806,3.1050999999999997,0.82890675,0.36646934452586066,"{55: 1, 6: 1}","[6, 55]",61551,Cs1C1
CsC15,mp-1213691,0.0,3.12785839,0.2738392787499997,"{55: 1, 6: 15}","[6, 55]",615551,Cs1C15
La12(ReC3)5,mp-1212153,0.0,7.8530151,0.0,"{57: 12, 75: 5, 6: 15}","[6, 57, 75]",6155712755,La12Re5C15
Ce12(ReC3)5,mp-1203675,0.0,7.62411971,0.0,"{58: 12, 75: 5, 6: 15}","[6, 58, 75]",6155812755,Ce12Re5C15
Pr12(ReC3)5,mp-1199582,0.0,4.88880399,0.0,"{59: 12, 75: 5, 6: 15}","[6, 59, 75]",6155912755,Pr12Re5C15
Pr12(OsC3)5,mp-1209971,0.0,5.01746341,0.0,"{59: 12, 76: 5, 6: 15}","[6, 59, 76]",6155912765,Pr12Os5C15
Nd12(ReC3)5,mp-1199583,0.0,4.8099709,0.0,"{60: 12, 75: 5, 6: 15}","[6, 60, 75]",6156012755,Nd12Re5C15
Nd12(OsC3)5,mp-1210077,0.0,4.93985179,0.0,"{60: 12, 76: 5, 6: 15}","[6, 60, 76]",6156012765,Nd12Os5C15
Sm12(OsC3)5,mp-1209054,0.0,4.86106967,0.0,"{62: 12, 76: 5, 6: 15}","[6, 62, 76]",6156212765,Sm12Os5C15
Tb12(ReC3)5,mp-1204651,0.0,4.91922874,0.005246056210937766,"{65: 12, 75: 5, 6: 15}","[6, 65, 75]",6156512755,Tb12Re5C15
Tb12(OsC3)5,mp-541859,0.0,5.04019482,0.0,"{65: 12, 76: 5, 6: 15}","[6, 65, 76]",6156512765,Tb12Os5C15
Dy12(ReC3)5,mp-1196965,0.0,4.86497956,0.011433512791661826,"{66: 12, 75: 5, 6: 15}","[6, 66, 75]",6156612755,Dy12Re5C15
Dy12(OsC3)5,mp-1213247,0.0,4.96748579,0.0,"{66: 12, 76: 5, 6: 15}","[6, 66, 76]",6156612765,Dy12Os5C15
Er12(ReC3)5,mp-1203313,0.0,4.79632672,0.03893317476560121,"{68: 12, 75: 5, 6: 15}","[6, 68, 75]",6156812755,Er12Re5C15
Er12(OsC3)5,mp-1213108,0.0,4.91377034,0.008238419257811103,"{68: 12, 76: 5, 6: 15}","[6, 68, 76]",6156812765,Er12Os5C15
Tm12(OsC3)5,mp-1208137,0.0,4.8721805,0.0,"{69: 12, 76: 5, 6: 15}","[6, 69, 76]",6156912765,Tm12Os5C15
LaC,mp-1001925,0.0,7.81353635,0.7054219874999985,"{57: 1, 6: 1}","[6, 57]",61571,La1C1
LaPt3C,mp-1017582,0.0,8.14183872,0.513300567166664,"{57: 1, 78: 3, 6: 1}","[6, 57, 78]",61571783,La1Pt3C1
La3TlC,mp-7159,0.0,7.37765274,0.0,"{57: 3, 81: 1, 6: 1}","[6, 57, 81]",61573811,La3Tl1C1
La3PbC,mp-10611,0.0,7.75401348,0.0,"{57: 3, 82: 1, 6: 1}","[6, 57, 82]",61573821,La3Pb1C1
La5Pb3C,mp-1211573,0.0,7.3253219,0.024864640079357514,"{57: 5, 82: 3, 6: 1}","[6, 57, 82]",61575823,La5Pb3C1
CeC,mp-22672,0.0,7.46848687,0.15807631333333205,"{58: 1, 6: 1}","[6, 58]",61581,Ce1C1
P2Os4C15O13F6,mp-667424,2.9584,2.02346856,0.3046014765729117,"{15: 2, 76: 4, 6: 15, 8: 13, 9: 6}","[6, 8, 9, 15, 76]",61581396152764,P2Os4C15O13F6
PRu4C15O14F3,mp-667397,2.0336,-0.19440961,0.268433972083332,"{15: 1, 44: 4, 6: 15, 8: 14, 9: 3}","[6, 8, 9, 15, 44]",61581493151444,P1Ru4C15O14F3
Os5C15SO15,mp-648912,2.1101,-0.00307732,0.2034623711458341,"{76: 5, 6: 15, 16: 1, 8: 15}","[6, 8, 16, 76]",615815161765,Os5C15S1O15
Mn4C15S4O15,mp-704101,1.9025999999999998,1.54306917,0.5859305321569535,"{25: 4, 6: 15, 16: 4, 8: 15}","[6, 8, 16, 25]",615815164254,Mn4C15S4O15
Mn3Bi(CO)15,mp-651122,2.4128,1.91282839,0.6148411534007368,"{25: 3, 83: 1, 6: 15, 8: 15}","[6, 8, 25, 83]",615815253831,Mn3Bi1C15O15
Te2W3(CO)15,mp-651051,1.2205,0.02182758,0.48379976717857254,"{52: 2, 74: 3, 6: 15, 8: 15}","[6, 8, 52, 74]",615815522743,Te2W3C15O15
Bi2W3(CO)15,mp-705040,1.7956,-0.11323144,0.5371599883571392,"{83: 2, 74: 3, 6: 15, 8: 15}","[6, 8, 74, 83]",615815743832,Bi2W3C15O15
Ce3TlC,mp-21319,0.0,3.94223675,2.0040080433333305,"{58: 3, 81: 1, 6: 1}","[6, 58, 81]",61583811,Ce3Tl1C1
Ce3PbC,mp-20550,0.0,3.76314027,2.047164122666665,"{58: 3, 82: 1, 6: 1}","[6, 58, 82]",61583821,Ce3Pb1C1
Pr3TlC,mp-7166,0.0,2.05018528,1.8101662161111123,"{59: 3, 81: 1, 6: 1}","[6, 59, 81]",61593811,Pr3Tl1C1
Pr3PbC,mp-20388,0.0,2.01742503,1.8877808931111097,"{59: 3, 82: 1, 6: 1}","[6, 59, 82]",61593821,Pr3Pb1C1
Nd3TlC,mp-21854,0.0,1.98736366,1.8307085463333337,"{60: 3, 81: 1, 6: 1}","[6, 60, 81]",61603811,Nd3Tl1C1
Nd3PbC,mp-20808,0.0,1.95659755,1.9095722910000026,"{60: 3, 82: 1, 6: 1}","[6, 60, 82]",61603821,Nd3Pb1C1
C16Cl,mp-1196803,1.3189000000000002,1.72940089,0.3304896997977931,"{6: 16, 17: 1}","[6, 17]",616171,C16Cl1
Sm2C,mp-1219177,0.0,3.21480881,0.0,"{62: 2, 6: 1}","[6, 62]",61622,Sm2C1
Sm3TlC,mp-10606,0.0,3.93723906,0.0,"{62: 3, 81: 1, 6: 1}","[6, 62, 81]",61623811,Sm3Tl1C1
Sm3PbC,mp-19758,0.0,1.90111181,1.9556142914999954,"{62: 3, 82: 1, 6: 1}","[6, 62, 82]",61623821,Sm3Pb1C1
Gd2C,mp-1224869,0.0,3.17211687,0.0,"{64: 2, 6: 1}","[6, 64]",61642,Gd2C1
Gd3TlC,mp-1207135,0.0,3.96642276,0.0,"{64: 3, 81: 1, 6: 1}","[6, 64, 81]",61643811,Gd3Tl1C1
Gd3PbC,mp-19958,0.0,1.82891313,1.9362228934999965,"{64: 3, 82: 1, 6: 1}","[6, 64, 82]",61643821,Gd3Pb1C1
TbBi2C,mp-1208786,0.0,6.14935352,1.1993663962500012,"{65: 1, 83: 2, 6: 1}","[6, 65, 83]",61651832,Tb1Bi2C1
Tb2C,mp-692,0.0,3.30989064,0.0,"{65: 2, 6: 1}","[6, 65]",61652,Tb2C1
Tb3TlC,mp-19836,0.0,2.18765202,1.9068482614444444,"{65: 3, 81: 1, 6: 1}","[6, 65, 81]",61653811,Tb3Tl1C1
Tb3PbC,mp-20963,0.0,2.10275823,2.030639236444443,"{65: 3, 82: 1, 6: 1}","[6, 65, 82]",61653821,Tb3Pb1C1
DyBi2C,mp-1213574,0.0,6.10728143,1.1971800918750004,"{66: 1, 83: 2, 6: 1}","[6, 66, 83]",61661832,Dy1Bi2C1
Dy2C,mp-12574,0.0,3.222539,0.0,"{66: 2, 6: 1}","[6, 66]",61662,Dy2C1
Dy3TlC,mp-22513,0.0,2.17271272,1.916393434000002,"{66: 3, 81: 1, 6: 1}","[6, 66, 81]",61663811,Dy3Tl1C1
Dy3PbC,mp-19818,0.0,4.8752399,0.0,"{66: 3, 82: 1, 6: 1}","[6, 66, 82]",61663821,Dy3Pb1C1
Os4C16NO12,mp-732241,0.9339000000000001,-0.88051758,0.686903080757574,"{76: 4, 6: 16, 7: 1, 8: 12}","[6, 7, 8, 76]",61671812764,Os4C16N1O12
CrCo3C16NO14,mp-648394,1.608,-0.70114068,0.4945440985892864,"{24: 1, 27: 3, 6: 16, 7: 1, 8: 14}","[6, 7, 8, 24, 27]",61671814241273,Cr1Co3C16N1O14
HoBi2C,mp-1239078,0.0,5.35102756,1.105662869062499,"{67: 1, 83: 2, 6: 1}","[6, 67, 83]",61671832,Ho1Bi2C1
Ho2C,mp-1640,0.0,3.08003992,0.0,"{67: 2, 6: 1}","[6, 67]",61672,Ho2C1