formula,material_id,band_gap,efermi,energy_above_hull,comp_atoms,sorted_keys_comp_atoms,comp_number,new_formula
CdAs2C4SN4(OF6)2,mp-651073,3.5252,-2.66774214,0.22835221769917613,"{48: 1, 33: 2, 6: 4, 16: 1, 7: 4, 8: 2, 9: 12}","[6, 7, 8, 9, 16, 33, 48]",647482912161332481,Cd1As2C4S1N4O2F12
AsC4S4N4Cl2O2F5,mp-555067,1.4816,0.26764075,0.19925570950216542,"{33: 1, 6: 4, 16: 4, 7: 4, 17: 2, 8: 2, 9: 5}","[6, 7, 8, 9, 16, 17, 33]",64748295164172331,As1C4S4N4Cl2O2F5
K2CoC4S4N4O3,mp-1196601,0.8958999999999999,0.94954577,0.5580806761698014,"{19: 2, 27: 1, 6: 4, 16: 4, 7: 4, 8: 3}","[6, 7, 8, 16, 19, 27]",647483164192271,K2Co1C4S4N4O3
CaHgC4S4N4O3,mp-1198811,0.0,-1.70405174,0.7314749256197466,"{20: 1, 80: 1, 6: 4, 16: 4, 7: 4, 8: 3}","[6, 7, 8, 16, 20, 80]",647483164201801,Ca1Hg1C4S4N4O3
SiC4(NO)4,mp-1198772,5.6012,2.78333506,0.13253250070512834,"{14: 1, 6: 4, 7: 4, 8: 4}","[6, 7, 8, 14]",647484141,Si1C4N4O4
CdC4S2(NO)4,mp-1193461,1.3895,-0.43324261,0.5463438215119059,"{48: 1, 6: 4, 16: 2, 7: 4, 8: 4}","[6, 7, 8, 16, 48]",647484162481,Cd1C4S2N4O4
K4MoC4(NO2)4,mp-1181187,0.0,-0.39314075,1.2765257091190483,"{19: 4, 42: 1, 6: 4, 7: 4, 8: 8}","[6, 7, 8, 19, 42]",647488194421,K4Mo1C4N4O8
W9C4,mp-684989,0.0,7.81012525,0.07193477384615399,"{74: 9, 6: 4}","[6, 74]",64749,W9C4
AgAsC4S8(N2F3)2,mp-554710,2.4217,-0.86135831,0.16776351917338683,"{47: 1, 33: 1, 6: 4, 16: 8, 7: 4, 9: 6}","[6, 7, 9, 16, 33, 47]",647496168331471,Ag1As1C4S8N4F6
Mg(C2N3)2,mp-10553,4.6077,-1.37375703,0.11330476749999896,"{12: 1, 6: 4, 7: 6}","[6, 7, 12]",6476121,Mg1C4N6
Ca(C2N3)2,mp-29960,4.2353,-0.26829337,0.12577713931817947,"{20: 1, 6: 4, 7: 6}","[6, 7, 20]",6476201,Ca1C4N6
Mn(C2N3)2,mp-581026,1.5869,0.28214715,0.15650608272727418,"{25: 1, 6: 4, 7: 6}","[6, 7, 25]",6476251,Mn1C4N6
Co(C2N3)2,mp-22403,0.03300000000000003,0.38636476,0.2113946772727271,"{27: 1, 6: 4, 7: 6}","[6, 7, 27]",6476271,Co1C4N6
Zn(C2N3)2,mp-624249,4.7631,-1.70752328,0.12174288840908876,"{30: 1, 6: 4, 7: 6}","[6, 7, 30]",6476301,Zn1C4N6
Sr(C2N3)2,mp-29961,4.6686,-0.59590679,0.08997363795454483,"{38: 1, 6: 4, 7: 6}","[6, 7, 38]",6476381,Sr1C4N6
Cd(C2N3)2,mp-11646,4.5441,-1.95988507,0.13963103749999917,"{48: 1, 6: 4, 7: 6}","[6, 7, 48]",6476481,Cd1C4N6
Pb(C2N3)2,mp-669517,3.6313999999999997,0.43871772,0.1328826245454522,"{82: 1, 6: 4, 7: 6}","[6, 7, 82]",6476821,Pb1C4N6
HgC4N6(ClO2)2,mp-1200813,0.9763000000000002,-1.10191778,0.4393187692647116,"{80: 1, 6: 4, 7: 6, 17: 2, 8: 4}","[6, 7, 8, 17, 80]",647684172801,Hg1C4N6Cl2O4
IrC4,mp-1080042,0.0,6.47369525,0.5786491189999996,"{77: 1, 6: 4}","[6, 77]",64771,Ir1C4
Eu8C4I9N7,mp-684011,0.6649000000000003,4.35284088,0.02571092486607185,"{63: 8, 6: 4, 53: 9, 7: 7}","[6, 7, 53, 63]",6477539638,Eu8C4I9N7
Cs2NaMoC4N7O,mp-541100,0.13149999999999995,1.27877255,0.2724525186945641,"{55: 2, 11: 1, 42: 1, 6: 4, 7: 7, 8: 1}","[6, 7, 8, 11, 42, 55]",647781111421552,Cs2Na1Mo1C4N7O1
KLaSi(CN2)4,mp-567129,3.6775999999999995,0.73072089,0.0,"{19: 1, 57: 1, 14: 1, 6: 4, 7: 8}","[6, 7, 14, 19, 57]",6478141191571,K1La1Si1C4N8
RbLaSi(CN2)4,mp-568228,3.8555,0.78558808,0.0,"{37: 1, 57: 1, 14: 1, 6: 4, 7: 8}","[6, 7, 14, 37, 57]",6478141371571,Rb1La1Si1C4N8
TeC4S4(N4Cl)2,mp-1179382,0.03400000000000003,-0.67426646,0.5004379687265024,"{52: 1, 6: 4, 16: 4, 7: 8, 17: 2}","[6, 7, 16, 17, 52]",6478164172521,Te1C4S4N8Cl2
PdC4S4(IN4)2,mp-1202068,0.13539999999999996,0.41947029,0.7046895618609046,"{46: 1, 6: 4, 16: 4, 53: 2, 7: 8}","[6, 7, 16, 46, 53]",6478164461532,Pd1C4S4I2N8
TeC4Se4(N4Cl)2,mp-1106362,0.0,0.65480367,0.6834281713075638,"{52: 1, 6: 4, 34: 4, 7: 8, 17: 2}","[6, 7, 17, 34, 52]",6478172344521,Te1C4Se4N8Cl2
CdRe2C4(N2O3)4,mp-1192898,0.8952000000000001,-1.521455,0.7059085177314763,"{48: 1, 75: 2, 6: 4, 7: 8, 8: 12}","[6, 7, 8, 48, 75]",6478812481752,Cd1Re2C4N8O12
TeC4S4N8(ClO)2,mp-1179389,0.6685,-0.55603551,0.7310829096811213,"{52: 1, 6: 4, 16: 4, 7: 8, 17: 2, 8: 2}","[6, 7, 8, 16, 17, 52]",647882164172521,Te1C4S4N8Cl2O2
CsC4S4N8O2F,mp-723282,2.1873,-0.3691477,0.9233086286607177,"{55: 1, 6: 4, 16: 4, 7: 8, 8: 2, 9: 1}","[6, 7, 8, 9, 16, 55]",64788291164551,Cs1C4S4N8O2F1
ReC4S4N8Cl8O3,mp-1210407,0.0,-1.13986592,0.8815127197837631,"{75: 1, 6: 4, 16: 4, 7: 8, 17: 8, 8: 3}","[6, 7, 8, 16, 17, 75]",647883164178751,Re1C4S4N8Cl8O3
TlPC4S4(N2O)4,mp-1208264,0.0,-0.62238837,1.4072671787256485,"{81: 1, 15: 1, 6: 4, 16: 4, 7: 8, 8: 4}","[6, 7, 8, 15, 16, 81]",647884151164811,Tl1P1C4S4N8O4
ZnC4(N2O)4,mp-1207468,0.9343000000000004,-4.34743967,0.36586486647059147,"{30: 1, 6: 4, 7: 8, 8: 4}","[6, 7, 8, 30]",647884301,Zn1C4N8O4
TeC4S4N8(ClO4)2,mp-1205055,0.0,-1.65496521,1.0377149989186512,"{52: 1, 6: 4, 16: 4, 7: 8, 17: 2, 8: 8}","[6, 7, 8, 16, 17, 52]",647888164172521,Te1C4S4N8Cl2O8
CdRe2C4S4(NO)8,mp-1215040,0.4839,-1.78992582,0.6561200926388864,"{48: 1, 75: 2, 6: 4, 16: 4, 7: 8, 8: 8}","[6, 7, 8, 16, 48, 75]",647888164481752,Cd1Re2C4S4N8O8
TeC4S4(N2F)4,mp-1179346,0.2935,-0.70907781,0.9824897156292511,"{52: 1, 6: 4, 16: 4, 7: 8, 9: 4}","[6, 7, 9, 16, 52]",647894164521,Te1C4S4N8F4
C4(N3O)3,mp-1199083,0.27069999999999994,-1.96802756,1.1391415124218751,"{6: 4, 7: 9, 8: 3}","[6, 7, 8]",647983,C4N9O3
NaIn(C2O5)2,mp-1210790,0.0,-0.77226269,0.6201196396223985,"{11: 1, 49: 1, 6: 4, 8: 10}","[6, 8, 11, 49]",64810111491,Na1In1C4O10
Na2Pd(C2O5)2,mp-1188736,0.2036,-1.05895374,0.5819370213480441,"{11: 2, 46: 1, 6: 4, 8: 10}","[6, 8, 11, 46]",64810112461,Na2Pd1C4O10
K2Mn(C2O5)2,mp-728301,0.4759,-0.54095276,0.43932638485294184,"{19: 2, 25: 1, 6: 4, 8: 10}","[6, 8, 19, 25]",64810192251,K2Mn1C4O10
K2Cd(C2O5)2,mp-1201089,0.4393,-1.30438395,0.6133477142647079,"{19: 2, 48: 1, 6: 4, 8: 10}","[6, 8, 19, 48]",64810192481,K2Cd1C4O10
K2Pt(C2O5)2,mp-1197648,0.0,-0.90432904,0.5730590491176493,"{19: 2, 78: 1, 6: 4, 8: 10}","[6, 8, 19, 78]",64810192781,K2Pt1C4O10
Tl(C2O5)2,mp-1179261,1.9784,-0.47846703,0.4531430665833378,"{81: 1, 6: 4, 8: 10}","[6, 8, 81]",64810811,Tl1C4O10
U(C2O5)2,mp-1193074,0.259,0.66020359,0.3711263387222221,"{92: 1, 6: 4, 8: 10}","[6, 8, 92]",64810921,U1C4O10
NaCeC4O11,mp-727535,0.0,-1.75766287,0.7392925419117713,"{11: 1, 58: 1, 6: 4, 8: 11}","[6, 8, 11, 58]",64811111581,Na1Ce1C4O11
NaNdC4O11,mp-1211932,0.8822,0.61571984,0.6009255808823557,"{11: 1, 60: 1, 6: 4, 8: 11}","[6, 8, 11, 60]",64811111601,Na1Nd1C4O11
KMo2C4O11,mp-1203538,0.08379999999999999,-0.73774372,0.5863350751736149,"{19: 1, 42: 2, 6: 4, 8: 11}","[6, 8, 19, 42]",64811191422,K1Mo2C4O11
KLaC4O11,mp-1181157,0.7278,-0.13508194,0.7348600985049041,"{19: 1, 57: 1, 6: 4, 8: 11}","[6, 8, 19, 57]",64811191571,K1La1C4O11
As2C4S2O,mp-1237705,1.2948,1.08222416,0.9879037441666672,"{33: 2, 6: 4, 16: 2, 8: 1}","[6, 8, 16, 33]",6481162332,As2C4S2O1
MgV2(CO3)4,mp-2228787,1.6349000000000002,1.86853114,0.03148657480262251,"{12: 1, 23: 2, 6: 4, 8: 12}","[6, 8, 12, 23]",64812121232,Mg1V2C4O12
MgMn2(CO3)4,mp-2228404,1.1145,-0.32415328,0.09585858732455321,"{12: 1, 25: 2, 6: 4, 8: 12}","[6, 8, 12, 25]",64812121252,Mg1Mn2C4O12
MgCo2(CO3)4,mp-2231241,1.1972,-0.59459635,0.10865615289472963,"{12: 1, 27: 2, 6: 4, 8: 12}","[6, 8, 12, 27]",64812121272,Mg1Co2C4O12
MgCd3(CO3)4,mp-1222101,2.9333,4.2289745,0.002842563500000672,"{12: 1, 48: 3, 6: 4, 8: 12}","[6, 8, 12, 48]",64812121483,Mg1Cd3C4O12
CaMg3(CO3)4,mp-6524,4.815300000000001,2.02156422,0.003653424500001279,"{20: 1, 12: 3, 6: 4, 8: 12}","[6, 8, 12, 20]",64812123201,Ca1Mg3C4O12
K2Pd(CO3)4,mp-732352,0.0,1.06514584,0.5355275155263186,"{19: 2, 46: 1, 6: 4, 8: 12}","[6, 8, 19, 46]",64812192461,K2Pd1C4O12
Na3Ce2C4O12F,mp-556236,0.12599999999999945,5.20936548,0.007558137272728693,"{11: 3, 58: 2, 6: 4, 8: 12, 9: 1}","[6, 8, 9, 11, 58]",6481291113582,Na3Ce2C4O12F1
RbAuC4S4(OF)12,mp-1200298,1.8291,-2.50106858,0.20843410468749202,"{37: 1, 79: 1, 6: 4, 16: 4, 8: 12, 9: 12}","[6, 8, 9, 16, 37, 79]",64812912164371791,Rb1Au1C4S4O12F12
KCrC4O13,mp-1181049,0.0,-0.7320377,0.7726952650000092,"{19: 1, 24: 1, 6: 4, 8: 13}","[6, 8, 19, 24]",64813191241,K1Cr1C4O13
Na5Sc(C2O7)2,mp-1201367,0.4464,-0.21591115,0.11598436243923782,"{11: 5, 21: 1, 6: 4, 8: 14}","[6, 8, 11, 21]",64814115211,Na5Sc1C4O14
Sb2C4O,mp-1193068,0.0,2.02473223,1.0299542111904758,"{51: 2, 6: 4, 8: 1}","[6, 8, 51]",6481512,Sb2C4O1
K2Mo2C4O15,mp-1212036,0.26360000000000006,-0.98366567,0.43468775239130863,"{19: 2, 42: 2, 6: 4, 8: 15}","[6, 8, 19, 42]",64815192422,K2Mo2C4O15
Na2Bi2C4SO16,mp-768876,0.0,-0.69559326,0.08675137040000092,"{11: 2, 83: 2, 6: 4, 16: 1, 8: 16}","[6, 8, 11, 16, 83]",64816112161832,Na2Bi2C4S1O16
Na2Pt(CO4)4,mp-1180513,0.0,-0.92107054,0.7752485347826106,"{11: 2, 78: 1, 6: 4, 8: 16}","[6, 8, 11, 78]",64816112781,Na2Pt1C4O16
Na4V2P(CO4)4,mp-782641,0.0,0.54599289,0.08571985510802982,"{11: 4, 23: 2, 15: 1, 6: 4, 8: 16}","[6, 8, 11, 15, 23]",64816114151232,Na4V2P1C4O16
Na4Cr2P(CO4)4,mp-782637,0.0044000000000000705,0.87961955,0.06365559195473125,"{11: 4, 24: 2, 15: 1, 6: 4, 8: 16}","[6, 8, 11, 15, 24]",64816114151242,Na4Cr2P1C4O16
Na4Mn2P(CO4)4,mp-782649,0.0,0.62224425,0.07561162285493328,"{11: 4, 25: 2, 15: 1, 6: 4, 8: 16}","[6, 8, 11, 15, 25]",64816114151252,Na4Mn2P1C4O16
Na4Co2P(CO4)4,mp-771217,0.0,0.00715005,0.12506291615741105,"{11: 4, 27: 2, 15: 1, 6: 4, 8: 16}","[6, 8, 11, 15, 27]",64816114151272,Na4Co2P1C4O16
Na4Bi2P(CO4)4,mp-779878,0.0695,0.82591788,0.06707468815586193,"{11: 4, 83: 2, 15: 1, 6: 4, 8: 16}","[6, 8, 11, 15, 83]",64816114151832,Na4Bi2P1C4O16
Na4V2C4SO16,mp-850995,1.5699,0.72969644,0.0,"{11: 4, 23: 2, 6: 4, 16: 1, 8: 16}","[6, 8, 11, 16, 23]",64816114161232,Na4V2C4S1O16
Na4Cr2C4SO16,mp-770560,1.3371,0.89032382,0.00440740121913219,"{11: 4, 24: 2, 6: 4, 16: 1, 8: 16}","[6, 8, 11, 16, 24]",64816114161242,Na4Cr2C4S1O16
Na4Mn2C4SO16,mp-777623,0.23270000000000002,0.70028459,0.029858053024687692,"{11: 4, 25: 2, 6: 4, 16: 1, 8: 16}","[6, 8, 11, 16, 25]",64816114161252,Na4Mn2C4S1O16
Na4Co2C4SO16,mp-1176378,0.025000000000000022,0.78507745,0.053681964518529135,"{11: 4, 27: 2, 6: 4, 16: 1, 8: 16}","[6, 8, 11, 16, 27]",64816114161272,Na4Co2C4S1O16
Na4Sn2C4SO16,mp-768326,1.1476,1.97815495,0.06727798647762206,"{11: 4, 50: 2, 6: 4, 16: 1, 8: 16}","[6, 8, 11, 16, 50]",64816114161502,Na4Sn2C4S1O16
Na4Sb2C4SO16,mp-768959,2.0394,1.04211525,0.05913601844136185,"{11: 4, 51: 2, 6: 4, 16: 1, 8: 16}","[6, 8, 11, 16, 51]",64816114161512,Na4Sb2C4S1O16
Na4Bi2C4SO16,mp-779515,2.0267,0.82141933,0.024269699089504826,"{11: 4, 83: 2, 6: 4, 16: 1, 8: 16}","[6, 8, 11, 16, 83]",64816114161832,Na4Bi2C4S1O16
Na4Zr2Ti(CO4)4,mp-560843,3.1442000000000005,1.1711949,0.0,"{11: 4, 40: 2, 22: 1, 6: 4, 8: 16}","[6, 8, 11, 22, 40]",64816114221402,Na4Zr2Ti1C4O16
Na4Cr2As(CO4)4,mp-770736,0.0,0.29913216,0.08387225223250638,"{11: 4, 24: 2, 33: 1, 6: 4, 8: 16}","[6, 8, 11, 24, 33]",64816114242331,Na4Cr2As1C4O16
Na4Mn2As(CO4)4,mp-781108,0.0,0.08088327,0.0953767074845624,"{11: 4, 25: 2, 33: 1, 6: 4, 8: 16}","[6, 8, 11, 25, 33]",64816114252331,Na4Mn2As1C4O16
Na4Bi2As(CO4)4,mp-769047,0.0,0.40293487,0.0851567426003097,"{11: 4, 83: 2, 33: 1, 6: 4, 8: 16}","[6, 8, 11, 33, 83]",64816114331832,Na4Bi2As1C4O16
Na5V2P(CO4)4,mp-779752,0.008499999999999952,1.96916071,0.05029305473214052,"{11: 5, 23: 2, 15: 1, 6: 4, 8: 16}","[6, 8, 11, 15, 23]",64816115151232,Na5V2P1C4O16
Na5Cr2P(CO4)4,mp-775934,0.12509999999999977,2.24981352,0.058056208727675696,"{11: 5, 24: 2, 15: 1, 6: 4, 8: 16}","[6, 8, 11, 15, 24]",64816115151242,Na5Cr2P1C4O16
Na5Mn2P(CO4)4,mp-776602,0.0,0.67584456,0.050997473444937214,"{11: 5, 25: 2, 15: 1, 6: 4, 8: 16}","[6, 8, 11, 15, 25]",64816115151252,Na5Mn2P1C4O16
Na5Co2P(CO4)4,mp-1176370,0.0,0.46409638,0.048011375781255694,"{11: 5, 27: 2, 15: 1, 6: 4, 8: 16}","[6, 8, 11, 15, 27]",64816115151272,Na5Co2P1C4O16
Na5Sn2P(CO4)4,mp-776261,0.2669999999999999,2.71244488,0.09312015578124999,"{11: 5, 50: 2, 15: 1, 6: 4, 8: 16}","[6, 8, 11, 15, 50]",64816115151502,Na5Sn2P1C4O16
Na5Bi2P(CO4)4,mp-778147,0.5547999999999997,2.29618373,0.07225293368303465,"{11: 5, 83: 2, 15: 1, 6: 4, 8: 16}","[6, 8, 11, 15, 83]",64816115151832,Na5Bi2P1C4O16
Na5Cr2As(CO4)4,mp-769542,0.0,1.99934562,0.07014073560267864,"{11: 5, 24: 2, 33: 1, 6: 4, 8: 16}","[6, 8, 11, 24, 33]",64816115242331,Na5Cr2As1C4O16
Na5Mn2As(CO4)4,mp-776638,0.028699999999999948,1.13603829,0.06744649148065296,"{11: 5, 25: 2, 33: 1, 6: 4, 8: 16}","[6, 8, 11, 25, 33]",64816115252331,Na5Mn2As1C4O16
Na5Co2As(CO4)4,mp-779756,0.0,0.23775664,0.06698949974703883,"{11: 5, 27: 2, 33: 1, 6: 4, 8: 16}","[6, 8, 11, 27, 33]",64816115272331,Na5Co2As1C4O16
Na5Bi2As(CO4)4,mp-776697,0.9745999999999997,1.79330023,0.08057027154018304,"{11: 5, 83: 2, 33: 1, 6: 4, 8: 16}","[6, 8, 11, 33, 83]",64816115331832,Na5Bi2As1C4O16
Na6Mg2C4SO16,mp-6892,4.5304,1.02513954,0.0,"{11: 6, 12: 2, 6: 4, 16: 1, 8: 16}","[6, 8, 11, 12, 16]",64816116122161,Na6Mg2C4S1O16
Na6V2P(CO4)4,mp-778480,0.0,2.35749404,0.02882665472700996,"{11: 6, 23: 2, 15: 1, 6: 4, 8: 16}","[6, 8, 11, 15, 23]",64816116151232,Na6V2P1C4O16
Na6Cr2P(CO4)4,mp-770548,0.0,3.1377174,0.04333394496407905,"{11: 6, 24: 2, 15: 1, 6: 4, 8: 16}","[6, 8, 11, 15, 24]",64816116151242,Na6Cr2P1C4O16
Na6Mn2P(CO4)4,mp-780462,0.0,0.91028802,0.024801718304598097,"{11: 6, 25: 2, 15: 1, 6: 4, 8: 16}","[6, 8, 11, 15, 25]",64816116151252,Na6Mn2P1C4O16
Na6Co2P(CO4)4,mp-770874,0.0,1.63104837,0.021231575468392272,"{11: 6, 27: 2, 15: 1, 6: 4, 8: 16}","[6, 8, 11, 15, 27]",64816116151272,Na6Co2P1C4O16
Na6Sn2P(CO4)4,mp-769373,0.0,1.93256679,0.07497875349856464,"{11: 6, 50: 2, 15: 1, 6: 4, 8: 16}","[6, 8, 11, 15, 50]",64816116151502,Na6Sn2P1C4O16
Na6Bi2P(CO4)4,mp-778497,0.0,3.81313821,0.07790793285201225,"{11: 6, 83: 2, 15: 1, 6: 4, 8: 16}","[6, 8, 11, 15, 83]",64816116151832,Na6Bi2P1C4O16
Na6V2C4SO16,mp-850796,2.4345,2.6345248,0.0,"{11: 6, 23: 2, 6: 4, 16: 1, 8: 16}","[6, 8, 11, 16, 23]",64816116161232,Na6V2C4S1O16
Na6Cr2C4SO16,mp-780528,0.0,3.68290384,0.01596992465321012,"{11: 6, 24: 2, 6: 4, 16: 1, 8: 16}","[6, 8, 11, 16, 24]",64816116161242,Na6Cr2C4S1O16
Na6Mn2C4SO16,mp-770525,3.8957000000000006,1.28482418,0.0,"{11: 6, 25: 2, 6: 4, 16: 1, 8: 16}","[6, 8, 11, 16, 25]",64816116161252,Na6Mn2C4S1O16
Na6Co2C4SO16,mp-780164,2.7228000000000003,1.23864604,0.0,"{11: 6, 27: 2, 6: 4, 16: 1, 8: 16}","[6, 8, 11, 16, 27]",64816116161272,Na6Co2C4S1O16
Na6Sn2C4SO16,mp-769261,2.3951,1.91756287,0.026082981889366863,"{11: 6, 50: 2, 6: 4, 16: 1, 8: 16}","[6, 8, 11, 16, 50]",64816116161502,Na6Sn2C4S1O16
Na6Bi2C4SO16,mp-769413,0.0052000000000003155,4.41386464,0.09184520437141153,"{11: 6, 83: 2, 6: 4, 16: 1, 8: 16}","[6, 8, 11, 16, 83]",64816116161832,Na6Bi2C4S1O16
Na6V2As(CO4)4,mp-850910,0.0,2.23523261,0.05020033300287263,"{11: 6, 23: 2, 33: 1, 6: 4, 8: 16}","[6, 8, 11, 23, 33]",64816116232331,Na6V2As1C4O16
Na6Cr2As(CO4)4,mp-770747,1.2966999999999997,2.9726596,0.06419469477729578,"{11: 6, 24: 2, 33: 1, 6: 4, 8: 16}","[6, 8, 11, 24, 33]",64816116242331,Na6Cr2As1C4O16
Na6Mn2As(CO4)4,mp-850884,0.0,0.79320084,0.03952351485632288,"{11: 6, 25: 2, 33: 1, 6: 4, 8: 16}","[6, 8, 11, 25, 33]",64816116252331,Na6Mn2As1C4O16
Na6Co2As(CO4)4,mp-771495,0.0,1.43719651,0.06452910770976938,"{11: 6, 27: 2, 33: 1, 6: 4, 8: 16}","[6, 8, 11, 27, 33]",64816116272331,Na6Co2As1C4O16
Na6Bi2As(CO4)4,mp-769265,0.0,3.78851073,0.09650957958334061,"{11: 6, 83: 2, 33: 1, 6: 4, 8: 16}","[6, 8, 11, 33, 83]",64816116331832,Na6Bi2As1C4O16
TeAs2(C12Cl)4,mp-736257,0.0,-2.32033457,1.6148909476969688,"{52: 1, 33: 2, 6: 48, 17: 4}","[6, 17, 33, 52]",648174332521,Te1As2C48Cl4
Mg5(C2O9)2,mp-1204170,0.0232,-0.51811841,0.36913420953703646,"{12: 5, 6: 4, 8: 18}","[6, 8, 12]",64818125,Mg5C4O18
AgC4OF9,mp-561205,2.3671,-0.54482338,0.17311069576389038,"{47: 1, 6: 4, 8: 1, 9: 9}","[6, 8, 9, 47]",648199471,Ag1C4O1F9
C4SO2,mp-638445,1.4474,0.57908614,0.47805918002551095,"{6: 4, 16: 1, 8: 2}","[6, 8, 16]",6482161,C4S1O2
SbC4S2Cl3O2,mp-727099,1.0589,-1.88186743,0.658916524895834,"{51: 1, 6: 4, 16: 2, 17: 3, 8: 2}","[6, 8, 16, 17, 51]",6482162173511,Sb1C4S2Cl3O2
BiC4S2Cl3O2,mp-1191992,1.486,0.34074904,0.8534352523214315,"{83: 1, 6: 4, 16: 2, 17: 3, 8: 2}","[6, 8, 16, 17, 83]",6482162173831,Bi1C4S2Cl3O2
PtC4S2(BrO)2,mp-1199674,0.24850000000000017,-2.22169757,0.8791495430519474,"{78: 1, 6: 4, 16: 2, 35: 2, 8: 2}","[6, 8, 16, 35, 78]",6482162352781,Pt1C4S2Br2O2
PtC4S2(IO)2,mp-1102535,0.0,-1.26917158,1.3533311342775969,"{78: 1, 6: 4, 16: 2, 53: 2, 8: 2}","[6, 8, 16, 53, 78]",6482162532781,Pt1C4S2I2O2
La4MgSi4(C2O11)2,mp-1212027,1.6322,6.90459285,0.2669996228928593,"{57: 4, 12: 1, 14: 4, 6: 4, 8: 22}","[6, 8, 12, 14, 57]",64822121144574,La4Mg1Si4C4O22
Nd4MgSi4(C2O11)2,mp-1211102,0.6581999999999999,6.43821737,0.28347008060714174,"{60: 4, 12: 1, 14: 4, 6: 4, 8: 22}","[6, 8, 12, 14, 60]",64822121144604,Nd4Mg1Si4C4O22
Nd4CoSi4(C2O11)2,mp-1211576,0.0,5.34250063,0.2736490268928531,"{60: 4, 27: 1, 14: 4, 6: 4, 8: 22}","[6, 8, 14, 27, 60]",64822144271604,Nd4Co1Si4C4O22
C4SeO2,mp-560839,1.4345,0.09011253,0.4834173489508933,"{6: 4, 34: 1, 8: 2}","[6, 8, 34]",6482341,C4Se1O2
AgC4(BrO)2,mp-1214977,2.5782,0.6036321,0.2983955624565988,"{47: 1, 6: 4, 35: 2, 8: 2}","[6, 8, 35, 47]",6482352471,Ag1C4Br2O2
KZn2Ru2C4(ClO12)2,mp-1196794,0.0,-1.23720116,0.7577473602857152,"{19: 1, 30: 2, 44: 2, 6: 4, 17: 2, 8: 24}","[6, 8, 17, 19, 30, 44]",64824172191302442,K1Zn2Ru2C4Cl2O24
AsC4S2Cl2O2F13,mp-560424,3.0753,-1.92554353,0.2635423519420499,"{33: 1, 6: 4, 16: 2, 17: 2, 8: 2, 9: 13}","[6, 8, 9, 16, 17, 33]",6482913162172331,As1C4S2Cl2O2F13
KC4(OF)2,mp-1211820,3.7597,-0.52125885,0.24362301826388943,"{19: 1, 6: 4, 8: 2, 9: 2}","[6, 8, 9, 19]",648292191,K1C4O2F2
C4O3,mp-1001594,2.4613,-1.57439524,0.23691641422619192,"{6: 4, 8: 3}","[6, 8]",6483,C4O3
PRuC4(OF)3,mp-667356,2.7144999999999997,2.26256397,0.3679717923090253,"{15: 1, 44: 1, 6: 4, 8: 3, 9: 3}","[6, 8, 9, 15, 44]",648393151441,P1Ru1C4O3F3
NaCo(CO)4,mp-562661,3.7329,-1.18249361,0.3788903010625022,"{11: 1, 27: 1, 6: 4, 8: 4}","[6, 8, 11, 27]",6484111271,Na1Co1C4O4
Al2RhC4Cl7O4,mp-680477,2.0206999999999997,-0.91746847,0.16917918951388522,"{13: 2, 45: 1, 6: 4, 17: 7, 8: 4}","[6, 8, 13, 17, 45]",6484132177451,Al2Rh1C4Cl7O4
CoSiC4Cl3O4,mp-562985,3.6210999999999998,-1.49662358,0.38525750086538135,"{27: 1, 14: 1, 6: 4, 17: 3, 8: 4}","[6, 8, 14, 17, 27]",6484141173271,Co1Si1C4Cl3O4
CaC4(SO)4,mp-1214727,0.14159999999999995,2.73396734,0.9867064807280173,"{20: 1, 6: 4, 16: 4, 8: 4}","[6, 8, 16, 20]",6484164201,Ca1C4S4O4
SrC4(SO)4,mp-1197447,0.025599999999999845,1.77284771,0.9962840530357093,"{38: 1, 6: 4, 16: 4, 8: 4}","[6, 8, 16, 38]",6484164381,Sr1C4S4O4
MnC4ClO4,mp-1196585,2.7439999999999998,-1.01479094,0.5396295960624986,"{25: 1, 6: 4, 17: 1, 8: 4}","[6, 8, 17, 25]",6484171251,Mn1C4Cl1O4
OsC4ClO4,mp-652048,2.4779,-0.44869868,0.13488240525000172,"{76: 1, 6: 4, 17: 1, 8: 4}","[6, 8, 17, 76]",6484171761,Os1C4Cl1O4
OsC4(ClO2)2,mp-638236,2.8383000000000003,-0.54520373,0.074945500000001,"{76: 1, 6: 4, 17: 2, 8: 4}","[6, 8, 17, 76]",6484172761,Os1C4Cl2O4
KGaCoC4Cl3O4,mp-561754,3.4993,-1.35372426,0.2659595349553552,"{19: 1, 31: 1, 27: 1, 6: 4, 17: 3, 8: 4}","[6, 8, 17, 19, 27, 31]",6484173191271311,K1Ga1Co1C4Cl3O4
CoSnC4Cl3O4,mp-551760,3.0475,-1.80541304,0.2647100550961454,"{27: 1, 50: 1, 6: 4, 17: 3, 8: 4}","[6, 8, 17, 27, 50]",6484173271501,Co1Sn1C4Cl3O4
Ge2RuC4(Cl3O2)2,mp-1201091,3.1001,1.68432913,0.09165364639705764,"{32: 2, 44: 1, 6: 4, 17: 6, 8: 4}","[6, 8, 17, 32, 44]",6484176322441,Ge2Ru1C4Cl6O4
Ga2RhC4Cl7O4,mp-572409,2.0192,-1.58920717,0.12740416296296164,"{31: 2, 45: 1, 6: 4, 17: 7, 8: 4}","[6, 8, 17, 31, 45]",6484177312451,Ga2Rh1C4Cl7O4
KCo(CO)4,mp-1180982,3.8026999999999997,-1.09792563,0.3581677682916702,"{19: 1, 27: 1, 6: 4, 8: 4}","[6, 8, 19, 27]",6484191271,K1Co1C4O4
Ca(CO)4,mp-1188325,3.8244,-0.77363185,0.32775145180554865,"{20: 1, 6: 4, 8: 4}","[6, 8, 20]",6484201,Ca1C4O4
MnC4BrO4,mp-683660,2.5559000000000003,-0.68987283,0.5310934890624903,"{25: 1, 6: 4, 35: 1, 8: 4}","[6, 8, 25, 35]",6484251351,Mn1C4Br1O4
MnC4IO4,mp-653788,2.3529999999999998,-0.09757288,0.5120834619374923,"{25: 1, 6: 4, 53: 1, 8: 4}","[6, 8, 25, 53]",6484251531,Mn1C4I1O4
Co(CO)4,mp-608469,2.6524,-0.4536335,0.41701763097221534,"{27: 1, 6: 4, 8: 4}","[6, 8, 27]",6484271,Co1C4O4