formula,material_id,band_gap,efermi,energy_above_hull,comp_atoms,sorted_keys_comp_atoms,comp_number,new_formula
MgH7C3NO6,mp-1197765,4.8736999999999995,3.44989178,0.08477008000000641,"{12: 1, 1: 7, 6: 3, 7: 1, 8: 6}","[1, 6, 7, 8, 12]",17637186121,Mg1H7C3N1O6
MnH7C3NO6,mp-1194724,3.6251999999999995,3.11475742,0.08614968388888933,"{25: 1, 1: 7, 6: 3, 7: 1, 8: 6}","[1, 6, 7, 8, 25]",17637186251,Mn1H7C3N1O6
CoH7C3NO6,mp-1195522,1.9592999999999998,1.54265247,0.08973375319444354,"{27: 1, 1: 7, 6: 3, 7: 1, 8: 6}","[1, 6, 7, 8, 27]",17637186271,Co1H7C3N1O6
ZnH7C3NO6,mp-1204510,4.5786999999999995,3.21725536,0.09175252550926327,"{30: 1, 1: 7, 6: 3, 7: 1, 8: 6}","[1, 6, 7, 8, 30]",17637186301,Zn1H7C3N1O6
CdH7C3NO6,mp-1195497,4.7526,-1.25460717,0.09535941763888811,"{48: 1, 1: 7, 6: 3, 7: 1, 8: 6}","[1, 6, 7, 8, 48]",17637186481,Cd1H7C3N1O6
MgH7C3NO7,mp-1201936,4.7484,3.5088738,0.1974092477631606,"{12: 1, 1: 7, 6: 3, 7: 1, 8: 7}","[1, 6, 7, 8, 12]",17637187121,Mg1H7C3N1O7
MnH7C3NO7,mp-1203596,3.4941999999999998,3.16780913,0.2004155502631617,"{25: 1, 1: 7, 6: 3, 7: 1, 8: 7}","[1, 6, 7, 8, 25]",17637187251,Mn1H7C3N1O7
CoH7C3NO7,mp-1203013,2.0607,1.64020931,0.23680726039473488,"{27: 1, 1: 7, 6: 3, 7: 1, 8: 7}","[1, 6, 7, 8, 27]",17637187271,Co1H7C3N1O7
ZnH7C3NO7,mp-1198880,4.4877,3.26156807,0.19654392473683746,"{30: 1, 1: 7, 6: 3, 7: 1, 8: 7}","[1, 6, 7, 8, 30]",17637187301,Zn1H7C3N1O7
H7C3N3O5,mp-733610,4.741899999999999,-1.23366746,0.028895524351852053,"{1: 7, 6: 3, 7: 3, 8: 5}","[1, 6, 7, 8]",17637385,H7C3N3O5
H7C3N6Cl,mp-761870,3.7087,-0.32547802,0.0,"{1: 7, 6: 3, 7: 6, 17: 1}","[1, 6, 7, 17]",176376171,H7C3N6Cl1
CoH7C4(NO3)2,mp-1204121,1.3106,2.36270458,0.22225506799999994,"{27: 1, 1: 7, 6: 4, 7: 2, 8: 6}","[1, 6, 7, 8, 27]",17647286271,Co1H7C4N2O6
MnH7C4N3O7,mp-1211657,2.7594000000000003,2.48806511,0.09736061431821774,"{25: 1, 1: 7, 6: 4, 7: 3, 8: 7}","[1, 6, 7, 8, 25]",17647387251,Mn1H7C4N3O7
ZnH7C4N3O7,mp-1207713,3.5736999999999997,2.55279705,0.0971188204166733,"{30: 1, 1: 7, 6: 4, 7: 3, 8: 7}","[1, 6, 7, 8, 30]",17647387301,Zn1H7C4N3O7
H7C4(N3O2)3,mp-1212804,2.3270999999999997,1.17687455,0.35290963928418684,"{1: 7, 6: 4, 7: 9, 8: 6}","[1, 6, 7, 8]",17647986,H7C4N9O6
CsH7(C2O5)2,mp-721753,3.2358000000000002,-1.0293545,0.05929612659090466,"{55: 1, 1: 7, 6: 4, 8: 10}","[1, 6, 8, 55]",1764810551,Cs1H7C4O10
TbH7C4O11,mp-1196220,3.5579,2.30236135,0.00020106749999548867,"{65: 1, 1: 7, 6: 4, 8: 11}","[1, 6, 8, 65]",1764811651,Tb1H7C4O11
VH7(CO2)4,mp-698158,1.8948,0.11124159,0.11678708381249336,"{23: 1, 1: 7, 6: 4, 8: 8}","[1, 6, 8, 23]",176488231,V1H7C4O8
H7WC7NO5,mp-601190,2.3504,-0.66419304,0.3883075070454556,"{1: 7, 74: 1, 6: 7, 7: 1, 8: 5}","[1, 6, 7, 8, 74]",17677185741,H7W1C7N1O5
H7C7(NO2)3,mp-1199577,3.637,-1.73556503,0.257703263514494,"{1: 7, 6: 7, 7: 3, 8: 6}","[1, 6, 7, 8]",17677386,H7C7N3O6
Zn3Si12H78(C13O2)2,mp-1203427,2.819,-1.1470432,0.09214547858229771,"{30: 3, 14: 12, 1: 78, 6: 26, 8: 4}","[1, 6, 8, 14, 30]",178626841412303,Zn3Si12H78C26O4
BH8CN,mp-567989,6.158,-3.0939285,0.13066079909090877,"{5: 1, 1: 8, 6: 1, 7: 1}","[1, 5, 6, 7]",18516171,B1H8C1N1
AgBH8C4(N2F)4,mp-759882,3.7801,-0.79750091,0.07775453057692783,"{47: 1, 5: 1, 1: 8, 6: 4, 7: 8, 9: 4}","[1, 5, 6, 7, 9, 47]",1851647894471,Ag1B1H8C4N8F4
B5H8CO6,mp-1203656,3.8611,-0.60348998,0.33021617685416693,"{5: 5, 1: 8, 6: 1, 8: 6}","[1, 5, 6, 8]",18556186,B5H8C1O6
V8Sn16H85(C8O9)4,mp-705959,1.5383,-0.13454039,0.2833984352365819,"{23: 8, 50: 16, 1: 85, 6: 32, 8: 36}","[1, 6, 8, 23, 50]",1856328362385016,V8Sn16H85C32O36
KCd2H8C10N15O4,mp-720519,0.014900000000000135,-1.4546506,0.27733473730208313,"{19: 1, 48: 2, 1: 8, 6: 10, 7: 15, 8: 4}","[1, 6, 7, 8, 19, 48]",1861071584191482,K1Cd2H8C10N15O4
GdH8C10N(O2F3)4,mp-567268,3.0036,-0.57342086,0.200129042812498,"{64: 1, 1: 8, 6: 10, 7: 1, 8: 8, 9: 12}","[1, 6, 7, 8, 9, 64]",186107188912641,Gd1H8C10N1O8F12
VH8C10N3Cl4,mp-706688,1.5358999999999998,-0.55359201,0.24707232681089586,"{23: 1, 1: 8, 6: 10, 7: 3, 17: 4}","[1, 6, 7, 17, 23]",1861073174231,V1H8C10N3Cl4
Na2U2MnH8(C3O7)4,mp-1196143,0.032099999999999795,2.63379133,0.08846740692217203,"{11: 2, 92: 2, 25: 1, 1: 8, 6: 12, 8: 28}","[1, 6, 8, 11, 25, 92]",18612828112251922,Na2U2Mn1H8C12O28
Na2U2CoH8(C3O7)4,mp-1201788,0.0,2.29346489,0.09969182484670114,"{11: 2, 92: 2, 27: 1, 1: 8, 6: 12, 8: 28}","[1, 6, 8, 11, 27, 92]",18612828112271922,Na2U2Co1H8C12O28
Na2U2ZnH8(C3O7)4,mp-1202403,0.22330000000000005,2.31155472,0.08536618928066364,"{11: 2, 92: 2, 30: 1, 1: 8, 6: 12, 8: 28}","[1, 6, 8, 11, 30, 92]",18612828112301922,Na2U2Zn1H8C12O28
H8CN2(ClO5)2,mp-560730,4.351,-0.80363425,0.5613906138043481,"{1: 8, 6: 1, 7: 2, 17: 2, 8: 10}","[1, 6, 7, 8, 17]",186172810172,H8C1N2Cl2O10
AsH8CN3O4,mp-23666,3.7938,-1.08371029,0.04666828089324948,"{33: 1, 1: 8, 6: 1, 7: 3, 8: 4}","[1, 6, 7, 8, 33]",18617384331,As1H8C1N3O4
H8CS(NO)4,mp-690771,5.1351,-0.48384007,0.07519554670435014,"{1: 8, 6: 1, 16: 1, 7: 4, 8: 4}","[1, 6, 7, 8, 16]",18617484161,H8C1S1N4O4
SiH8C(N2F3)2,mp-1199716,5.4037,-0.97738202,0.05450674864962135,"{14: 1, 1: 8, 6: 1, 7: 4, 9: 6}","[1, 6, 7, 9, 14]",18617496141,Si1H8C1N4F6
NaH8CN5O3,mp-1210388,4.2591,-0.90128253,0.05071543662037392,"{11: 1, 1: 8, 6: 1, 7: 5, 8: 3}","[1, 6, 7, 8, 11]",18617583111,Na1H8C1N5O3
H8CN5ClO3,mp-1204636,3.1788000000000003,2.36158111,0.24329970203703688,"{1: 8, 6: 1, 7: 5, 17: 1, 8: 3}","[1, 6, 7, 8, 17]",18617583171,H8C1N5Cl1O3
H8CBrN5O3,mp-1200933,2.8739,2.08022345,0.2762126746759268,"{1: 8, 6: 1, 35: 1, 7: 5, 8: 3}","[1, 6, 7, 8, 35]",18617583351,H8C1Br1N5O3
H8CIN5O3,mp-1202123,2.2233,0.08654753,0.2799912842521364,"{1: 8, 6: 1, 53: 1, 7: 5, 8: 3}","[1, 6, 7, 8, 53]",18617583531,H8C1I1N5O3
H8CN6,mp-28551,3.6266,1.08150663,0.19603493733333277,"{1: 8, 6: 1, 7: 6}","[1, 6, 7]",186176,H8C1N6
H8PtCN8,mp-567511,1.9094000000000002,0.59349564,0.1559045994444439,"{1: 8, 78: 1, 6: 1, 7: 8}","[1, 6, 7, 78]",186178781,H8Pt1C1N8
AlPH8(CCl2)2,mp-569751,5.4006,-1.89658914,0.0,"{13: 1, 15: 1, 1: 8, 6: 2, 17: 4}","[1, 6, 13, 15, 17]",1862131151174,Al1P1H8C2Cl4
TbH8C21(O2F3)5,mp-1209730,3.5923000000000003,-0.6899251,0.2876133101363596,"{65: 1, 1: 8, 6: 21, 8: 10, 9: 15}","[1, 6, 8, 9, 65]",18621810915651,Tb1H8C21O10F15
AlH8C2N,mp-1202937,5.175000000000001,-2.44141911,0.28620737826388876,"{13: 1, 1: 8, 6: 2, 7: 1}","[1, 6, 7, 13]",186271131,Al1H8C2N1
GeBiH8C2S4N,mp-1204733,2.4318999999999997,1.01958444,0.024884948110293514,"{32: 1, 83: 1, 1: 8, 6: 2, 16: 4, 7: 1}","[1, 6, 7, 16, 32, 83]",186271164321831,Ge1Bi1H8C2S4N1
Sb4H8C2S7N,mp-736261,1.2202000000000002,2.86214397,0.03995741730340807,"{51: 4, 1: 8, 6: 2, 16: 7, 7: 1}","[1, 6, 7, 16, 51]",186271167514,Sb4H8C2S7N1
H8C2NCl,mp-570388,5.3908000000000005,-1.57231752,0.047700719791666124,"{1: 8, 6: 2, 7: 1, 17: 1}","[1, 6, 7, 17]",186271171,H8C2N1Cl1
MnH8C2NCl3,mp-567451,1.6327000000000003,0.68168566,0.05491486700000969,"{25: 1, 1: 8, 6: 2, 7: 1, 17: 3}","[1, 6, 7, 17, 25]",186271173251,Mn1H8C2N1Cl3
H8PdC2NCl3,mp-973694,1.2942,-0.09498776,0.05503383350000135,"{1: 8, 46: 1, 6: 2, 7: 1, 17: 3}","[1, 6, 7, 17, 46]",186271173461,H8Pd1C2N1Cl3
CdH8C2NCl3,mp-570587,4.0526,-1.34034649,0.06164973866666745,"{48: 1, 1: 8, 6: 2, 7: 1, 17: 3}","[1, 6, 7, 17, 48]",186271173481,Cd1H8C2N1Cl3
Hg2H8C2NCl5,mp-1194654,2.7957,-1.74402208,0.03798543083333428,"{80: 2, 1: 8, 6: 2, 7: 1, 17: 5}","[1, 6, 7, 17, 80]",186271175802,Hg2H8C2N1Cl5
H8C2BrN,mp-568157,4.7501,-1.32988384,0.04936161020833296,"{1: 8, 6: 2, 35: 1, 7: 1}","[1, 6, 7, 35]",186271351,H8C2Br1N1
CdH8C2Br3N,mp-600182,3.3781,-1.14694591,0.065646761,"{48: 1, 1: 8, 6: 2, 35: 3, 7: 1}","[1, 6, 7, 35, 48]",186271353481,Cd1H8C2Br3N1
SnH8C2Br3N,mp-1203918,2.9304,-0.63048713,0.06193809099999914,"{50: 1, 1: 8, 6: 2, 35: 3, 7: 1}","[1, 6, 7, 35, 50]",186271353501,Sn1H8C2Br3N1
HgH8C2Br3N,mp-569827,2.5334000000000003,-1.45817471,0.019217692944441644,"{80: 1, 1: 8, 6: 2, 35: 3, 7: 1}","[1, 6, 7, 35, 80]",186271353801,Hg1H8C2Br3N1
SnH8C2I3N,mp-1200236,2.8421000000000003,0.76590004,0.056358158888889065,"{50: 1, 1: 8, 6: 2, 53: 3, 7: 1}","[1, 6, 7, 50, 53]",186271501533,Sn1H8C2I3N1
H8C2IN,mp-644101,4.3391,-0.54609009,0.07350069895833311,"{1: 8, 6: 2, 53: 1, 7: 1}","[1, 6, 7, 53]",186271531,H8C2I1N1
H8C2I3N,mp-568713,1.9774000000000003,0.16480355,0.05619214053571486,"{1: 8, 6: 2, 53: 3, 7: 1}","[1, 6, 7, 53]",186271533,H8C2I3N1
SiH8C2NClO,mp-560249,5.0286,-1.52350068,0.3916827909598197,"{14: 1, 1: 8, 6: 2, 7: 1, 17: 1, 8: 1}","[1, 6, 7, 8, 14, 17]",18627181141171,Si1H8C2N1Cl1O1
H8C2SBrNO,mp-1196575,4.3089,-0.76990304,0.2586453837627545,"{1: 8, 6: 2, 16: 1, 35: 1, 7: 1, 8: 1}","[1, 6, 7, 8, 16, 35]",18627181161351,H8C2S1Br1N1O1
Al3P3H8C2NO13,mp-1204696,0.9331,0.97227458,0.13837984333630704,"{13: 3, 15: 3, 1: 8, 6: 2, 7: 1, 8: 13}","[1, 6, 7, 8, 13, 15]",186271813133153,Al3P3H8C2N1O13
PH8C2NO2,mp-561521,5.0127999999999995,-0.49751464,0.06137398647448933,"{15: 1, 1: 8, 6: 2, 7: 1, 8: 2}","[1, 6, 7, 8, 15]",18627182151,P1H8C2N1O2
PH8C2SNO2,mp-561476,4.4704,-1.1449439,0.11926748436117585,"{15: 1, 1: 8, 6: 2, 16: 1, 7: 1, 8: 2}","[1, 6, 7, 8, 15, 16]",18627182151161,P1H8C2S1N1O2
VH8C2NO3,mp-746681,3.032,1.3877571,0.12727934608333502,"{23: 1, 1: 8, 6: 2, 7: 1, 8: 3}","[1, 6, 7, 8, 23]",18627183231,V1H8C2N1O3
PH8C2NO4,mp-557521,5.544499999999999,-1.31682328,0.08504567710936772,"{15: 1, 1: 8, 6: 2, 7: 1, 8: 4}","[1, 6, 7, 8, 15]",18627184151,P1H8C2N1O4
NaH8C2S2NO5,mp-1198497,5.4515,-1.31513105,0.24525466815789176,"{11: 1, 1: 8, 6: 2, 16: 2, 7: 1, 8: 5}","[1, 6, 7, 8, 11, 16]",18627185111162,Na1H8C2S2N1O5
V3H8C2NO7,mp-560592,0.0,1.38934608,0.17352157130952683,"{23: 3, 1: 8, 6: 2, 7: 1, 8: 7}","[1, 6, 7, 8, 23]",18627187233,V3H8C2N1O7
Sn3H8C2NO7,mp-1016213,0.06669999999999998,0.52014532,0.36243609720238545,"{50: 3, 1: 8, 6: 2, 7: 1, 8: 7}","[1, 6, 7, 8, 50]",18627187503,Sn3H8C2N1O7
UP2H8C2NO8,mp-1200002,0.040200000000000014,-0.44830624,0.416739963143943,"{92: 1, 15: 2, 1: 8, 6: 2, 7: 1, 8: 8}","[1, 6, 7, 8, 15, 92]",18627188152921,U1P2H8C2N1O8
Al2P2H8C2NO8F,mp-708964,5.4001,0.20964837,0.053023595590279804,"{13: 2, 15: 2, 1: 8, 6: 2, 7: 1, 8: 8, 9: 1}","[1, 6, 7, 8, 9, 13, 15]",1862718891132152,Al2P2H8C2N1O8F1
MgH8C2S2(NO2)2,mp-556025,4.3106,-1.0259751,0.08206760073685171,"{12: 1, 1: 8, 6: 2, 16: 2, 7: 2, 8: 4}","[1, 6, 7, 8, 12, 16]",18627284121162,Mg1H8C2S2N2O4
MnH8C2S2(NO2)2,mp-767297,3.9825,-1.07875165,0.10858374618424271,"{25: 1, 1: 8, 6: 2, 16: 2, 7: 2, 8: 4}","[1, 6, 7, 8, 16, 25]",18627284162251,Mn1H8C2S2N2O4
H8C2S3(NO3)2,mp-707928,5.6343,-1.32106132,0.3216374202705614,"{1: 8, 6: 2, 16: 3, 7: 2, 8: 6}","[1, 6, 7, 8, 16]",18627286163,H8C2S3N2O6
VH8C2N2O6F,mp-720829,3.1361999999999997,-1.0155329,0.09003650316666079,"{23: 1, 1: 8, 6: 2, 7: 2, 8: 6, 9: 1}","[1, 6, 7, 8, 9, 23]",1862728691231,V1H8C2N2O6F1
AgH8C2S2N4Cl,mp-1202929,0.0,3.02091495,0.024147413333333922,"{47: 1, 1: 8, 6: 2, 16: 2, 7: 4, 17: 1}","[1, 6, 7, 16, 17, 47]",186274162171471,Ag1H8C2S2N4Cl1
H8AuC2S2N4Cl,mp-1200739,3.3228,-0.38364042,0.028002428055559747,"{1: 8, 79: 1, 6: 2, 16: 2, 7: 4, 17: 1}","[1, 6, 7, 16, 17, 79]",186274162171791,H8Au1C2S2N4Cl1
H8C2SeS2(N2Cl)2,mp-707208,2.7415,0.01447538,0.055357036518372205,"{1: 8, 6: 2, 34: 1, 16: 2, 7: 4, 17: 2}","[1, 6, 7, 16, 17, 34]",186274162172341,H8C2Se1S2N4Cl2
CdH8C2S2(N2Cl)2,mp-1200842,3.8023,2.7893697,0.04088292942282212,"{48: 1, 1: 8, 6: 2, 16: 2, 7: 4, 17: 2}","[1, 6, 7, 16, 17, 48]",186274162172481,Cd1H8C2S2N4Cl2
HgH8C2S2(NCl)4,mp-1196156,3.1283000000000003,-0.81062824,0.03346761708711199,"{80: 1, 1: 8, 6: 2, 16: 2, 7: 4, 17: 4}","[1, 6, 7, 16, 17, 80]",186274162174801,Hg1H8C2S2N4Cl4
ZnH8C2S2(IN2)2,mp-1204018,3.6644,3.11499781,0.035811916071102345,"{30: 1, 1: 8, 6: 2, 16: 2, 53: 2, 7: 4}","[1, 6, 7, 16, 30, 53]",186274162301532,Zn1H8C2S2I2N4
H8C2SeS2(BrN2)2,mp-707239,2.5463,-0.19342822,0.11161874361609314,"{1: 8, 6: 2, 34: 1, 16: 2, 35: 2, 7: 4}","[1, 6, 7, 16, 34, 35]",186274162341352,H8C2Se1S2Br2N4
AgH8C2S2BrN4,mp-1202066,2.9647,2.82272401,0.02368611408220378,"{47: 1, 1: 8, 6: 2, 16: 2, 35: 1, 7: 4}","[1, 6, 7, 16, 35, 47]",186274162351471,Ag1H8C2S2Br1N4
H8AuC2S2BrN4,mp-740707,3.1406,0.10738624,0.028551674637753877,"{1: 8, 79: 1, 6: 2, 16: 2, 35: 1, 7: 4}","[1, 6, 7, 16, 35, 79]",186274162351791,H8Au1C2S2Br1N4
CdH8C2S2(BrN2)2,mp-697260,3.1704,-0.31533032,0.04205359348629045,"{48: 1, 1: 8, 6: 2, 16: 2, 35: 2, 7: 4}","[1, 6, 7, 16, 35, 48]",186274162352481,Cd1H8C2S2Br2N4
CdRe2H8C2(N2O5)2,mp-733848,2.5378,-1.03283221,0.0164553449074063,"{48: 1, 75: 2, 1: 8, 6: 2, 7: 4, 8: 10}","[1, 6, 7, 8, 48, 75]",186274810481752,Cd1Re2H8C2N4O10
SbH8C2S2Br3N4O,mp-1204309,0.0,-0.37730459,0.2792520599428112,"{51: 1, 1: 8, 6: 2, 16: 2, 35: 3, 7: 4, 8: 1}","[1, 6, 7, 8, 16, 35, 51]",18627481162353511,Sb1H8C2S2Br3N4O1
ZnH8C2N4(ClO)2,mp-24664,4.7564,-1.51326465,0.0,"{30: 1, 1: 8, 6: 2, 7: 4, 17: 2, 8: 2}","[1, 6, 7, 8, 17, 30]",18627482172301,Zn1H8C2N4Cl2O2
ZnH8C2I2(N2O)2,mp-697957,1.8638,0.56693423,0.063954810493426,"{30: 1, 1: 8, 6: 2, 53: 2, 7: 4, 8: 2}","[1, 6, 7, 8, 30, 53]",18627482301532,Zn1H8C2I2N4O2
H8AuC2S2N4ClO4,mp-721059,3.3284000000000002,0.29226886,0.397453049735069,"{1: 8, 79: 1, 6: 2, 16: 2, 7: 4, 17: 1, 8: 4}","[1, 6, 7, 8, 16, 17, 79]",18627484162171791,H8Au1C2S2N4Cl1O4
CoH8C2N4(ClO2)2,mp-1200994,0.44630000000000003,-0.38399236,0.403170389861109,"{27: 1, 1: 8, 6: 2, 7: 4, 17: 2, 8: 4}","[1, 6, 7, 8, 17, 27]",18627484172271,Co1H8C2N4Cl2O4
CaH8C2N4O5,mp-1201531,4.982,4.63127627,0.10180547920832783,"{20: 1, 1: 8, 6: 2, 7: 4, 8: 5}","[1, 6, 7, 8, 20]",18627485201,Ca1H8C2N4O5
CdRe2H8C2S2(NO2)4,mp-1203521,2.7767999999999997,2.03390726,0.0894642490123525,"{48: 1, 75: 2, 1: 8, 6: 2, 16: 2, 7: 4, 8: 8}","[1, 6, 7, 8, 16, 48, 75]",18627488162481752,Cd1Re2H8C2S2N4O8
NpCrH8C2(NO2)4,mp-1205162,0.3299000000000001,0.96121036,0.15270128005785377,"{93: 1, 24: 1, 1: 8, 6: 2, 7: 4, 8: 8}","[1, 6, 7, 8, 24, 93]",18627488241931,Np1Cr1H8C2N4O8
Ag2H8C2S2N5ClO3,mp-1215002,2.4575,2.71017504,0.18775050698124485,"{47: 2, 1: 8, 6: 2, 16: 2, 7: 5, 17: 1, 8: 3}","[1, 6, 7, 8, 16, 17, 47]",18627583162171472,Ag2H8C2S2N5Cl1O3
ZnH8C2(SN3)2,mp-696420,4.2828,-0.05434755,0.17311843873684296,"{30: 1, 1: 8, 6: 2, 16: 2, 7: 6}","[1, 6, 7, 16, 30]",186276162301,Zn1H8C2S2N6
H8C2(N2O)3,mp-734124,3.2268,-0.58904759,0.18106282470759893,"{1: 8, 6: 2, 7: 6, 8: 3}","[1, 6, 7, 8]",18627683,H8C2N6O3
CdH8C2S2(NO)6,mp-1197049,3.0108,2.56730404,0.2968298027643126,"{48: 1, 1: 8, 6: 2, 16: 2, 7: 6, 8: 6}","[1, 6, 7, 8, 16, 48]",18627686162481,Cd1H8C2S2N6O6
H8C2N6O7,mp-1197148,2.4417999999999997,-1.80295856,0.3763876223550717,"{1: 8, 6: 2, 7: 6, 8: 7}","[1, 6, 7, 8]",18627687,H8C2N6O7
Na2CoH8(CO5)2,mp-735556,2.955,-0.17865382,0.0095004760869557,"{11: 2, 27: 1, 1: 8, 6: 2, 8: 10}","[1, 6, 8, 11, 27]",1862810112271,Na2Co1H8C2O10
K2MgH8(CO5)2,mp-757963,4.5358,-0.39302479,0.0,"{19: 2, 12: 1, 1: 8, 6: 2, 8: 10}","[1, 6, 8, 12, 19]",1862810121192,K2Mg1H8C2O10
Rb2MgH8(CO5)2,mp-24606,4.3182,-0.50042627,0.0,"{37: 2, 12: 1, 1: 8, 6: 2, 8: 10}","[1, 6, 8, 12, 37]",1862810121372,Rb2Mg1H8C2O10
Cs2MgH8(CO5)2,mp-733936,4.4403999999999995,-0.09300056,0.0,"{55: 2, 12: 1, 1: 8, 6: 2, 8: 10}","[1, 6, 8, 12, 55]",1862810121552,Cs2Mg1H8C2O10
K2CoH8(CO5)2,mp-24350,3.5964,-0.16640733,0.030206298478261395,"{19: 2, 27: 1, 1: 8, 6: 2, 8: 10}","[1, 6, 8, 19, 27]",1862810192271,K2Co1H8C2O10
CoH8(CO5)2,mp-772431,0.4276,-1.57043987,0.04616853785714259,"{27: 1, 1: 8, 6: 2, 8: 10}","[1, 6, 8, 27]",1862810271,Co1H8C2O10
Rb2CoH8(CO5)2,mp-24624,3.6014,0.02767509,0.025195883913046835,"{37: 2, 27: 1, 1: 8, 6: 2, 8: 10}","[1, 6, 8, 27, 37]",1862810271372,Rb2Co1H8C2O10
ZrH8C2S(OF2)2,mp-1215373,4.5471,-1.81827865,0.09923502496361891,"{40: 1, 1: 8, 6: 2, 16: 1, 8: 2, 9: 4}","[1, 6, 8, 9, 16, 40]",18628294161401,Zr1H8C2S1O2F4
CaP2H8(CO3)2,mp-1203091,5.475099999999999,-0.65774083,0.013353146034854824,"{20: 1, 15: 2, 1: 8, 6: 2, 8: 6}","[1, 6, 8, 15, 20]",186286152201,Ca1P2H8C2O6
CoH8(CO4)2,mp-1204386,2.2106,1.69579627,0.03190040839912278,"{27: 1, 1: 8, 6: 2, 8: 8}","[1, 6, 8, 27]",186288271,Co1H8C2O8
HoH8C2O8F,mp-1200731,3.8305,-2.00756288,0.05651311989583441,"{67: 1, 1: 8, 6: 2, 8: 8, 9: 1}","[1, 6, 8, 9, 67]",18628891671,Ho1H8C2O8F1
AlPH8(CCl)3,mp-1228904,1.9662,0.5803349,0.12510582873511833,"{13: 1, 15: 1, 1: 8, 6: 3, 17: 3}","[1, 6, 13, 15, 17]",1863131151173,Al1P1H8C3Cl3
H8C3S2,mp-555848,3.9735,-0.40765319,0.06705168271978046,"{1: 8, 6: 3, 16: 2}","[1, 6, 16]",1863162,H8C3S2
AlH8C3NCl2,mp-1193266,5.326700000000001,2.68556738,0.09781156930555035,"{13: 1, 1: 8, 6: 3, 7: 1, 17: 2}","[1, 6, 7, 13, 17]",186371131172,Al1H8C3N1Cl2
AgH8C3S2NO3,mp-1200006,2.8787000000000003,0.20425351,0.40197380253472303,"{47: 1, 1: 8, 6: 3, 16: 2, 7: 1, 8: 3}","[1, 6, 7, 8, 16, 47]",18637183162471,Ag1H8C3S2N1O3
H8C3SN(OF)3,mp-23777,5.8094,-1.63389143,0.2713422352725541,"{1: 8, 6: 3, 16: 1, 7: 1, 8: 3, 9: 3}","[1, 6, 7, 8, 9, 16]",1863718393161,H8C3S1N1O3F3
H8C3SN2,mp-600371,3.5357,-0.1276465,0.09504520532142902,"{1: 8, 6: 3, 16: 1, 7: 2}","[1, 6, 7, 16]",186372161,H8C3S1N2
H8C3SeN2,mp-600366,3.225,0.01818158,0.0811848238504469,"{1: 8, 6: 3, 34: 1, 7: 2}","[1, 6, 7, 34]",186372341,H8C3Se1N2
H8C3N2O,mp-1181376,3.4116999999999997,-1.17764988,0.07347126955357197,"{1: 8, 6: 3, 7: 2, 8: 1}","[1, 6, 7, 8]",18637281,H8C3N2O1
MgH8C3(NO3)2,mp-1198574,4.9305,3.60526076,0.15083117150000191,"{12: 1, 1: 8, 6: 3, 7: 2, 8: 6}","[1, 6, 7, 8, 12]",18637286121,Mg1H8C3N2O6
MnH8C3(NO3)2,mp-1194711,3.5307,3.29492041,0.15394485474999975,"{25: 1, 1: 8, 6: 3, 7: 2, 8: 6}","[1, 6, 7, 8, 25]",18637286251,Mn1H8C3N2O6
CoH8C3(NO3)2,mp-1201582,1.2842,1.45280082,0.20734291174999964,"{27: 1, 1: 8, 6: 3, 7: 2, 8: 6}","[1, 6, 7, 8, 27]",18637286271,Co1H8C3N2O6
ZnH8C3(NO3)2,mp-1201835,4.4521999999999995,3.48447642,0.16634203274999582,"{30: 1, 1: 8, 6: 3, 7: 2, 8: 6}","[1, 6, 7, 8, 30]",18637286301,Zn1H8C3N2O6
H8C3(NO)3,mp-542782,3.0245,-0.0093975,0.09227496203431329,"{1: 8, 6: 3, 7: 3, 8: 3}","[1, 6, 7, 8]",18637383,H8C3N3O3
CoPH8C3N3O7,mp-1204541,2.6717,2.23588611,0.08612825769013632,"{27: 1, 15: 1, 1: 8, 6: 3, 7: 3, 8: 7}","[1, 6, 7, 8, 15, 27]",18637387151271,Co1P1H8C3N3O7
H8C3(NO)4,mp-708965,3.3613999999999997,-0.99906098,0.6523913266228067,"{1: 8, 6: 3, 7: 4, 8: 4}","[1, 6, 7, 8]",18637484,H8C3N4O4
H8C3S3N4O5,mp-1203109,3.4558999999999997,-0.75181692,0.25922594176218894,"{1: 8, 6: 3, 16: 3, 7: 4, 8: 5}","[1, 6, 7, 8, 16]",18637485163,H8C3S3N4O5
H8C3O2,mp-555128,5.6182,-2.03567241,0.22733331096153808,"{1: 8, 6: 3, 8: 2}","[1, 6, 8]",186382,H8C3O2
AgH8C3S2ClO4,mp-1205234,3.464,-0.1531786,0.5885352335056373,"{47: 1, 1: 8, 6: 3, 16: 2, 17: 1, 8: 4}","[1, 6, 8, 16, 17, 47]",186384162171471,Ag1H8C3S2Cl1O4
Sb2H8C3SCl6O5,mp-1200711,2.5541,-1.66185091,0.2435084354250039,"{51: 2, 1: 8, 6: 3, 16: 1, 17: 6, 8: 5}","[1, 6, 8, 16, 17, 51]",186385161176512,Sb2H8C3S1Cl6O5
SiH8(CBr)4,mp-1198339,4.2427,-1.7967509,0.2730108688970567,"{14: 1, 1: 8, 6: 4, 35: 4}","[1, 6, 14, 35]",1864141354,Si1H8C4Br4
SiH8(CI)4,mp-1205230,3.3496,-0.31312247,0.2226309797058823,"{14: 1, 1: 8, 6: 4, 53: 4}","[1, 6, 14, 53]",1864141534,Si1H8C4I4
SnH8(CI)4,mp-698357,3.0235999999999996,0.18398657,0.341738592205882,"{50: 1, 1: 8, 6: 4, 53: 4}","[1, 6, 50, 53]",1864501534,Sn1H8C4I4
TiH8C4NO10,mp-557853,0.0,1.56919118,0.07898624066840565,"{22: 1, 1: 8, 6: 4, 7: 1, 8: 10}","[1, 6, 7, 8, 22]",186471810221,Ti1H8C4N1O10
CrH8C4NO10,mp-1226401,3.2492,-1.1217555,0.042478062395832517,"{24: 1, 1: 8, 6: 4, 7: 1, 8: 10}","[1, 6, 7, 8, 24]",186471810241,Cr1H8C4N1O10
InH8C4NO10,mp-557319,3.5606,-1.36608129,0.027977025451387583,"{49: 1, 1: 8, 6: 4, 7: 1, 8: 10}","[1, 6, 7, 8, 49]",186471810491,In1H8C4N1O10
CdH8C4(NCl)2,mp-1204467,0.283,-0.66819785,0.3315876481617659,"{48: 1, 1: 8, 6: 4, 7: 2, 17: 2}","[1, 6, 7, 17, 48]",186472172481,Cd1H8C4N2Cl2
MgH8C4(NO3)2,mp-1194681,4.7958,3.05389998,0.10363613047618525,"{12: 1, 1: 8, 6: 4, 7: 2, 8: 6}","[1, 6, 7, 8, 12]",18647286121,Mg1H8C4N2O6
MnH8C4(NO3)2,mp-1195584,3.3255999999999997,3.10975717,0.10381907476190388,"{25: 1, 1: 8, 6: 4, 7: 2, 8: 6}","[1, 6, 7, 8, 25]",18647286251,Mn1H8C4N2O6