formula,material_id,band_gap,efermi,energy_above_hull,comp_atoms,sorted_keys_comp_atoms,comp_number,new_formula
Er7C2I12N,mp-679936,1.1629999999999998,2.63024696,0.0,"{68: 7, 6: 2, 53: 12, 7: 1}","[6, 7, 53, 68]",62715312687,Er7C2I12N1
C2NClO,mp-729935,3.3975,-2.78175805,0.35067467191666957,"{6: 2, 7: 1, 17: 1, 8: 1}","[6, 7, 8, 17]",627181171,C2N1Cl1O1
C2BrNO,mp-1087519,2.9804999999999997,-2.86088018,0.3275364765937496,"{6: 2, 35: 1, 7: 1, 8: 1}","[6, 7, 8, 35]",627181351,C2Br1N1O1
C2SNOF,mp-1198997,3.8048,-2.44227224,0.16068682117559518,"{6: 2, 16: 1, 7: 1, 8: 1, 9: 1}","[6, 7, 8, 9, 16]",62718191161,C2S1N1O1F1
C2SeNClO2,mp-1192990,1.9036,-0.8055041,0.5730273423381691,"{6: 2, 34: 1, 7: 1, 17: 1, 8: 2}","[6, 7, 8, 17, 34]",627182171341,C2Se1N1Cl1O2
Sb3C2N(OF8)2,mp-566334,3.937,-3.1202651,0.07863762276041708,"{51: 3, 6: 2, 7: 1, 8: 2, 9: 16}","[6, 7, 8, 9, 51]",627182916513,Sb3C2N1O2F16
AsC2N(OF3)2,mp-555133,4.6508,-3.42769918,0.11533891984374822,"{33: 1, 6: 2, 7: 1, 8: 2, 9: 6}","[6, 7, 8, 9, 33]",62718296331,As1C2N1O2F6
SbC2N(OF3)2,mp-557600,4.564299999999999,-3.20056847,0.08458368505208114,"{51: 1, 6: 2, 7: 1, 8: 2, 9: 6}","[6, 7, 8, 9, 51]",62718296511,Sb1C2N1O2F6
NaC2NO3,mp-1193256,4.4435,-1.25877407,0.05426392726190521,"{11: 1, 6: 2, 7: 1, 8: 3}","[6, 7, 8, 11]",627183111,Na1C2N1O3
PC2NO4,mp-1179967,3.6926999999999994,-0.64280054,0.45081153007812436,"{15: 1, 6: 2, 7: 1, 8: 4}","[6, 7, 8, 15]",627184151,P1C2N1O4
K2TcC2S4NO4,mp-1181454,1.5891000000000002,2.51855069,0.4789668360841839,"{19: 2, 43: 1, 6: 2, 16: 4, 7: 1, 8: 4}","[6, 7, 8, 16, 19, 43]",627184164192431,K2Tc1C2S4N1O4
RbC2S2N(OF)4,mp-559029,4.765,-0.98808631,0.3048748769277543,"{37: 1, 6: 2, 16: 2, 7: 1, 8: 4, 9: 4}","[6, 7, 8, 9, 16, 37]",62718494162371,Rb1C2S2N1O4F4
NaC2S2N(O2F3)2,mp-1195079,6.184699999999999,-1.42908645,0.2280384592421889,"{11: 1, 6: 2, 16: 2, 7: 1, 8: 4, 9: 6}","[6, 7, 8, 9, 11, 16]",62718496111162,Na1C2S2N1O4F6
C2S2N(O2F3)2,mp-1204119,0.20450000000000013,-2.0504071,0.42314848023888896,"{6: 2, 16: 2, 7: 1, 8: 4, 9: 6}","[6, 7, 8, 9, 16]",62718496162,C2S2N1O4F6
KC2S2N(O2F3)2,mp-6902,6.3437,-1.33690477,0.2241424784446,"{19: 1, 6: 2, 16: 2, 7: 1, 8: 4, 9: 6}","[6, 7, 8, 9, 16, 19]",62718496162191,K1C2S2N1O4F6
CsC2S2N(O2F3)2,mp-573066,5.937399999999999,-1.52515978,0.21618346909801112,"{55: 1, 6: 2, 16: 2, 7: 1, 8: 4, 9: 6}","[6, 7, 8, 9, 16, 55]",62718496162551,Cs1C2S2N1O4F6
RbC2S2NO5F6,mp-1204843,0.5979000000000001,-1.2649524,0.483022346198525,"{37: 1, 6: 2, 16: 2, 7: 1, 8: 5, 9: 6}","[6, 7, 8, 9, 16, 37]",62718596162371,Rb1C2S2N1O5F6
K2UC2SeSNO8,mp-1212071,1.4163000000000001,1.18619862,0.24925709974108212,"{19: 2, 92: 1, 6: 2, 34: 1, 16: 1, 7: 1, 8: 8}","[6, 7, 8, 16, 19, 34, 92]",627188161192341921,K2U1C2Se1S1N1O8
K2UC2S2NO8,mp-1212185,1.3998,1.35122481,0.11684042905066327,"{19: 2, 92: 1, 6: 2, 16: 2, 7: 1, 8: 8}","[6, 7, 8, 16, 19, 92]",627188162192921,K2U1C2S2N1O8
Rb2CdC2NClO8,mp-729099,0.0,-1.10385422,0.33337195274999587,"{37: 2, 48: 1, 6: 2, 7: 1, 17: 1, 8: 8}","[6, 7, 8, 17, 37, 48]",627188171372481,Rb2Cd1C2N1Cl1O8
NaMoC2NO9,mp-1205218,0.0,0.49249609,0.9358505859464419,"{11: 1, 42: 1, 6: 2, 7: 1, 8: 9}","[6, 7, 8, 11, 42]",627189111421,Na1Mo1C2N1O9
C2SNCl2F5,mp-559455,3.1605,-2.07090431,0.12149183422934495,"{6: 2, 16: 1, 7: 1, 17: 2, 9: 5}","[6, 7, 9, 16, 17]",627195161172,C2S1N1Cl2F5
AsC2S3NF8,mp-1214666,0.2631,0.69757734,0.23719692782737933,"{33: 1, 6: 2, 16: 3, 7: 1, 9: 8}","[6, 7, 9, 16, 33]",627198163331,As1C2S3N1F8
NaAg(CN)2,mp-568422,2.9494,-1.39972513,0.21838023711804944,"{11: 1, 47: 1, 6: 2, 7: 2}","[6, 7, 11, 47]",6272111471,Na1Ag1C2N2
Mg(CN)2,mp-36940,6.162699999999999,-4.56399186,0.4000714055000012,"{12: 1, 6: 2, 7: 2}","[6, 7, 12]",6272121,Mg1C2N2
P4C2Se3N2,mp-568534,2.2422999999999997,0.12055555,0.3312172183333342,"{15: 4, 6: 2, 34: 3, 7: 2}","[6, 7, 15, 34]",6272154343,P4C2Se3N2
C2SN2,mp-616463,3.718,-1.53364796,0.4663577490357129,"{6: 2, 16: 1, 7: 2}","[6, 7, 16]",6272161,C2S1N2
KAgC2(SN)2,mp-680197,2.9337,0.46046528,0.09134752837995386,"{19: 1, 47: 1, 6: 2, 16: 2, 7: 2}","[6, 7, 16, 19, 47]",6272162191471,K1Ag1C2S2N2
KAuC2(SN)2,mp-641962,2.1729,0.79611798,0.127569925347216,"{19: 1, 79: 1, 6: 2, 16: 2, 7: 2}","[6, 7, 16, 19, 79]",6272162191791,K1Au1C2S2N2
K2HgC2S2(BrN)2,mp-556327,2.3991,-0.97224098,0.12261881327380575,"{19: 2, 80: 1, 6: 2, 16: 2, 35: 2, 7: 2}","[6, 7, 16, 19, 35, 80]",6272162192352801,K2Hg1C2S2Br2N2
CaC2(SN)2,mp-11009,3.4012000000000002,1.24927742,0.09210880538265087,"{20: 1, 6: 2, 16: 2, 7: 2}","[6, 7, 16, 20]",6272162201,Ca1C2S2N2
ZnC2(SN)2,mp-680579,3.7288,-0.88309353,0.1522121096683664,"{30: 1, 6: 2, 16: 2, 7: 2}","[6, 7, 16, 30]",6272162301,Zn1C2S2N2
C2Se(SN)2,mp-6615,2.2605,-0.88956262,0.3071489460703649,"{6: 2, 34: 1, 16: 2, 7: 2}","[6, 7, 16, 34]",6272162341,C2Se1S2N2
RbAuC2(SN)2,mp-641965,2.2937000000000003,0.52815657,0.11134180111978775,"{37: 1, 79: 1, 6: 2, 16: 2, 7: 2}","[6, 7, 16, 37, 79]",6272162371791,Rb1Au1C2S2N2
SrC2(SN)2,mp-10927,3.7878,0.70708902,0.04005840466836563,"{38: 1, 6: 2, 16: 2, 7: 2}","[6, 7, 16, 38]",6272162381,Sr1C2S2N2
CdC2(SN)2,mp-540903,3.3015999999999996,-0.27922448,0.18505471466836632,"{48: 1, 6: 2, 16: 2, 7: 2}","[6, 7, 16, 48]",6272162481,Cd1C2S2N2
SnC2(SN)2,mp-620404,2.4295999999999998,1.46548653,0.2047941528571391,"{50: 1, 6: 2, 16: 2, 7: 2}","[6, 7, 16, 50]",6272162501,Sn1C2S2N2
EuC2(SN)2,mp-22175,0.0,4.3758593,0.08105722692176798,"{63: 1, 6: 2, 16: 2, 7: 2}","[6, 7, 16, 63]",6272162631,Eu1C2S2N2
HgC2(SN)2,mp-655275,2.2164,-0.30539058,0.2357459746683661,"{80: 1, 6: 2, 16: 2, 7: 2}","[6, 7, 16, 80]",6272162801,Hg1C2S2N2
PbC2(SN)2,mp-20605,2.652,1.70296978,0.14691523038265153,"{82: 1, 6: 2, 16: 2, 7: 2}","[6, 7, 16, 82]",6272162821,Pb1C2S2N2
C2S3N2,mp-540807,2.6589,-0.9050601,0.3034883768622434,"{6: 2, 16: 3, 7: 2}","[6, 7, 16]",6272163,C2S3N2
C2S9N2,mp-30063,2.5682,-0.23838675,0.13991834762362831,"{6: 2, 16: 9, 7: 2}","[6, 7, 16]",6272169,C2S9N2
HfTaC2,mp-1224285,0.0,7.3546102,0.0,"{72: 1, 73: 1, 6: 2}","[6, 72, 73]",62721731,Hf1Ta1C2
HfWC2,mp-1224191,0.0,7.7345523,0.10291846750000211,"{72: 1, 74: 1, 6: 2}","[6, 72, 74]",62721741,Hf1W1C2
KAg(CN)2,mp-582994,3.0962,-2.33147678,0.19261500052082958,"{19: 1, 47: 1, 6: 2, 7: 2}","[6, 7, 19, 47]",6272191471,K1Ag1C2N2
KC2IN2,mp-567299,4.5211,-1.34938315,0.4735633353174604,"{19: 1, 6: 2, 53: 1, 7: 2}","[6, 7, 19, 53]",6272191531,K1C2I1N2
KHgC2IN2,mp-568604,2.6355999999999997,-0.25783056,0.28364069562924765,"{19: 1, 80: 1, 6: 2, 53: 1, 7: 2}","[6, 7, 19, 53, 80]",6272191531801,K1Hg1C2I1N2
KAu(CN)2,mp-672348,2.9528,-1.88511002,0.11729980009721697,"{19: 1, 79: 1, 6: 2, 7: 2}","[6, 7, 19, 79]",6272191791,K1Au1C2N2
HfUC2,mp-1224240,0.0,8.88995402,0.0,"{72: 1, 92: 1, 6: 2}","[6, 72, 92]",62721921,Hf1U1C2
K2Re3C2Se5N2,mp-680168,1.1218,1.89474001,0.0,"{19: 2, 75: 3, 6: 2, 34: 5, 7: 2}","[6, 7, 19, 34, 75]",6272192345753,K2Re3C2Se5N2
Mn(CN)2,mp-1245492,1.5421,-0.51735156,0.3498102559999996,"{25: 1, 6: 2, 7: 2}","[6, 7, 25]",6272251,Mn1C2N2
Co(CN)2,mp-1245710,0.0,-0.94481261,0.2747761915000009,"{27: 1, 6: 2, 7: 2}","[6, 7, 27]",6272271,Co1C2N2
Zn(CN)2,mp-35751,5.7795,-4.06259462,0.2548625885,"{30: 1, 6: 2, 7: 2}","[6, 7, 30]",6272301,Zn1C2N2
C2SeN2,mp-639826,3.336,-1.16220041,0.4513979070312484,"{6: 2, 34: 1, 7: 2}","[6, 7, 34]",6272341,C2Se1N2
HgC2(SeN)2,mp-570211,2.2102,-0.79535313,0.275585596093749,"{80: 1, 6: 2, 34: 2, 7: 2}","[6, 7, 34, 80]",6272342801,Hg1C2Se2N2
C2Se3N2,mp-542699,1.9919000000000002,-0.82334452,0.17268072363839249,"{6: 2, 34: 3, 7: 2}","[6, 7, 34]",6272343,C2Se3N2
CdC2(Br2N)2,mp-727059,2.3733999999999997,-2.47983222,0.2829101070486111,"{48: 1, 6: 2, 35: 4, 7: 2}","[6, 7, 35, 48]",6272354481,Cd1C2Br4N2
HgC2(Br2N)2,mp-1181469,3.2037000000000004,-3.87295718,0.23718461001157465,"{80: 1, 6: 2, 35: 4, 7: 2}","[6, 7, 35, 80]",6272354801,Hg1C2Br4N2
RbC2I3N2,mp-580962,3.1540999999999997,-0.20630279,0.3779700226562497,"{37: 1, 6: 2, 53: 3, 7: 2}","[6, 7, 37, 53]",6272371533,Rb1C2I3N2
RbAu(CN)2,mp-568381,2.9271000000000003,-1.56895056,0.11725347312499679,"{37: 1, 79: 1, 6: 2, 7: 2}","[6, 7, 37, 79]",6272371791,Rb1Au1C2N2
Ru(CN)2,mp-1245675,1.3609,2.62290089,0.26067746500000055,"{44: 1, 6: 2, 7: 2}","[6, 7, 44]",6272441,Ru1C2N2
Pd(CN)2,mp-1245838,3.04,-2.59275128,0.21881683249999995,"{46: 1, 6: 2, 7: 2}","[6, 7, 46]",6272461,Pd1C2N2
TlAg(CN)2,mp-621981,2.6981,0.00604578,0.25959199201388294,"{81: 1, 47: 1, 6: 2, 7: 2}","[6, 7, 47, 81]",6272471811,Tl1Ag1C2N2
Cd(CN)2,mp-34656,5.9948,-4.65094428,0.2732183035000002,"{48: 1, 6: 2, 7: 2}","[6, 7, 48]",6272481,Cd1C2N2
Sn(CN)2,mp-1246850,3.0991,2.59302809,0.36646259850000007,"{50: 1, 6: 2, 7: 2}","[6, 7, 50]",6272501,Sn1C2N2
CsC2I3N2,mp-608206,3.2547,0.25847633,0.39499126664062434,"{55: 1, 6: 2, 53: 3, 7: 2}","[6, 7, 53, 55]",6272533551,Cs1C2I3N2
Pt(CN)2,mp-1247533,1.7825,1.74064541,0.43732829600000045,"{78: 1, 6: 2, 7: 2}","[6, 7, 78]",6272781,Pt1C2N2
TlAu(CN)2,mp-569173,1.7415000000000003,0.9181617,0.1606519367708268,"{81: 1, 79: 1, 6: 2, 7: 2}","[6, 7, 79, 81]",6272791811,Tl1Au1C2N2
Hg(CN)2,mp-573909,4.7489,-3.32825969,0.42709944499999786,"{80: 1, 6: 2, 7: 2}","[6, 7, 80]",6272801,Hg1C2N2
C2N2O,mp-1214250,2.2087,0.91621813,0.3269611144166671,"{6: 2, 7: 2, 8: 1}","[6, 7, 8]",627281,C2N2O1
UC2Se2N2O11,mp-1203577,0.12740000000000018,-2.93756754,1.2305822965277775,"{92: 1, 6: 2, 34: 2, 7: 2, 8: 11}","[6, 7, 8, 34, 92]",6272811342921,U1C2Se2N2O11
KHgC2N2ClO,mp-725081,0.5758000000000001,-1.65712271,0.8161521920312484,"{19: 1, 80: 1, 6: 2, 7: 2, 17: 1, 8: 1}","[6, 7, 8, 17, 19, 80]",627281171191801,K1Hg1C2N2Cl1O1
RbHgC2N2ClO,mp-1179748,0.0,-2.60407232,0.9251863620312486,"{37: 1, 80: 1, 6: 2, 7: 2, 17: 1, 8: 1}","[6, 7, 8, 17, 37, 80]",627281171371801,Rb1Hg1C2N2Cl1O1
KAuC2N2Cl2O,mp-1106075,0.028500000000000192,-2.05238868,0.7829504444907398,"{19: 1, 79: 1, 6: 2, 7: 2, 17: 2, 8: 1}","[6, 7, 8, 17, 19, 79]",627281172191791,K1Au1C2N2Cl2O1
MnC2S2(NO6)2,mp-1189676,0.21830000000000016,-3.18997472,1.0391233651535163,"{25: 1, 6: 2, 16: 2, 7: 2, 8: 12}","[6, 7, 8, 16, 25]",6272812162251,Mn1C2S2N2O12
UC2Se2(NO6)2,mp-1205231,0.0,-2.94999108,1.3475633128947422,"{92: 1, 6: 2, 34: 2, 7: 2, 8: 12}","[6, 7, 8, 34, 92]",6272812342921,U1C2Se2N2O12
V7C2(NO8)2,mp-1202853,1.1224,0.69999549,0.3235306944444467,"{23: 7, 6: 2, 7: 2, 8: 16}","[6, 7, 8, 23]",6272816237,V7C2N2O16
Hg2C2N2O,mp-560574,3.1475999999999997,-1.65962052,0.4907195116071392,"{80: 2, 6: 2, 7: 2, 8: 1}","[6, 7, 8, 80]",627281802,Hg2C2N2O1
CaC2(NO)2,mp-1200920,3.8085,1.77205815,0.0,"{20: 1, 6: 2, 7: 2, 8: 2}","[6, 7, 8, 20]",627282201,Ca1C2N2O2
HgC2(NO)2,mp-1104028,3.6841,-1.52162975,0.8260599499999985,"{80: 1, 6: 2, 7: 2, 8: 2}","[6, 7, 8, 80]",627282801,Hg1C2N2O2
SrC2S2N2O3,mp-1210354,2.0221,1.69663107,0.3556906832857063,"{38: 1, 6: 2, 16: 2, 7: 2, 8: 3}","[6, 7, 8, 16, 38]",627283162381,Sr1C2S2N2O3
Na2Sb5C2S2N2(OF3)3,mp-1195293,3.0602,1.77984133,0.0561983920500051,"{11: 2, 51: 5, 6: 2, 16: 2, 7: 2, 8: 3, 9: 9}","[6, 7, 8, 9, 11, 16, 51]",62728399112162515,Na2Sb5C2S2N2O3F9
PtC2(NO2)2,mp-1209601,0.0,-0.63610004,1.0797272755555554,"{78: 1, 6: 2, 7: 2, 8: 4}","[6, 7, 8, 78]",627284781,Pt1C2N2O4
UAsC2N2(O2F)2,mp-1199274,0.6177999999999999,1.63189937,0.6316370545312511,"{92: 1, 33: 1, 6: 2, 7: 2, 8: 4, 9: 2}","[6, 7, 8, 9, 33, 92]",62728492331921,U1As1C2N2O4F2
C2N2O5,mp-725609,3.3867000000000003,-2.61618256,0.5761783480555565,"{6: 2, 7: 2, 8: 5}","[6, 7, 8]",627285,C2N2O5
AlC2Br5(NO3)2,mp-1229188,0.0,0.91525108,1.655089647784087,"{13: 1, 6: 2, 35: 5, 7: 2, 8: 6}","[6, 7, 8, 13, 35]",627286131355,Al1C2Br5N2O6
Ag3C2(NO3)2,mp-1214975,0.0,-0.4793475,0.7961531953846137,"{47: 3, 6: 2, 7: 2, 8: 6}","[6, 7, 8, 47]",627286473,Ag3C2N2O6
AlCoP2C2(NO4)2,mp-1196580,0.3982,-0.15365577,0.2774556908724337,"{13: 1, 27: 1, 15: 2, 6: 2, 7: 2, 8: 8}","[6, 7, 8, 13, 15, 27]",627288131152271,Al1Co1P2C2N2O8
UP2C2(NO4)2,mp-1216960,0.35190000000000005,-0.67100064,0.2707088215833391,"{92: 1, 15: 2, 6: 2, 7: 2, 8: 8}","[6, 7, 8, 15, 92]",627288152921,U1P2C2N2O8
AlVP2C2N2O9,mp-735184,2.7338,-0.44715082,0.25663509262255424,"{13: 1, 23: 1, 15: 2, 6: 2, 7: 2, 8: 9}","[6, 7, 8, 13, 15, 23]",627289131152231,Al1V1P2C2N2O9
HgTe2C2(NF8)2,mp-558806,2.0982000000000003,-1.11893945,0.18153243480978176,"{80: 1, 52: 2, 6: 2, 7: 2, 9: 16}","[6, 7, 9, 52, 80]",6272916522801,Hg1Te2C2N2F16
SbC2N2F5,mp-1209165,4.7106,-4.56394792,0.24326583187500006,"{51: 1, 6: 2, 7: 2, 9: 5}","[6, 7, 9, 51]",627295511,Sb1C2N2F5
AgSbC2N2(ClF3)2,mp-1194141,3.1523000000000003,-1.67685277,0.11594540005952236,"{47: 1, 51: 1, 6: 2, 7: 2, 17: 2, 9: 6}","[6, 7, 9, 17, 47, 51]",627296172471511,Ag1Sb1C2N2Cl2F6
C2N3,mp-1078791,0.0,6.57872273,0.5600306459999995,"{6: 2, 7: 3}","[6, 7]",6273,C2N3
NaC2N3,mp-570248,3.4320999999999997,0.25278587,0.0,"{11: 1, 6: 2, 7: 3}","[6, 7, 11]",6273111,Na1C2N3
PC2S2N3,mp-652353,3.2539000000000002,-0.01342742,0.12482201754464395,"{15: 1, 6: 2, 16: 2, 7: 3}","[6, 7, 15, 16]",6273151162,P1C2S2N3
PC2N3Cl4,mp-567741,3.7504999999999997,-0.97935562,0.051915191988896936,"{15: 1, 6: 2, 7: 3, 17: 4}","[6, 7, 15, 17]",6273151174,P1C2N3Cl4
C2S(NCl)3,mp-558545,3.1683000000000003,-1.34002141,0.13094018912367833,"{6: 2, 16: 1, 7: 3, 17: 3}","[6, 7, 16, 17]",6273161173,C2S1N3Cl3
AgC2S2N3,mp-726944,0.0,-0.63234828,0.9880398930022309,"{47: 1, 6: 2, 16: 2, 7: 3}","[6, 7, 16, 47]",6273162471,Ag1C2S2N3
TaWC2,mp-1217826,0.0,8.54646322,0.21066236000000238,"{73: 1, 74: 1, 6: 2}","[6, 73, 74]",62731741,Ta1W1C2
KC2N3,mp-567823,3.7368,3.14942946,0.0,"{19: 1, 6: 2, 7: 3}","[6, 7, 19]",6273191,K1C2N3
UTaC2,mp-1216627,0.0,9.97370921,0.0,"{92: 1, 73: 1, 6: 2}","[6, 73, 92]",62731921,U1Ta1C2
PuTaC2,mp-1219660,0.0,9.92045554,0.26972685343750413,"{94: 1, 73: 1, 6: 2}","[6, 73, 94]",62731941,Pu1Ta1C2
CoC2N3,mp-1246117,0.04699999999999993,0.9861804,0.33823315291666667,"{27: 1, 6: 2, 7: 3}","[6, 7, 27]",6273271,Co1C2N3
Ta3C2,mp-1218120,0.0,7.12058766,0.0021180719999964737,"{73: 3, 6: 2}","[6, 73]",62733,Ta3C2
RbC2N3,mp-683918,3.653,-0.48530504,0.0,"{37: 1, 6: 2, 7: 3}","[6, 7, 37]",6273371,Rb1C2N3
Sr2C2N3,mp-720995,0.0,2.26576299,0.5006869122619051,"{38: 2, 6: 2, 7: 3}","[6, 7, 38]",6273382,Sr2C2N3
AgC2N3,mp-567459,3.7361,-0.56948248,0.23026379513888884,"{47: 1, 6: 2, 7: 3}","[6, 7, 47]",6273471,Ag1C2N3
CsC2N3,mp-1029718,4.0656,-1.96942864,0.008643674722224048,"{55: 1, 6: 2, 7: 3}","[6, 7, 55]",6273551,Cs1C2N3
AuC2N3,mp-1245660,3.6316,2.56052442,0.23471743555555502,"{79: 1, 6: 2, 7: 3}","[6, 7, 79]",6273791,Au1C2N3
Si(CN2)2,mp-30160,4.2444,-1.67420413,0.0359477098214267,"{14: 1, 6: 2, 7: 4}","[6, 7, 14]",6274141,Si1C2N4
AgC2S2N4Cl,mp-1215161,0.0,-0.15281636,0.8557314584107143,"{47: 1, 6: 2, 16: 2, 7: 4, 17: 1}","[6, 7, 16, 17, 47]",6274162171471,Ag1C2S2N4Cl1
CdC2S2(N2Cl)2,mp-1214018,0.6079999999999999,-0.90926307,0.61806771275974,"{48: 1, 6: 2, 16: 2, 7: 4, 17: 2}","[6, 7, 16, 17, 48]",6274162172481,Cd1C2S2N4Cl2
TeC2S2(N2Cl)2,mp-1179294,0.4775999999999999,-0.75918497,0.613458139515692,"{52: 1, 6: 2, 16: 2, 7: 4, 17: 2}","[6, 7, 16, 17, 52]",6274162172521,Te1C2S2N4Cl2
PbC2S2(N2Cl)2,mp-1198665,0.0,-1.40045494,0.756751531168832,"{82: 1, 6: 2, 16: 2, 7: 4, 17: 2}","[6, 7, 16, 17, 82]",6274162172821,Pb1C2S2N4Cl2
AuC2S2BrN4,mp-1214973,0.0,-0.80558964,0.7255413264464279,"{79: 1, 6: 2, 16: 2, 35: 1, 7: 4}","[6, 7, 16, 35, 79]",6274162351791,Au1C2S2Br1N4
TeC2S2(BrN2)2,mp-1179209,0.11909999999999998,-0.80428424,0.767457418522727,"{52: 1, 6: 2, 16: 2, 35: 2, 7: 4}","[6, 7, 16, 35, 52]",6274162352521,Te1C2S2Br2N4
PbC2S2(BrN2)2,mp-1192716,0.05489999999999995,-0.61172118,0.6292078129870129,"{82: 1, 6: 2, 16: 2, 35: 2, 7: 4}","[6, 7, 16, 35, 82]",6274162352821,Pb1C2S2Br2N4
CdC2S2(IN2)2,mp-1182432,1.0441000000000003,2.20198338,0.6727782190167737,"{48: 1, 6: 2, 16: 2, 53: 2, 7: 4}","[6, 7, 16, 48, 53]",6274162481532,Cd1C2S2I2N4
TeC2S2(IN2)2,mp-1192128,0.0,0.65029088,0.7443945570779213,"{52: 1, 6: 2, 16: 2, 53: 2, 7: 4}","[6, 7, 16, 52, 53]",6274162521532,Te1C2S2I2N4
PtC2(SN2)2,mp-1197127,0.5136000000000001,-1.30644902,1.1628842274999975,"{78: 1, 6: 2, 16: 2, 7: 4}","[6, 7, 16, 78]",6274162781,Pt1C2S2N4
TeC2Se2(N2Cl)2,mp-1192430,0.10870000000000002,-0.41109507,0.6140925376846598,"{52: 1, 6: 2, 34: 2, 7: 4, 17: 2}","[6, 7, 17, 34, 52]",6274172342521,Te1C2Se2N4Cl2
Hg3C2(N2Cl)2,mp-569515,1.7705000000000002,-0.00906037,0.2450938897727264,"{80: 3, 6: 2, 7: 4, 17: 2}","[6, 7, 17, 80]",6274172803,Hg3C2N4Cl2
UWC2,mp-652608,0.0,10.358126,0.0,"{92: 1, 74: 1, 6: 2}","[6, 74, 92]",62741921,U1W1C2
PuWC2,mp-1188092,0.0,10.21649784,0.0,"{94: 1, 74: 1, 6: 2}","[6, 74, 94]",62741941,Pu1W1C2
Ca3(CN2)2,mp-1247436,0.0,4.72786739,0.2984894350925922,"{20: 3, 6: 2, 7: 4}","[6, 7, 20]",6274203,Ca3C2N4
U(WC)2,mp-1179553,0.0,4.21422291,1.6838790910000014,"{92: 1, 74: 2, 6: 2}","[6, 74, 92]",62742921,U1W2C2
TeC2Se2(BrN2)2,mp-1191103,0.033299999999999996,-0.20944184,0.6103848324999994,"{52: 1, 6: 2, 34: 2, 35: 2, 7: 4}","[6, 7, 34, 35, 52]",6274342352521,Te1C2Se2Br2N4
Os3W3C2,mp-1220045,0.0,7.93934663,0.7309696087499997,"{76: 3, 74: 3, 6: 2}","[6, 74, 76]",62743763,Os3W3C2
Pd(CN2)2,mp-1194477,0.0,-4.19262952,1.8347856932142843,"{46: 1, 6: 2, 7: 4}","[6, 7, 46]",6274461,Pd1C2N4
CdRe2C2(N2O5)2,mp-1214630,1.4419,-2.32716014,0.40669137546053236,"{48: 1, 75: 2, 6: 2, 7: 4, 8: 10}","[6, 7, 8, 48, 75]",6274810481752,Cd1Re2C2N4O10
La2C2N4O,mp-560490,3.0946000000000007,4.86753184,0.0,"{57: 2, 6: 2, 7: 4, 8: 1}","[6, 7, 8, 57]",627481572,La2C2N4O1
Re6Pb3C2S2(N2O13)2,mp-1210434,0.06569999999999987,-1.01945581,0.5837396732007356,"{75: 6, 82: 3, 6: 2, 16: 2, 7: 4, 8: 26}","[6, 7, 8, 16, 75, 82]",6274826162756823,Re6Pb3C2S2N4O26
NaC2(NO)4,mp-1180486,0.0,-1.32283557,0.9832891224621214,"{11: 1, 6: 2, 7: 4, 8: 4}","[6, 7, 8, 11]",627484111,Na1C2N4O4
PdC2(NO)4,mp-1102641,0.0,-3.24555759,1.5545375236363626,"{46: 1, 6: 2, 7: 4, 8: 4}","[6, 7, 8, 46]",627484461,Pd1C2N4O4
CdC2(NO)4,mp-725922,2.4484,-1.73417068,0.04273571602273041,"{48: 1, 6: 2, 7: 4, 8: 4}","[6, 7, 8, 48]",627484481,Cd1C2N4O4
UC2S(NO2)4,mp-1204770,0.0,-1.50593078,0.7264861792471624,"{92: 1, 6: 2, 16: 1, 7: 4, 8: 8}","[6, 7, 8, 16, 92]",627488161921,U1C2S1N4O8
Cs2UC2S2(NO2)4,mp-1195416,1.4194,-0.27597728,0.4510352314114847,"{55: 2, 92: 1, 6: 2, 16: 2, 7: 4, 8: 8}","[6, 7, 8, 16, 55, 92]",627488162552921,Cs2U1C2S2N4O8
TeC2(NO2)4,mp-1179087,0.22039999999999993,-1.63210849,1.3789719010000008,"{52: 1, 6: 2, 7: 4, 8: 8}","[6, 7, 8, 52]",627488521,Te1C2N4O8
Sr3LaC2N4F5,mp-1218488,3.6895999999999995,2.19483657,0.019858664666666748,"{38: 3, 57: 1, 6: 2, 7: 4, 9: 5}","[6, 7, 9, 38, 57]",627495383571,Sr3La1C2N4F5
Eu4C2N4F5,mp-1204426,0.16239999999999988,3.84289419,0.0,"{63: 4, 6: 2, 7: 4, 9: 5}","[6, 7, 9, 63]",627495634,Eu4C2N4F5
ReC2,mp-1019054,0.0,6.69159348,0.4489144854166671,"{75: 1, 6: 2}","[6, 75]",62751,Re1C2
UReC2,mp-1105571,0.0,10.84104443,0.0,"{92: 1, 75: 1, 6: 2}","[6, 75, 92]",62751921,U1Re1C2
Sr4C2N5,mp-1245714,1.0196999999999998,3.95915412,0.12015395431818199,"{38: 4, 6: 2, 7: 5}","[6, 7, 38]",6275384,Sr4C2N5
OsC2,mp-1018850,0.04640000000000022,8.11794535,0.5797571416666667,"{76: 1, 6: 2}","[6, 76]",62761,Os1C2
ZnC2(N3Cl2)2,mp-1178699,0.15660000000000007,-2.30041299,1.0654974785897426,"{30: 1, 6: 2, 7: 6, 17: 4}","[6, 7, 17, 30]",6276174301,Zn1C2N6Cl4
U2OsC2,mp-1069004,0.0,10.84527594,0.0,"{92: 2, 76: 1, 6: 2}","[6, 76, 92]",62761922,U2Os1C2
Ca5(CN3)2,mp-1247395,1.335,6.21414067,0.35940650826923815,"{20: 5, 6: 2, 7: 6}","[6, 7, 20]",6276205,Ca5C2N6
ZnC2(Br2N3)2,mp-1194420,1.5294999999999999,-0.39674668,0.6033391912740393,"{30: 1, 6: 2, 35: 4, 7: 6}","[6, 7, 30, 35]",6276301354,Zn1C2Br4N6
MgC2S2(N3O7)2,mp-1211267,0.0939000000000001,-2.30326956,1.803270438700002,"{12: 1, 6: 2, 16: 2, 7: 6, 8: 14}","[6, 7, 8, 12, 16]",6276814121162,Mg1C2S2N6O14
V3P2C2(N3O7)2,mp-1199918,0.0,-1.32903906,1.0061010255555694,"{23: 3, 15: 2, 6: 2, 7: 6, 8: 14}","[6, 7, 8, 15, 23]",6276814152233,V3P2C2N6O14
Zn4P5C2(N3O10)2,mp-730292,0.0,-1.39684982,0.8496004872973009,"{30: 4, 15: 5, 6: 2, 7: 6, 8: 20}","[6, 7, 8, 15, 30]",6276820155304,Zn4P5C2N6O20