formula,material_id,band_gap,efermi,energy_above_hull,comp_atoms,sorted_keys_comp_atoms,comp_number,new_formula
Si2BPH28C9,mp-1199409,5.16,-2.94154169,0.05943269180423538,"{14: 2, 5: 1, 15: 1, 1: 28, 6: 9}","[1, 5, 6, 14, 15]",1285169142151,Si2B1P1H28C9
MgB6H28(C2O)2,mp-1200370,6.0823,-3.28324152,0.22808995250896924,"{12: 1, 5: 6, 1: 28, 6: 4, 8: 2}","[1, 5, 6, 8, 12]",128566482121,Mg1B6H28C4O2
SiP4H28(C5Cl2)2,mp-1200604,3.3470999999999997,2.61056527,0.04299384151975616,"{14: 1, 15: 4, 1: 28, 6: 10, 17: 4}","[1, 6, 14, 15, 17]",128610141154174,Si1P4H28C10Cl4
Cr2H28C10N6O7,mp-1227848,2.3938,0.97863062,0.2854730023113161,"{24: 2, 1: 28, 6: 10, 7: 6, 8: 7}","[1, 6, 7, 8, 24]",1286107687242,Cr2H28C10N6O7
ThH28C12(N2O3)6,mp-1200732,3.3678999999999997,-0.66358105,0.04939287112676194,"{90: 1, 1: 28, 6: 12, 7: 12, 8: 18}","[1, 6, 7, 8, 90]",128612712818901,Th1H28C12N12O18
NpH28C12(N2O3)6,mp-1197564,0.3968999999999999,0.83265564,0.12227554330985058,"{93: 1, 1: 28, 6: 12, 7: 12, 8: 18}","[1, 6, 7, 8, 93]",128612712818931,Np1H28C12N12O18
Cd3H28C12(N15O)2,mp-1214359,2.3781,3.66867005,0.18886611320000135,"{48: 3, 1: 28, 6: 12, 7: 30, 8: 2}","[1, 6, 7, 8, 48]",12861273082483,Cd3H28C12N30O2
MnH28C12Br2(N4O)2,mp-1197899,3.8754,3.90255274,0.2551246237500049,"{25: 1, 1: 28, 6: 12, 35: 2, 7: 8, 8: 2}","[1, 6, 7, 8, 25, 35]",1286127882251352,Mn1H28C12Br2N8O2
V2H28C12Cl2O7,mp-1201422,2.3578,0.03491253,0.16620667562907876,"{23: 2, 1: 28, 6: 12, 17: 2, 8: 7}","[1, 6, 8, 17, 23]",12861287172232,V2H28C12Cl2O7
Mg2P2H28C(ClO10)2,mp-1200724,3.8884,3.10378561,0.0710195917613694,"{12: 2, 15: 2, 1: 28, 6: 1, 17: 2, 8: 20}","[1, 6, 8, 12, 15, 17]",12861820122152172,Mg2P2H28C1Cl2O20
ZnCrH28C6N12Cl5O8,mp-728213,3.4335,-1.45913735,0.03127463609289638,"{30: 1, 24: 1, 1: 28, 6: 6, 7: 12, 17: 5, 8: 8}","[1, 6, 7, 8, 17, 24, 30]",1286671288175241301,Zn1Cr1H28C6N12Cl5O8
V5H28C8N13O17,mp-1201428,1.7750000000000001,1.35813364,0.19336439748825907,"{23: 5, 1: 28, 6: 8, 7: 13, 8: 17}","[1, 6, 7, 8, 23]",12868713817235,V5H28C8N13O17
Zn3P4H28C8(NO6)2,mp-1199347,4.9546,-1.09241041,0.12045460646930284,"{30: 3, 15: 4, 1: 28, 6: 8, 7: 2, 8: 12}","[1, 6, 7, 8, 15, 30]",1286872812154303,Zn3P4H28C8N2O12
Sn3H28C9IN,mp-1199776,2.7628,-0.41455636,0.12963061928571307,"{50: 3, 1: 28, 6: 9, 53: 1, 7: 1}","[1, 6, 7, 50, 53]",1286971503531,Sn3H28C9I1N1
Si2BPH29C9N,mp-1197645,3.5157999999999996,-1.02043098,0.10202570433646674,"{14: 2, 5: 1, 15: 1, 1: 29, 6: 9, 7: 1}","[1, 5, 6, 7, 14, 15]",129516971142151,Si2B1P1H29C9N1
Si2BAsH29C9N,mp-1203624,3.354,-1.1387297,0.10887829973929186,"{14: 2, 5: 1, 33: 1, 1: 29, 6: 9, 7: 1}","[1, 5, 6, 7, 14, 33]",129516971142331,Si2B1As1H29C9N1
SiP3H29C10BrN,mp-24830,4.0491,-0.79964985,0.06342094537797571,"{14: 1, 15: 3, 1: 29, 6: 10, 35: 1, 7: 1}","[1, 6, 7, 14, 15, 35]",12961071141153351,Si1P3H29C10Br1N1
NaMo3H29C8(BrO2)4,mp-1198806,1.8283999999999998,1.14962557,0.24986962108490562,"{11: 1, 42: 3, 1: 29, 6: 8, 35: 4, 8: 8}","[1, 6, 8, 11, 35, 42]",1296888111354423,Na1Mo3H29C8Br4O8
KMo2H29C9O11,mp-1203895,2.6207000000000003,1.17304389,0.20185763746394603,"{19: 1, 42: 2, 1: 29, 6: 9, 8: 11}","[1, 6, 8, 19, 42]",12969811191422,K1Mo2H29C9O11
B20H30C2S,mp-1196291,2.5779,-1.62482489,0.11348255960350428,"{5: 20, 1: 30, 6: 2, 16: 1}","[1, 5, 6, 16]",13052062161,B20H30C2S1
B20H30C3N2,mp-1201695,3.0457,1.64621231,0.16756586399533901,"{5: 20, 1: 30, 6: 3, 7: 2}","[1, 5, 6, 7]",1305206372,B20H30C3N2
GaSi4H30C10Cl,mp-604970,3.8218,-1.32731474,0.04432240945580723,"{31: 1, 14: 4, 1: 30, 6: 10, 17: 1}","[1, 6, 14, 17, 31]",130610144171311,Ga1Si4H30C10Cl1
PH30Pt2C10I2NCl2,mp-1196358,3.1727,-0.95057409,0.1440214463411431,"{15: 1, 1: 30, 78: 2, 6: 10, 53: 2, 7: 1, 17: 2}","[1, 6, 7, 15, 17, 53, 78]",13061071151172532782,P1H30Pt2C10I2N1Cl2
GaSi3PH30C10(NCl2)2,mp-1205154,3.1254,1.78593003,0.10281870338957777,"{31: 1, 14: 3, 15: 1, 1: 30, 6: 10, 7: 2, 17: 4}","[1, 6, 7, 14, 15, 17, 31]",13061072143151174311,Ga1Si3P1H30C10N2Cl4
TiSi3H30C10(N2Cl)2,mp-1203146,1.7889,-1.0941441,0.10539277133551295,"{22: 1, 14: 3, 1: 30, 6: 10, 7: 4, 17: 2}","[1, 6, 7, 14, 17, 22]",13061074143172221,Ti1Si3H30C10N4Cl2
TiH30C10S5(ClO3)2,mp-1204310,2.4561,1.87939478,0.188961000541088,"{22: 1, 1: 30, 6: 10, 16: 5, 17: 2, 8: 6}","[1, 6, 8, 16, 17, 22]",13061086165172221,Ti1H30C10S5Cl2O6
Ca3SiH30CSO25,mp-541025,4.4149,-0.25527594,0.017213414207649436,"{20: 3, 14: 1, 1: 30, 6: 1, 16: 1, 8: 25}","[1, 6, 8, 14, 16, 20]",13061825141161203,Ca3Si1H30C1S1O25
MgH30C2(SO9)2,mp-1195604,5.1716999999999995,-2.597853,0.06658456085579623,"{12: 1, 1: 30, 6: 2, 16: 2, 8: 18}","[1, 6, 8, 12, 16]",13062818121162,Mg1H30C2S2O18
MnH30C6(Se2N3)2,mp-1205136,1.1282,0.36779894,0.04947581255984179,"{25: 1, 1: 30, 6: 6, 34: 4, 7: 6}","[1, 6, 7, 25, 34]",1306676251344,Mn1H30C6Se4N6
MnH30C6Se5N6,mp-1225968,0.8027,0.74032538,0.03659048740559889,"{25: 1, 1: 30, 6: 6, 34: 5, 7: 6}","[1, 6, 7, 25, 34]",1306676251345,Mn1H30C6Se5N6
MnH30C8(N13O9)2,mp-728793,1.6095,0.14628494,0.38990218410311606,"{25: 1, 1: 30, 6: 8, 7: 26, 8: 18}","[1, 6, 7, 8, 25]",13068726818251,Mn1H30C8N26O18
Mn2H30C9N3Cl7,mp-568698,1.7453,0.48325183,0.07424660267157979,"{25: 2, 1: 30, 6: 9, 7: 3, 17: 7}","[1, 6, 7, 17, 25]",1306973177252,Mn2H30C9N3Cl7
Sb2H30C9(NCl3)3,mp-709030,3.1517,-0.64428896,0.06545259823113447,"{51: 2, 1: 30, 6: 9, 7: 3, 17: 9}","[1, 6, 7, 17, 51]",1306973179512,Sb2H30C9N3Cl9
PH30W12C9N3O40,mp-1196729,3.3232,-1.19400956,0.12189614149043848,"{15: 1, 1: 30, 74: 12, 6: 9, 7: 3, 8: 40}","[1, 6, 7, 8, 15, 74]",13069738401517412,P1H30W12C9N3O40
CoB10H31C18O,mp-1204268,1.8064,-1.18881116,0.18456957834016396,"{27: 1, 5: 10, 1: 31, 6: 18, 8: 1}","[1, 5, 6, 8, 27]",13151061881271,Co1B10H31C18O1
Si6H31C10N,mp-1200761,2.6143,2.13572683,0.07829934883662304,"{14: 6, 1: 31, 6: 10, 7: 1}","[1, 6, 7, 14]",13161071146,Si6H31C10N1
CrB6H32(C4O)2,mp-1201768,2.7018,1.03981915,0.24862689319090414,"{24: 1, 5: 6, 1: 32, 6: 8, 8: 2}","[1, 5, 6, 8, 24]",132566882241,Cr1B6H32C8O2
ZrH32C10IN5,mp-1195791,3.1279,-0.4406779,0.1213626417984699,"{40: 1, 1: 32, 6: 10, 53: 1, 7: 5}","[1, 6, 7, 40, 53]",13261075401531,Zr1H32C10I1N5
Sn2PH32C11N3Cl2O,mp-1196439,3.4303999999999997,-0.95182339,0.17238872667406202,"{50: 2, 15: 1, 1: 32, 6: 11, 7: 3, 17: 2, 8: 1}","[1, 6, 7, 8, 15, 17, 50]",1326117381151172502,Sn2P1H32C11N3Cl2O1
Na4ZnP3H32C3NO22,mp-1200262,4.5891,3.59753371,0.06694113250948508,"{11: 4, 30: 1, 15: 3, 1: 32, 6: 3, 7: 1, 8: 22}","[1, 6, 7, 8, 11, 15, 30]",1326371822114153301,Na4Zn1P3H32C3N1O22
CoH32C8S4(NO5)2,mp-1182596,2.5972,2.75590029,0.17948064715936063,"{27: 1, 1: 32, 6: 8, 16: 4, 7: 2, 8: 10}","[1, 6, 7, 8, 16, 27]",1326872810164271,Co1H32C8S4N2O10
H32RuC8N4Cl7,mp-571170,0.15259999999999996,0.61968742,0.0744732268269237,"{1: 32, 44: 1, 6: 8, 7: 4, 17: 7}","[1, 6, 7, 17, 44]",1326874177441,H32Ru1C8N4Cl7
SbH32C8N4Cl7,mp-708994,3.5129,-0.51359336,0.06579408451923108,"{51: 1, 1: 32, 6: 8, 7: 4, 17: 7}","[1, 6, 7, 17, 51]",1326874177511,Sb1H32C8N4Cl7
NdH32C8N4Cl7,mp-738618,4.7293,-1.47961806,0.06887510249999895,"{60: 1, 1: 32, 6: 8, 7: 4, 17: 7}","[1, 6, 7, 17, 60]",1326874177601,Nd1H32C8N4Cl7
SmH32C8N4Cl7,mp-863014,4.8273,-1.5016918,0.06076276624999455,"{62: 1, 1: 32, 6: 8, 7: 4, 17: 7}","[1, 6, 7, 17, 62]",1326874177621,Sm1H32C8N4Cl7
EuH32C8N4Cl7,mp-863015,0.0,-1.55001776,0.0800870909735556,"{63: 1, 1: 32, 6: 8, 7: 4, 17: 7}","[1, 6, 7, 17, 63]",1326874177631,Eu1H32C8N4Cl7
H32WC8N4Cl7,mp-568081,1.6809,1.34319907,0.08602627890224301,"{1: 32, 74: 1, 6: 8, 7: 4, 17: 7}","[1, 6, 7, 17, 74]",1326874177741,H32W1C8N4Cl7
P2H32C9(N3O2)6,mp-1198875,4.2405,3.64310481,0.017321687416337994,"{15: 2, 1: 32, 6: 9, 7: 18, 8: 12}","[1, 6, 7, 8, 15]",13269718812152,P2H32C9N18O12
B10H33C10I,mp-1195030,2.955,0.51909969,0.075914916246143,"{5: 10, 1: 33, 6: 10, 53: 1}","[1, 5, 6, 53]",133510610531,B10H33C10I1
Si3Ge2(H3C)11,mp-1204200,3.5375,1.94907843,0.05327214833216942,"{14: 3, 32: 2, 1: 33, 6: 11}","[1, 6, 14, 32]",133611143322,Si3Ge2H33C11
Si4Ge(H3C)11,mp-1199342,3.7758000000000003,2.21993765,0.04400989149543477,"{14: 4, 32: 1, 1: 33, 6: 11}","[1, 6, 14, 32]",133611144321,Si4Ge1H33C11
CoP3H33C11I,mp-1203987,1.828,0.05720127,0.0785290745450613,"{27: 1, 15: 3, 1: 33, 6: 11, 53: 1}","[1, 6, 15, 27, 53]",133611153271531,Co1P3H33C11I1
TaSiH33C11N5Cl,mp-1203768,3.0961000000000003,-0.57840795,0.15457646558493643,"{73: 1, 14: 1, 1: 33, 6: 11, 7: 5, 17: 1}","[1, 6, 7, 14, 17, 73]",13361175141171731,Ta1Si1H33C11N5Cl1
KZnSi3(H11C4)3,mp-1203909,2.7228,1.64127737,0.05967162918571223,"{19: 1, 30: 1, 14: 3, 1: 33, 6: 12}","[1, 6, 14, 19, 30]",133612143191301,K1Zn1Si3H33C12
Mo2H33C13S2N4Cl3O5,mp-1195191,2.2260999999999997,1.54513789,0.24821852549394752,"{42: 2, 1: 33, 6: 13, 16: 2, 7: 4, 17: 3, 8: 5}","[1, 6, 7, 8, 16, 17, 42]",1336137485162173422,Mo2H33C13S2N4Cl3O5
NaBH34(C3N)4,mp-1195859,4.1881,2.43582611,0.15641596569711957,"{11: 1, 5: 1, 1: 34, 6: 12, 7: 4}","[1, 5, 6, 7, 11]",1345161274111,Na1B1H34C12N4
CrB6P2(H17C3)2,mp-1198848,0.7523,-8.455e-05,0.13117378882653075,"{24: 1, 5: 6, 15: 2, 1: 34, 6: 6}","[1, 5, 6, 15, 24]",1345666152241,Cr1B6P2H34C6
H34C19,mp-30168,5.4526,-1.99992453,0.0554291457783016,"{1: 34, 6: 19}","[1, 6]",134619,H34C19
Mn3Mo2H34C22N16O5,mp-729824,0.0174,0.10763198,0.3393060741158589,"{25: 3, 42: 2, 1: 34, 6: 22, 7: 16, 8: 5}","[1, 6, 7, 8, 25, 42]",13462271685253422,Mn3Mo2H34C22N16O5
SiBH3CNCl3,mp-1199507,4.9039,-1.56091103,0.04892138583092187,"{14: 1, 5: 1, 1: 3, 6: 1, 7: 1, 17: 3}","[1, 5, 6, 7, 14, 17]",13516171141173,Si1B1H3C1N1Cl3
Si4SnH35(C6N)2,mp-1198198,3.0196,1.81259707,0.07632735576328109,"{14: 4, 50: 1, 1: 35, 6: 12, 7: 2}","[1, 6, 7, 14, 50]",13561272144501,Si4Sn1H35C12N2
TaSi2H35(C3N)4,mp-570584,3.2973,2.60454606,0.14885224111164952,"{73: 1, 14: 2, 1: 35, 6: 12, 7: 4}","[1, 6, 7, 14, 73]",13561274142731,Ta1Si2H35C12N4
V6SbH35C12Cl8O19,mp-1204914,0.10160000000000001,0.04822255,0.26290082687279526,"{23: 6, 51: 1, 1: 35, 6: 12, 17: 8, 8: 19}","[1, 6, 8, 17, 23, 51]",135612819178236511,V6Sb1H35C12Cl8O19
ZnSi3GeH35C13ClO,mp-1199669,3.584,-1.33686283,0.11003027653727937,"{30: 1, 14: 3, 32: 1, 1: 35, 6: 13, 17: 1, 8: 1}","[1, 6, 8, 14, 17, 30, 32]",13561381143171301321,Zn1Si3Ge1H35C13Cl1O1
ZnSi3GeH35C13BrO,mp-1200564,3.4324000000000003,-1.56741694,0.10882490770205155,"{30: 1, 14: 3, 32: 1, 1: 35, 6: 13, 35: 1, 8: 1}","[1, 6, 8, 14, 30, 32, 35]",13561381143301321351,Zn1Si3Ge1H35C13Br1O1
ZnSi4H35C13ClO,mp-1196440,3.7664,-1.3789878,0.11869274905067684,"{30: 1, 14: 4, 1: 35, 6: 13, 17: 1, 8: 1}","[1, 6, 8, 14, 17, 30]",13561381144171301,Zn1Si4H35C13Cl1O1
P4H35C4(NO)16,mp-695113,0.0,-0.53819506,0.18016096933475012,"{15: 4, 1: 35, 6: 4, 7: 16, 8: 16}","[1, 6, 7, 8, 15]",13564716816154,P4H35C4N16O16
H3Ru3C10ClO9,mp-707771,2.4491,-0.36336386,0.23477384766826948,"{1: 3, 44: 3, 6: 10, 17: 1, 8: 9}","[1, 6, 8, 17, 44]",1361089171443,H3Ru3C10Cl1O9
PH3CS3,mp-559616,2.1513,0.14060053,0.020610951015624934,"{15: 1, 1: 3, 6: 1, 16: 3}","[1, 6, 15, 16]",1361151163,P1H3C1S3
H3CS,mp-559204,3.5897,-0.89739915,0.045769181660713976,"{1: 3, 6: 1, 16: 1}","[1, 6, 16]",1361161,H3C1S1
H3CCl,mp-1078233,5.572100000000001,-2.10445833,0.07951375524999893,"{1: 3, 6: 1, 17: 1}","[1, 6, 17]",1361171,H3C1Cl1
TeH3CCl3,mp-759866,2.8558,-0.55430292,0.02319654428385398,"{52: 1, 1: 3, 6: 1, 17: 3}","[1, 6, 17, 52]",1361173521,Te1H3C1Cl3
H3Os4C12ClO12,mp-707931,2.3043,-0.26127965,0.19996230238281232,"{1: 3, 76: 4, 6: 12, 17: 1, 8: 12}","[1, 6, 8, 17, 76]",13612812171764,H3Os4C12Cl1O12
H3Ru3Rh(CO)12,mp-731160,2.4621,-0.50833847,0.21421013227822439,"{1: 3, 44: 3, 45: 1, 6: 12, 8: 12}","[1, 6, 8, 44, 45]",13612812443451,H3Ru3Rh1C12O12
H3Os4C12IO12,mp-1198041,2.4452,-0.29494136,0.18870543058593903,"{1: 3, 76: 4, 6: 12, 53: 1, 8: 12}","[1, 6, 8, 53, 76]",13612812531764,H3Os4C12I1O12
H3CSe,mp-1200055,2.5842,1.11479935,0.006003463906248285,"{1: 3, 6: 1, 34: 1}","[1, 6, 34]",1361341,H3C1Se1
H3CBr,mp-1078197,4.5531,-2.35259661,0.05479283024999937,"{1: 3, 6: 1, 35: 1}","[1, 6, 35]",1361351,H3C1Br1
H3CI,mp-1181198,3.3729,-0.52231236,0.048451224166666584,"{1: 3, 6: 1, 53: 1}","[1, 6, 53]",1361531,H3C1I1
SbH3CS2N,mp-1179606,0.5027999999999997,2.06236723,0.5022359065304141,"{51: 1, 1: 3, 6: 1, 16: 2, 7: 1}","[1, 6, 7, 16, 51]",136171162511,Sb1H3C1S2N1
KH3CN,mp-1191654,3.8935999999999997,-0.64991346,0.20427004694444406,"{19: 1, 1: 3, 6: 1, 7: 1}","[1, 6, 7, 19]",136171191,K1H3C1N1
SiH3CNO,mp-1193294,5.6926000000000005,1.81745376,0.5560539901388921,"{14: 1, 1: 3, 6: 1, 7: 1, 8: 1}","[1, 6, 7, 8, 14]",13617181141,Si1H3C1N1O1
GeH3CNO,mp-1194496,5.0507,1.17738575,0.29749012535714225,"{32: 1, 1: 3, 6: 1, 7: 1, 8: 1}","[1, 6, 7, 8, 32]",13617181321,Ge1H3C1N1O1
H3CSNOF2,mp-1195326,4.8222,-2.95968595,0.44431106286302224,"{1: 3, 6: 1, 16: 1, 7: 1, 8: 1, 9: 2}","[1, 6, 7, 8, 9, 16]",1361718192161,H3C1S1N1O1F2
AsH3CNOF9,mp-697077,4.9219,-2.94053932,0.12628326428428505,"{33: 1, 1: 3, 6: 1, 7: 1, 8: 1, 9: 9}","[1, 6, 7, 8, 9, 33]",1361718199331,As1H3C1N1O1F9
H3CNO2,mp-1224588,3.0427,2.30375412,0.15541764976190287,"{1: 3, 6: 1, 7: 1, 8: 2}","[1, 6, 7, 8]",13617182,H3C1N1O2
H3CSN(ClO)2,mp-558736,2.6254,-0.56922969,0.5060158620374997,"{1: 3, 6: 1, 16: 1, 7: 1, 17: 2, 8: 2}","[1, 6, 7, 8, 16, 17]",13617182161172,H3C1S1N1Cl2O2
ZnH3CNO3,mp-604229,3.6825,-0.84931029,0.0,"{30: 1, 1: 3, 6: 1, 7: 1, 8: 3}","[1, 6, 7, 8, 30]",13617183301,Zn1H3C1N1O3
Sb2H3CNF14,mp-1195144,4.4538,0.9766665,0.005105441747824457,"{51: 2, 1: 3, 6: 1, 7: 1, 9: 14}","[1, 6, 7, 9, 51]",136171914512,Sb2H3C1N1F14
H3PbCI3NF3,mp-977011,1.8542999999999998,1.22695969,0.11437925021158879,"{1: 3, 82: 1, 6: 1, 53: 3, 7: 1, 9: 3}","[1, 6, 7, 9, 53, 82]",13617193533821,H3Pb1C1I3N1F3
H3CSN2,mp-706559,3.111,-0.02195688,0.25778847120833603,"{1: 3, 6: 1, 16: 1, 7: 2}","[1, 6, 7, 16]",136172161,H3C1S1N2
AgH3CN2,mp-1193968,3.0167,1.45266376,0.1727396569940467,"{47: 1, 1: 3, 6: 1, 7: 2}","[1, 6, 7, 47]",136172471,Ag1H3C1N2
H3PbCI3N2,mp-1232356,1.9431,3.15973761,0.2366298544396539,"{1: 3, 82: 1, 6: 1, 53: 3, 7: 2}","[1, 6, 7, 53, 82]",136172533821,H3Pb1C1I3N2
NaH3CN2O,mp-1202931,3.8365,-0.37579743,0.013692285225692657,"{11: 1, 1: 3, 6: 1, 7: 2, 8: 1}","[1, 6, 7, 8, 11]",13617281111,Na1H3C1N2O1
KH3CSN2O,mp-1212156,0.6047,0.55616122,0.5396668579999959,"{19: 1, 1: 3, 6: 1, 16: 1, 7: 2, 8: 1}","[1, 6, 7, 8, 16, 19]",13617281161191,K1H3C1S1N2O1
KH3CN2O,mp-1204164,4.2797,3.58413476,0.01073212574652782,"{19: 1, 1: 3, 6: 1, 7: 2, 8: 1}","[1, 6, 7, 8, 19]",13617281191,K1H3C1N2O1
RbH3CN2O,mp-1195275,4.1483,3.66087457,0.00855169265625122,"{37: 1, 1: 3, 6: 1, 7: 2, 8: 1}","[1, 6, 7, 8, 37]",13617281371,Rb1H3C1N2O1
CsH3CN2O,mp-1194650,4.2295,0.00661699,0.003746630625000691,"{55: 1, 1: 3, 6: 1, 7: 2, 8: 1}","[1, 6, 7, 8, 55]",13617281551,Cs1H3C1N2O1
HgH3CN3,mp-1199581,3.6500000000000004,-2.00075171,0.3696518988541664,"{80: 1, 1: 3, 6: 1, 7: 3}","[1, 6, 7, 80]",136173801,Hg1H3C1N3
AgH3CN3O4,mp-707364,0.8278,-0.38780193,0.3648737329166645,"{47: 1, 1: 3, 6: 1, 7: 3, 8: 4}","[1, 6, 7, 8, 47]",13617384471,Ag1H3C1N3O4
H3CN4O,mp-1212532,2.6086,-2.18600892,0.2089137544135795,"{1: 3, 6: 1, 7: 4, 8: 1}","[1, 6, 7, 8]",13617481,H3C1N4O1
NaH3CN4O,mp-690653,4.8772,-1.36363881,0.08469753815278214,"{11: 1, 1: 3, 6: 1, 7: 4, 8: 1}","[1, 6, 7, 8, 11]",13617481111,Na1H3C1N4O1
H3CN5O4,mp-1203534,2.8899999999999997,-1.46410767,0.528257883307691,"{1: 3, 6: 1, 7: 5, 8: 4}","[1, 6, 7, 8]",13617584,H3C1N5O4
Sb6H3CCl13O10,mp-708066,1.4889,-4.754e-05,0.12153793361741805,"{51: 6, 1: 3, 6: 1, 17: 13, 8: 10}","[1, 6, 8, 17, 51]",13618101713516,Sb6H3C1Cl13O10
H3CSClO,mp-644221,2.3655,-0.58230145,0.3220210264540828,"{1: 3, 6: 1, 16: 1, 17: 1, 8: 1}","[1, 6, 8, 16, 17]",136181161171,H3C1S1Cl1O1
SbH3CSCl6O,mp-561214,1.9195,-1.32442951,0.15675949735576555,"{51: 1, 1: 3, 6: 1, 16: 1, 17: 6, 8: 1}","[1, 6, 8, 16, 17, 51]",136181161176511,Sb1H3C1S1Cl6O1
H3CO2F,mp-1192496,5.5308,1.75432712,0.11937198946428484,"{1: 3, 6: 1, 8: 2, 9: 1}","[1, 6, 8, 9]",13618291,H3C1O2F1
AsH3C(OF3)2,mp-1197870,5.2115,1.29670332,0.0973310593269252,"{33: 1, 1: 3, 6: 1, 8: 2, 9: 6}","[1, 6, 8, 9, 33]",13618296331,As1H3C1O2F6
H3CO3,mp-1194227,3.3732,-1.39802608,0.06602562991071359,"{1: 3, 6: 1, 8: 3}","[1, 6, 8]",136183,H3C1O3
PH3PbCO3,mp-559039,4.1371,-0.10797355,0.008008732476850078,"{15: 1, 1: 3, 82: 1, 6: 1, 8: 3}","[1, 6, 8, 15, 82]",136183151821,P1H3Pb1C1O3
H3CSO3,mp-1199075,4.1726,1.55628822,0.5389571882254458,"{1: 3, 6: 1, 16: 1, 8: 3}","[1, 6, 8, 16]",136183161,H3C1S1O3
HgH3CSO3,mp-738615,2.8131,-1.04315384,0.28555581270833397,"{80: 1, 1: 3, 6: 1, 16: 1, 8: 3}","[1, 6, 8, 16, 80]",136183161801,Hg1H3C1S1O3
CoPH3CO4,mp-1204708,0.024499999999999966,-0.43008683,0.4507775932187501,"{27: 1, 15: 1, 1: 3, 6: 1, 8: 4}","[1, 6, 8, 15, 27]",136184151271,Co1P1H3C1O4
K2H3CO4F,mp-1191702,4.766500000000001,-1.50231067,0.0,"{19: 2, 1: 3, 6: 1, 8: 4, 9: 1}","[1, 6, 8, 9, 19]",13618491192,K2H3C1O4F1
H3CSO4F3,mp-24357,6.383800000000001,-1.96863142,0.13510840738167484,"{1: 3, 6: 1, 16: 1, 8: 4, 9: 3}","[1, 6, 8, 9, 16]",13618493161,H3C1S1O4F3
NpPH3CO5,mp-1191468,0.118,1.09468424,0.04184083739226896,"{93: 1, 15: 1, 1: 3, 6: 1, 8: 5}","[1, 6, 8, 15, 93]",136185151931,Np1P1H3C1O5
TiH3CO5,mp-1204987,2.7897,-0.39663695,0.05131999718750091,"{22: 1, 1: 3, 6: 1, 8: 5}","[1, 6, 8, 22]",136185221,Ti1H3C1O5
VH3CO5,mp-1207864,2.8555,2.55112475,0.06382372449999352,"{23: 1, 1: 3, 6: 1, 8: 5}","[1, 6, 8, 23]",136185231,V1H3C1O5
Na2H3CO6,mp-1001112,3.5953999999999997,-0.0151723,0.262010151805554,"{11: 2, 1: 3, 6: 1, 8: 6}","[1, 6, 8, 11]",136186112,Na2H3C1O6
ReH3CSO6,mp-1203823,1.8434,-1.47607178,0.2607594614062432,"{75: 1, 1: 3, 6: 1, 16: 1, 8: 6}","[1, 6, 8, 16, 75]",136186161751,Re1H3C1S1O6
KH3CO6,mp-1198088,4.2087,-1.53511813,0.037208649545457106,"{19: 1, 1: 3, 6: 1, 8: 6}","[1, 6, 8, 19]",136186191,K1H3C1O6
UH3CO6,mp-1191449,2.1322,-0.2221715,0.04372812172349061,"{92: 1, 1: 3, 6: 1, 8: 6}","[1, 6, 8, 92]",136186921,U1H3C1O6
LaH3CSO7,mp-1203848,4.289300000000001,1.15472115,0.03527095977563999,"{57: 1, 1: 3, 6: 1, 16: 1, 8: 7}","[1, 6, 8, 16, 57]",136187161571,La1H3C1S1O7
CeH3CSO7,mp-1200235,0.2860999999999998,3.86641205,0.06338862263527201,"{58: 1, 1: 3, 6: 1, 16: 1, 8: 7}","[1, 6, 8, 16, 58]",136187161581,Ce1H3C1S1O7
PrH3CSO7,mp-1202097,4.6161,0.25171306,0.031386811455627495,"{59: 1, 1: 3, 6: 1, 16: 1, 8: 7}","[1, 6, 8, 16, 59]",136187161591,Pr1H3C1S1O7
NdH3CSO7,mp-1197612,4.6221,0.18955045,0.051979527596156316,"{60: 1, 1: 3, 6: 1, 16: 1, 8: 7}","[1, 6, 8, 16, 60]",136187161601,Nd1H3C1S1O7
EuH3CSO7,mp-1202815,0.1166,-0.03527107,0.09560076866695866,"{63: 1, 1: 3, 6: 1, 16: 1, 8: 7}","[1, 6, 8, 16, 63]",136187161631,Eu1H3C1S1O7
H3CBrClF,mp-1194166,2.851,-2.10134434,0.3678468560714281,"{1: 3, 6: 1, 35: 1, 17: 1, 9: 1}","[1, 6, 9, 17, 35]",136191171351,H3C1Br1Cl1F1
AsH3C(SF2)3,mp-759958,2.7919,-1.1281104,0.12389696414540818,"{33: 1, 1: 3, 6: 1, 16: 3, 9: 6}","[1, 6, 9, 16, 33]",136196163331,As1H3C1S3F6
As2H3CF9,mp-556083,4.2415,-3.25396953,0.1834734116666672,"{33: 2, 1: 3, 6: 1, 9: 9}","[1, 6, 9, 33]",136199332,As2H3C1F9
H3AuC2NCl,mp-569084,3.8194,-1.59920326,0.28642453468749984,"{1: 3, 79: 1, 6: 2, 7: 1, 17: 1}","[1, 6, 7, 17, 79]",136271171791,H3Au1C2N1Cl1
NaPH3C2N3O4,mp-765959,4.4547,0.23759164,0.0356370635059573,"{11: 1, 15: 1, 1: 3, 6: 2, 7: 3, 8: 4}","[1, 6, 7, 8, 11, 15]",13627384111151,Na1P1H3C2N3O4
MnH3C2N9O,mp-1211072,3.2809999999999997,0.65108019,0.07570857182291846,"{25: 1, 1: 3, 6: 2, 7: 9, 8: 1}","[1, 6, 7, 8, 25]",13627981251,Mn1H3C2N9O1
UPH3(CO5)2,mp-1203255,0.0,-1.18906961,0.8962038998039228,"{92: 1, 15: 1, 1: 3, 6: 2, 8: 10}","[1, 6, 8, 15, 92]",1362810151921,U1P1H3C2O10
KH3C2S2O,mp-555919,2.5354,-0.04420072,0.18374176332175907,"{19: 1, 1: 3, 6: 2, 16: 2, 8: 1}","[1, 6, 8, 16, 19]",136281162191,K1H3C2S2O1
KH3C2O3,mp-643365,5.179,-1.09417212,0.13038402437499297,"{19: 1, 1: 3, 6: 2, 8: 3}","[1, 6, 8, 19]",136283191,K1H3C2O3
NaH3(CO2)2,mp-738668,4.6376,-1.90125192,0.12509897608332832,"{11: 1, 1: 3, 6: 2, 8: 4}","[1, 6, 8, 11]",136284111,Na1H3C2O4
KH3(CO2)2,mp-23682,4.8037,-1.75663637,0.12369726374999779,"{19: 1, 1: 3, 6: 2, 8: 4}","[1, 6, 8, 19]",136284191,K1H3C2O4