formula,material_id,band_gap,efermi,energy_above_hull,comp_atoms,sorted_keys_comp_atoms,comp_number,new_formula
ZnC2N6(ClO)2,mp-1193600,0.5091000000000001,-2.53652374,0.3347159263461439,"{30: 1, 6: 2, 7: 6, 17: 2, 8: 2}","[6, 7, 8, 17, 30]",627682172301,Zn1C2N6Cl2O2
CdC2S2(NO)6,mp-1214165,0.5737999999999999,-1.26524423,0.9580518962500006,"{48: 1, 6: 2, 16: 2, 7: 6, 8: 6}","[6, 7, 8, 16, 48]",627686162481,Cd1C2S2N6O6
Al5C2N6F17,mp-1192890,0.0,-1.86140775,0.7134412692916667,"{13: 5, 6: 2, 7: 6, 9: 17}","[6, 7, 9, 13]",6276917135,Al5C2N6F17
SiC2(NF)6,mp-1208996,0.3731,-2.49133194,1.3371322929166674,"{14: 1, 6: 2, 7: 6, 9: 6}","[6, 7, 9, 14]",627696141,Si1C2N6F6
TiC2(NF)6,mp-1208230,0.45740000000000025,-2.78874023,1.3404339095833322,"{22: 1, 6: 2, 7: 6, 9: 6}","[6, 7, 9, 22]",627696221,Ti1C2N6F6
GeC2(NF)6,mp-1212530,0.43500000000000005,-2.53777952,1.3087178815833331,"{32: 1, 6: 2, 7: 6, 9: 6}","[6, 7, 9, 32]",627696321,Ge1C2N6F6
SnC2(NF)6,mp-1209071,0.48740000000000006,-2.08388261,1.3330334482083321,"{50: 1, 6: 2, 7: 6, 9: 6}","[6, 7, 9, 50]",627696501,Sn1C2N6F6
IrC2,mp-1191686,0.0,7.70781,1.1751079708333334,"{77: 1, 6: 2}","[6, 77]",62771,Ir1C2
U2IrC2,mp-6940,0.0,10.95696501,0.0,"{92: 2, 77: 1, 6: 2}","[6, 77, 92]",62771922,U2Ir1C2
Sr6CoC2N7,mp-721246,0.2744,4.00686741,0.0,"{38: 6, 27: 1, 6: 2, 7: 7}","[6, 7, 27, 38]",6277271386,Sr6Co1C2N7
CdC2S2(N4Cl)2,mp-1182214,0.8439,-1.73278163,0.36102599569047555,"{48: 1, 6: 2, 16: 2, 7: 8, 17: 2}","[6, 7, 16, 17, 48]",6278162172481,Cd1C2S2N8Cl2
U2PtC2,mp-1068685,0.0,10.57503486,0.0,"{92: 2, 78: 1, 6: 2}","[6, 78, 92]",62781922,U2Pt1C2
ZnC2(N2O)4,mp-726874,6.090000000000001,-2.11811546,0.0,"{30: 1, 6: 2, 7: 8, 8: 4}","[6, 7, 8, 30]",627884301,Zn1C2N8O4
Ru2C2N8Cl3O5,mp-1204138,0.033400000000000096,-1.32185001,0.4666553923750012,"{44: 2, 6: 2, 7: 8, 17: 3, 8: 5}","[6, 7, 8, 17, 44]",627885173442,Ru2C2N8Cl3O5
AuC2,mp-1214766,2.8504,-2.87760339,1.543402631666666,"{79: 1, 6: 2}","[6, 79]",62791,Au1C2
KMg(CO5)2,mp-1180869,0.0,-1.0321308,0.4175315076785733,"{19: 1, 12: 1, 6: 2, 8: 10}","[6, 8, 12, 19]",62810121191,K1Mg1C2O10
Co3C2(SeO5)2,mp-552260,1.9791,1.92652668,0.08434122023529156,"{27: 3, 6: 2, 34: 2, 8: 10}","[6, 8, 27, 34]",62810273342,Co3C2Se2O10
SrAl2C2O11,mp-1209060,0.0,-0.07447785,0.48785845224431945,"{38: 1, 13: 2, 6: 2, 8: 11}","[6, 8, 13, 38]",62811132381,Sr1Al2C2O11
Al2PbC2O11,mp-1198485,0.0,0.57413281,0.502556012713069,"{13: 2, 82: 1, 6: 2, 8: 11}","[6, 8, 13, 82]",62811132821,Al2Pb1C2O11
Rb2UC2SO11,mp-727594,1.9619,-0.49933499,0.291910513529416,"{37: 2, 92: 1, 6: 2, 16: 1, 8: 11}","[6, 8, 16, 37, 92]",62811161372921,Rb2U1C2S1O11
K4UC2O11,mp-1201015,0.8009,0.90595529,0.37013625736111067,"{19: 4, 92: 1, 6: 2, 8: 11}","[6, 8, 19, 92]",62811194921,K4U1C2O11
SbC2SCl3O,mp-1204034,0.7110999999999998,-1.59738359,0.9087814889843688,"{51: 1, 6: 2, 16: 1, 17: 3, 8: 1}","[6, 8, 16, 17, 51]",6281161173511,Sb1C2S1Cl3O1
Cs2HgC2SI4O,mp-1182270,1.3411,0.92687611,0.5069071528571425,"{55: 2, 80: 1, 6: 2, 16: 1, 53: 4, 8: 1}","[6, 8, 16, 53, 55, 80]",6281161534552801,Cs2Hg1C2S1I4O1
Na2Ce2TiSi(CO6)2,mp-558297,0.0,6.0430407,0.03524409807500106,"{11: 2, 58: 2, 22: 1, 14: 1, 6: 2, 8: 12}","[6, 8, 11, 14, 22, 58]",62812112141221582,Na2Ce2Ti1Si1C2O12
AlSi5(CO6)2,mp-1228558,0.0,-1.80479271,0.57982595915625,"{13: 1, 14: 5, 6: 2, 8: 12}","[6, 8, 13, 14]",62812131145,Al1Si5C2O12
Pb4C2SO12,mp-1200635,0.14759999999999973,2.39670767,0.14723595368421094,"{82: 4, 6: 2, 16: 1, 8: 12}","[6, 8, 16, 82]",62812161824,Pb4C2S1O12
Zn5(CO6)2,mp-1189100,0.0,-0.26803319,0.2461897525000003,"{30: 5, 6: 2, 8: 12}","[6, 8, 30]",62812305,Zn5C2O12
Ca5Si2C2O13,mp-6753,4.7858,1.55402363,0.005164498257584249,"{20: 5, 14: 2, 6: 2, 8: 13}","[6, 8, 14, 20]",62813142205,Ca5Si2C2O13
Na3Mn2P2(CO7)2,mp-774454,0.8645999999999999,1.03108793,0.0025621970652167647,"{11: 3, 25: 2, 15: 2, 6: 2, 8: 14}","[6, 8, 11, 15, 25]",62814113152252,Na3Mn2P2C2O14
Na5Mn2P2(CO7)2,mp-769536,0.0,1.43932481,0.0009874631999995387,"{11: 5, 25: 2, 15: 2, 6: 2, 8: 14}","[6, 8, 11, 15, 25]",62814115152252,Na5Mn2P2C2O14
K2MgNb2P2(CO7)2,mp-1234075,0.047900000000000276,2.77145068,0.2762259426926823,"{19: 2, 12: 1, 41: 2, 15: 2, 6: 2, 8: 14}","[6, 8, 12, 15, 19, 41]",62814121152192412,K2Mg1Nb2P2C2O14
La2C2S2O15,mp-1203957,0.26170000000000004,0.60805648,0.4240480852380939,"{57: 2, 6: 2, 16: 2, 8: 15}","[6, 8, 16, 57]",62815162572,La2C2S2O15
K4UC2Se2O15,mp-1205024,0.349,-0.40300515,0.20079450479166283,"{19: 4, 92: 1, 6: 2, 34: 2, 8: 15}","[6, 8, 19, 34, 92]",62815194342921,K4U1C2Se2O15
C2IO,mp-652200,2.0163,0.77279584,0.41305192937499946,"{6: 2, 53: 1, 8: 1}","[6, 8, 53]",6281531,C2I1O1
Dy7C2I12O,mp-1201241,0.027099999999999902,3.71480361,0.0,"{66: 7, 6: 2, 53: 12, 8: 1}","[6, 8, 53, 66]",62815312667,Dy7C2I12O1
C28Cl5,mp-647192,1.3573000000000002,1.70792873,0.2861853985511358,"{6: 28, 17: 5}","[6, 17]",628175,C28Cl5
CaU3(CO10)2,mp-1182827,0.09820000000000007,-0.94570923,0.5872599087499948,"{20: 1, 92: 3, 6: 2, 8: 20}","[6, 8, 20, 92]",62820201923,Ca1U3C2O20
Na(CO)2,mp-557976,2.5202999999999998,1.10586136,0.22706540841666367,"{11: 1, 6: 2, 8: 2}","[6, 8, 11]",6282111,Na1C2O2
Si(CO)2,mp-1001082,0.0,3.68243588,1.5058508073333297,"{14: 1, 6: 2, 8: 2}","[6, 8, 14]",6282141,Si1C2O2
CrP4(CO)2,mp-1188638,0.0,-0.42542884,1.6236288090828985,"{24: 1, 15: 4, 6: 2, 8: 2}","[6, 8, 15, 24]",6282154241,Cr1P4C2O2
RhC2ClO2,mp-654105,1.7196,0.22775509,0.13644445576389064,"{45: 1, 6: 2, 17: 1, 8: 2}","[6, 8, 17, 45]",6282171451,Rh1C2Cl1O2
PdC2ClO2,mp-615537,0.095,-0.00366522,0.341700934166667,"{46: 1, 6: 2, 17: 1, 8: 2}","[6, 8, 17, 46]",6282171461,Pd1C2Cl1O2
PtC2(ClO)2,mp-618423,2.9429,-0.88802115,0.09839585738095202,"{78: 1, 6: 2, 17: 2, 8: 2}","[6, 8, 17, 78]",6282172781,Pt1C2Cl2O2
CaBi2(CO)2,mp-696904,0.0,5.20301799,1.122232014107147,"{20: 1, 83: 2, 6: 2, 8: 2}","[6, 8, 20, 83]",6282201832,Ca1Bi2C2O2
Sr2Co(CO)2,mp-1147608,0.4405999999999999,3.28578048,0.6428306521428544,"{38: 2, 27: 1, 6: 2, 8: 2}","[6, 8, 27, 38]",6282271382,Sr2Co1C2O2
Rb(CO)2,mp-546810,2.6948000000000003,0.56836358,0.19870140000000003,"{37: 1, 6: 2, 8: 2}","[6, 8, 37]",6282371,Rb1C2O2
RhC2IO2,mp-630303,1.4724,0.89362632,0.1730443248611122,"{45: 1, 6: 2, 53: 1, 8: 2}","[6, 8, 45, 53]",6282451531,Rh1C2I1O2
Ag(CO)2,mp-654937,0.7248000000000001,1.40770183,0.4173930584166694,"{47: 1, 6: 2, 8: 2}","[6, 8, 47]",6282471,Ag1C2O2
ReC2(IO)2,mp-572674,0.6289999999999999,0.57454844,0.1056330432341337,"{75: 1, 6: 2, 53: 2, 8: 2}","[6, 8, 53, 75]",6282532751,Re1C2I2O2
Cs(CO)2,mp-545487,2.7110000000000003,0.99683689,0.1977243074999988,"{55: 1, 6: 2, 8: 2}","[6, 8, 55]",6282551,Cs1C2O2
LaBi2(CO)2,mp-1147562,0.0,6.41262326,1.2795040886309534,"{57: 1, 83: 2, 6: 2, 8: 2}","[6, 8, 57, 83]",6282571832,La1Bi2C2O2
Tl(CO)2,mp-607841,3.3303,0.40375975,0.27747205937499775,"{81: 1, 6: 2, 8: 2}","[6, 8, 81]",6282811,Tl1C2O2
MgC2S2(OF)2,mp-1222075,1.3063,1.20685139,1.3683453697619052,"{12: 1, 6: 2, 16: 2, 8: 2, 9: 2}","[6, 8, 9, 12, 16]",628292121162,Mg1C2S2O2F2
CaC2S2(OF)2,mp-1227460,1.6242,-0.65902477,1.3352033908730139,"{20: 1, 6: 2, 16: 2, 8: 2, 9: 2}","[6, 8, 9, 16, 20]",628292162201,Ca1C2S2O2F2
ZnC2S2(OF)2,mp-1215742,1.3358,-0.40614823,1.2162668353174597,"{30: 1, 6: 2, 16: 2, 8: 2, 9: 2}","[6, 8, 9, 16, 30]",628292162301,Zn1C2S2O2F2
HgSb4C2(OF11)2,mp-556903,4.1692,-3.08470715,0.08045053290322368,"{80: 1, 51: 4, 6: 2, 8: 2, 9: 22}","[6, 8, 9, 51, 80]",6282922514801,Hg1Sb4C2O2F22
HgC2O2F3,mp-558982,3.2681,-1.69109696,0.12756587671874975,"{80: 1, 6: 2, 8: 2, 9: 3}","[6, 8, 9, 80]",628293801,Hg1C2O2F3
MgC2S2(OF3)2,mp-684804,2.2023,1.15177769,0.5421370847564093,"{12: 1, 6: 2, 16: 2, 8: 2, 9: 6}","[6, 8, 9, 12, 16]",628296121162,Mg1C2S2O2F6
AsC2(OF3)2,mp-1190837,1.1157,-1.65834615,0.5799819325568185,"{33: 1, 6: 2, 8: 2, 9: 6}","[6, 8, 9, 33]",628296331,As1C2O2F6
SbIrC2(OF3)2,mp-557748,2.4943,-1.73806252,0.08848640994791701,"{51: 1, 77: 1, 6: 2, 8: 2, 9: 6}","[6, 8, 9, 51, 77]",628296511771,Sb1Ir1C2O2F6
Na2CaC2O3,mp-1105382,0.0,2.80776401,0.7127245190885416,"{11: 2, 20: 1, 6: 2, 8: 3}","[6, 8, 11, 20]",6283112201,Na2Ca1C2O3
K4C2O3,mp-35889,0.0,2.61014156,0.4686633298784697,"{19: 4, 6: 2, 8: 3}","[6, 8, 19]",6283194,K4C2O3
C2O3F2,mp-31306,5.2829,-3.07068259,0.16468605732142905,"{6: 2, 8: 3, 9: 2}","[6, 8, 9]",628392,C2O3F2
K2Ca2C2O3F2,mp-682592,0.0,2.94743666,0.5310694596590855,"{19: 2, 20: 2, 6: 2, 8: 3, 9: 2}","[6, 8, 9, 19, 20]",628392192202,K2Ca2C2O3F2
C2(OF2)3,mp-29479,4.4176,-2.83248434,0.23106289863636498,"{6: 2, 8: 3, 9: 6}","[6, 8, 9]",628396,C2O3F6
AsC2S2(OF3)3,mp-558687,3.5403000000000002,-1.70420059,0.31321387270362155,"{33: 1, 6: 2, 16: 2, 8: 3, 9: 9}","[6, 8, 9, 16, 33]",628399162331,As1C2S2O3F9
NaAg(CO2)2,mp-985593,2.5393999999999997,0.7303511,0.13493598848958666,"{11: 1, 47: 1, 6: 2, 8: 4}","[6, 8, 11, 47]",6284111471,Na1Ag1C2O4
Mg(CO2)2,mp-754005,3.2680000000000002,1.36460031,0.08509199374999543,"{12: 1, 6: 2, 8: 4}","[6, 8, 12]",6284121,Mg1C2O4
Ca(CO2)2,mp-558543,3.1204,-0.96349627,0.04549893089285284,"{20: 1, 6: 2, 8: 4}","[6, 8, 20]",6284201,Ca1C2O4
KNa22C2S9ClO42,mp-23660,4.3544,5.23119247,0.0,"{19: 1, 11: 22, 6: 2, 16: 9, 17: 1, 8: 42}","[6, 8, 11, 16, 17, 19]",628421122169171191,K1Na22C2S9Cl1O42
Zn(CO2)2,mp-559437,3.2028,0.44627294,0.059197489464281716,"{30: 1, 6: 2, 8: 4}","[6, 8, 30]",6284301,Zn1C2O4
Sr(CO2)2,mp-1179359,3.0793999999999997,0.22489313,0.1589561223214231,"{38: 1, 6: 2, 8: 4}","[6, 8, 38]",6284381,Sr1C2O4
Cd(CO2)2,mp-555064,3.3113,0.21256152,0.07159329803570547,"{48: 1, 6: 2, 8: 4}","[6, 8, 48]",6284481,Cd1C2O4
Sn(CO2)2,mp-542769,2.6213999999999995,1.24748392,0.08342183535714653,"{50: 1, 6: 2, 8: 4}","[6, 8, 50]",6284501,Sn1C2O4
Hg(CO2)2,mp-4249,2.4575,0.33494251,0.25092418964285645,"{80: 1, 6: 2, 8: 4}","[6, 8, 80]",6284801,Hg1C2O4
Pb(CO2)2,mp-22747,2.7868000000000004,1.53945172,0.06281103267856292,"{82: 1, 6: 2, 8: 4}","[6, 8, 82]",6284821,Pb1C2O4
C2SClO4F3,mp-555625,5.0373,-2.10395167,0.2092068652840915,"{6: 2, 16: 1, 17: 1, 8: 4, 9: 3}","[6, 8, 9, 16, 17]",628493161171,C2S1Cl1O4F3
C2S(OF)4,mp-555888,6.1791,-2.61882683,0.21117022647727168,"{6: 2, 16: 1, 8: 4, 9: 4}","[6, 8, 9, 16]",628494161,C2S1O4F4
Cs2PtC2(OF)4,mp-600193,2.4863,-0.61611761,0.10787522961538443,"{55: 2, 78: 1, 6: 2, 8: 4, 9: 4}","[6, 8, 9, 55, 78]",628494552781,Cs2Pt1C2O4F4
RbSb2C2O4F5,mp-560900,3.068,0.37985014,0.015734927015306432,"{37: 1, 51: 2, 6: 2, 8: 4, 9: 5}","[6, 8, 9, 37, 51]",628495371512,Rb1Sb2C2O4F5
Na4C2O5,mp-37947,2.7373,2.10998788,0.11317264028409024,"{11: 4, 6: 2, 8: 5}","[6, 8, 11]",6285114,Na4C2O5
Sc3Al3C2O5,mp-1005666,0.41270000000000007,7.06424721,0.017473703653845263,"{21: 3, 13: 3, 6: 2, 8: 5}","[6, 8, 13, 21]",6285133213,Sc3Al3C2O5
K2PtC2Cl2O5,mp-1191429,0.0,-0.56095403,0.43435343604166565,"{19: 2, 78: 1, 6: 2, 17: 2, 8: 5}","[6, 8, 17, 19, 78]",6285172192781,K2Pt1C2Cl2O5
Rb2CdC2Cl2O5,mp-727084,0.29400000000000004,-1.24665177,0.42452307249999954,"{37: 2, 48: 1, 6: 2, 17: 2, 8: 5}","[6, 8, 17, 37, 48]",6285172372481,Rb2Cd1C2Cl2O5
CaC2O5,mp-729142,0.0,-0.14310546,0.6035930417187432,"{20: 1, 6: 2, 8: 5}","[6, 8, 20]",6285201,Ca1C2O5
SrC2O5,mp-1208667,0.47030000000000005,-1.06162155,0.6183120678124929,"{38: 1, 6: 2, 8: 5}","[6, 8, 38]",6285381,Sr1C2O5
SbC2O5,mp-1209156,0.06099999999999994,2.34428182,0.224173178203122,"{51: 1, 6: 2, 8: 5}","[6, 8, 51]",6285511,Sb1C2O5
BiC2O5,mp-1197076,0.0,1.48607272,0.29036439523437174,"{83: 1, 6: 2, 8: 5}","[6, 8, 83]",6285831,Bi1C2O5
NaMgP(CO3)2,mp-1202863,2.1588,2.83409782,0.207978667954551,"{11: 1, 12: 1, 15: 1, 6: 2, 8: 6}","[6, 8, 11, 12, 15]",6286111121151,Na1Mg1P1C2O6
NaLa(CO3)2,mp-559868,3.8584999999999994,2.53283661,0.0,"{11: 1, 57: 1, 6: 2, 8: 6}","[6, 8, 11, 57]",6286111571,Na1La1C2O6
NaCe(CO3)2,mp-1210295,0.2839999999999998,5.08501983,0.0,"{11: 1, 58: 1, 6: 2, 8: 6}","[6, 8, 11, 58]",6286111581,Na1Ce1C2O6
NaPr(CO3)2,mp-1210097,4.6376,6.09190345,0.0,"{11: 1, 59: 1, 6: 2, 8: 6}","[6, 8, 11, 59]",6286111591,Na1Pr1C2O6
NaNd(CO3)2,mp-1210138,4.6697,1.42198811,0.0,"{11: 1, 60: 1, 6: 2, 8: 6}","[6, 8, 11, 60]",6286111601,Na1Nd1C2O6
NaSm(CO3)2,mp-1210126,4.6763,6.16134568,0.0,"{11: 1, 62: 1, 6: 2, 8: 6}","[6, 8, 11, 62]",6286111621,Na1Sm1C2O6
Na2Mg(CO3)2,mp-6026,4.4192,1.33720201,0.0,"{11: 2, 12: 1, 6: 2, 8: 6}","[6, 8, 11, 12]",6286112121,Na2Mg1C2O6
Na2Ca(CO3)2,mp-1194807,4.4361999999999995,5.19090116,0.0020280895643960406,"{11: 2, 20: 1, 6: 2, 8: 6}","[6, 8, 11, 20]",6286112201,Na2Ca1C2O6
Na3(CO3)2,mp-1210402,0.28700000000000003,-0.91724906,0.06528945571969658,"{11: 3, 6: 2, 8: 6}","[6, 8, 11]",6286113,Na3C2O6
Na3MgC2ClO6,mp-23653,4.1751,0.63853196,0.0,"{11: 3, 12: 1, 6: 2, 17: 1, 8: 6}","[6, 8, 11, 12, 17]",6286113121171,Na3Mg1C2Cl1O6
Na3MgC2BrO6,mp-646116,3.8547000000000002,0.72816207,0.0,"{11: 3, 12: 1, 6: 2, 35: 1, 8: 6}","[6, 8, 11, 12, 35]",6286113121351,Na3Mg1C2Br1O6
Na3CoC2ClO6,mp-1203077,2.7796000000000003,0.75719582,0.0,"{11: 3, 27: 1, 6: 2, 17: 1, 8: 6}","[6, 8, 11, 17, 27]",6286113171271,Na3Co1C2Cl1O6
Mg(CO3)2,mp-728970,0.0,-4.24156734,0.15655435250000416,"{12: 1, 6: 2, 8: 6}","[6, 8, 12]",6286121,Mg1C2O6
MgP(CO3)2,mp-1197911,0.11350000000000005,0.67924212,0.4206643881874914,"{12: 1, 15: 1, 6: 2, 8: 6}","[6, 8, 12, 15]",6286121151,Mg1P1C2O6
K2Mg(CO3)2,mp-8127,4.0485999999999995,1.28584771,0.0,"{19: 2, 12: 1, 6: 2, 8: 6}","[6, 8, 12, 19]",6286121192,K2Mg1C2O6
CaMg(CO3)2,mp-6459,5.0091,1.68072922,0.0,"{20: 1, 12: 1, 6: 2, 8: 6}","[6, 8, 12, 20]",6286121201,Ca1Mg1C2O6
MgV(CO3)2,mp-2217161,2.9885,4.06994811,0.012374970624998483,"{12: 1, 23: 1, 6: 2, 8: 6}","[6, 8, 12, 23]",6286121231,Mg1V1C2O6
MgMn(CO3)2,mp-2217116,4.078900000000001,2.57764384,0.002285829499996339,"{12: 1, 25: 1, 6: 2, 8: 6}","[6, 8, 12, 25]",6286121251,Mg1Mn1C2O6
MgAg2(CO3)2,mp-2239850,1.5001,1.37450029,0.1657628195454537,"{12: 1, 47: 2, 6: 2, 8: 6}","[6, 8, 12, 47]",6286121472,Mg1Ag2C2O6
MgCd(CO3)2,mp-1222080,3.5248,4.98993896,0.0,"{12: 1, 48: 1, 6: 2, 8: 6}","[6, 8, 12, 48]",6286121481,Mg1Cd1C2O6
KZnP(CO3)2,mp-1195963,2.4246,-0.07154091,0.20851914882575695,"{19: 1, 30: 1, 15: 1, 6: 2, 8: 6}","[6, 8, 15, 19, 30]",6286151191301,K1Zn1P1C2O6
KNd(CO3)2,mp-557940,4.3598,0.57458656,0.0,"{19: 1, 60: 1, 6: 2, 8: 6}","[6, 8, 19, 60]",6286191601,K1Nd1C2O6
KSm(CO3)2,mp-1211301,4.3453,0.23815442,0.0,"{19: 1, 62: 1, 6: 2, 8: 6}","[6, 8, 19, 62]",6286191621,K1Sm1C2O6
KEu(CO3)2,mp-1211491,0.0,-0.05143077,0.0,"{19: 1, 63: 1, 6: 2, 8: 6}","[6, 8, 19, 63]",6286191631,K1Eu1C2O6
KGd(CO3)2,mp-9806,2.4574999999999996,0.28470586,0.0,"{19: 1, 64: 1, 6: 2, 8: 6}","[6, 8, 19, 64]",6286191641,K1Gd1C2O6
KTb(CO3)2,mp-1211249,4.4195,0.45001414,0.0,"{19: 1, 65: 1, 6: 2, 8: 6}","[6, 8, 19, 65]",6286191651,K1Tb1C2O6
KDy(CO3)2,mp-9807,4.2456,0.46445319,0.0,"{19: 1, 66: 1, 6: 2, 8: 6}","[6, 8, 19, 66]",6286191661,K1Dy1C2O6
KHo(CO3)2,mp-9804,4.2739,0.56483406,0.0,"{19: 1, 67: 1, 6: 2, 8: 6}","[6, 8, 19, 67]",6286191671,K1Ho1C2O6
KEr(CO3)2,mp-1211628,4.4873,0.50383092,0.0,"{19: 1, 68: 1, 6: 2, 8: 6}","[6, 8, 19, 68]",6286191681,K1Er1C2O6
KTm(CO3)2,mp-1211338,4.5095,0.47049655,0.0,"{19: 1, 69: 1, 6: 2, 8: 6}","[6, 8, 19, 69]",6286191691,K1Tm1C2O6
KLu(CO3)2,mp-1211517,4.5532,0.54470512,0.0,"{19: 1, 71: 1, 6: 2, 8: 6}","[6, 8, 19, 71]",6286191711,K1Lu1C2O6
KNp(CO3)2,mp-1080695,0.0,1.79271721,0.3676450821875008,"{19: 1, 93: 1, 6: 2, 8: 6}","[6, 8, 19, 93]",6286191931,K1Np1C2O6
K2Ca(CO3)2,mp-6494,4.353400000000001,0.83264609,0.0,"{19: 2, 20: 1, 6: 2, 8: 6}","[6, 8, 19, 20]",6286192201,K2Ca1C2O6
CaZn(CO3)2,mp-1078391,3.9421,1.42500039,0.001333238000000847,"{20: 1, 30: 1, 6: 2, 8: 6}","[6, 8, 20, 30]",6286201301,Ca1Zn1C2O6
SrCa(CO3)2,mp-559653,4.7863,1.34390899,0.009107061250000825,"{38: 1, 20: 1, 6: 2, 8: 6}","[6, 8, 20, 38]",6286201381,Sr1Ca1C2O6
CaCd(CO3)2,mp-1227329,3.3362999999999996,1.10556625,0.0,"{20: 1, 48: 1, 6: 2, 8: 6}","[6, 8, 20, 48]",6286201481,Ca1Cd1C2O6
V(CO3)2,mp-762249,1.2456,-0.14992987,0.06207293333332409,"{23: 1, 6: 2, 8: 6}","[6, 8, 23]",6286231,V1C2O6
Mn(CO3)2,mp-754012,0.999,-0.09068794,0.07403549157407596,"{25: 1, 6: 2, 8: 6}","[6, 8, 25]",6286251,Mn1C2O6
Co(CO3)2,mp-752886,0.5841999999999998,-1.81697469,0.1143693566666677,"{27: 1, 6: 2, 8: 6}","[6, 8, 27]",6286271,Co1C2O6
Zn(CO3)2,mp-1188502,0.0,-0.63598106,0.7576850247222238,"{30: 1, 6: 2, 8: 6}","[6, 8, 30]",6286301,Zn1C2O6
RbSm(CO3)2,mp-9842,4.1975999999999996,0.34219584,0.0,"{37: 1, 62: 1, 6: 2, 8: 6}","[6, 8, 37, 62]",6286371621,Rb1Sm1C2O6
CsPr(CO3)2,mp-18698,4.5623,0.64241106,0.0,"{55: 1, 59: 1, 6: 2, 8: 6}","[6, 8, 55, 59]",6286551591,Cs1Pr1C2O6
CsGd(CO3)2,mp-541789,2.7428999999999997,0.72540478,0.0,"{55: 1, 64: 1, 6: 2, 8: 6}","[6, 8, 55, 64]",6286551641,Cs1Gd1C2O6
Gd(CO3)2,mp-1181407,0.0,-1.18809171,0.2861547520833323,"{64: 1, 6: 2, 8: 6}","[6, 8, 64]",6286641,Gd1C2O6
Er(CO3)2,mp-1189663,0.31699999999999995,-1.42538905,0.29746933402777653,"{68: 1, 6: 2, 8: 6}","[6, 8, 68]",6286681,Er1C2O6
Pb(CO3)2,mp-1210537,0.8927999999999999,-0.00233014,0.5698150866666678,"{82: 1, 6: 2, 8: 6}","[6, 8, 82]",6286821,Pb1C2O6
Na2LuC2O6F,mp-1194897,4.8126999999999995,5.20148475,0.0,"{11: 2, 71: 1, 6: 2, 8: 6, 9: 1}","[6, 8, 9, 11, 71]",628691112711,Na2Lu1C2O6F1
KPb2C2O6F,mp-1191763,3.0942,2.00500583,0.003344064895831167,"{19: 1, 82: 2, 6: 2, 8: 6, 9: 1}","[6, 8, 9, 19, 82]",628691191822,K1Pb2C2O6F1
CaCeC2O6F,mp-662583,0.2519,4.84223388,0.012597432272723808,"{20: 1, 58: 1, 6: 2, 8: 6, 9: 1}","[6, 8, 9, 20, 58]",628691201581,Ca1Ce1C2O6F1
U(CO3)2,mp-1204504,0.0,-0.19034034,0.8459785645370435,"{92: 1, 6: 2, 8: 6}","[6, 8, 92]",6286921,U1C2O6
MgTl6C2(O3F)2,mp-1234865,0.25050000000000017,3.55762711,0.18696466901961895,"{12: 1, 81: 6, 6: 2, 8: 6, 9: 2}","[6, 8, 9, 12, 81]",628692121816,Mg1Tl6C2O6F2
CaTl6C2(O3F)2,mp-1233233,0.049799999999999844,3.82770262,0.1509995160784321,"{20: 1, 81: 6, 6: 2, 8: 6, 9: 2}","[6, 8, 9, 20, 81]",628692201816,Ca1Tl6C2O6F2
CaC2S2(OF)6,mp-39536,5.9997,-2.1798642,0.17594955426470538,"{20: 1, 6: 2, 16: 2, 8: 6, 9: 6}","[6, 8, 9, 16, 20]",628696162201,Ca1C2S2O6F6
ZnC2S2(OF)6,mp-40886,5.5243,-1.29433778,0.17902215720588277,"{30: 1, 6: 2, 16: 2, 8: 6, 9: 6}","[6, 8, 9, 16, 30]",628696162301,Zn1C2S2O6F6
Te3C2S2(OF)6,mp-1194943,1.9664000000000001,0.63046636,0.310380054432958,"{52: 3, 6: 2, 16: 2, 8: 6, 9: 6}","[6, 8, 9, 16, 52]",628696162523,Te3C2S2O6F6
NaPb2C2O7,mp-1191095,0.0,2.0362483,0.08696096522569086,"{11: 1, 82: 2, 6: 2, 8: 7}","[6, 8, 11, 82]",6287111822,Na1Pb2C2O7
Mg3C2O7,mp-1222237,4.0313,4.6055235,0.06346985625000556,"{12: 3, 6: 2, 8: 7}","[6, 8, 12]",6287123,Mg3C2O7
Sb2P2C2O7,mp-1179616,2.5169,0.75489181,0.3058408923145617,"{51: 2, 15: 2, 6: 2, 8: 7}","[6, 8, 15, 51]",6287152512,Sb2P2C2O7
CaC2ClO7,mp-1203505,0.6559,1.15241569,0.7077580369128764,"{20: 1, 6: 2, 17: 1, 8: 7}","[6, 8, 17, 20]",6287171201,Ca1C2Cl1O7
LaC2ClO7,mp-1202339,0.6321,0.73105403,0.6945413482828338,"{57: 1, 6: 2, 17: 1, 8: 7}","[6, 8, 17, 57]",6287171571,La1C2Cl1O7
PrC2ClO7,mp-1197238,0.0,-0.58563275,0.6403838524053018,"{59: 1, 6: 2, 17: 1, 8: 7}","[6, 8, 17, 59]",6287171591,Pr1C2Cl1O7
Co2C2O7,mp-1178537,0.7283000000000001,-0.68706974,0.09800185984849552,"{27: 2, 6: 2, 8: 7}","[6, 8, 27]",6287272,Co2C2O7
PrC2BrO7,mp-1180018,0.5709,-0.42914228,0.344847393465912,"{59: 1, 6: 2, 35: 1, 8: 7}","[6, 8, 35, 59]",6287351591,Pr1C2Br1O7
CdC2O7,mp-1182178,0.0,-1.83258608,0.6338514279999954,"{48: 1, 6: 2, 8: 7}","[6, 8, 48]",6287481,Cd1C2O7
UC2O7,mp-1179589,0.4747,0.02753298,0.27800070550000555,"{92: 1, 6: 2, 8: 7}","[6, 8, 92]",6287921,U1C2O7
NaCa3C2O7F3,mp-1210550,0.6346,0.38394319,0.13244205890625071,"{11: 1, 20: 3, 6: 2, 8: 7, 9: 3}","[6, 8, 9, 11, 20]",628793111203,Na1Ca3C2O7F3
C2SeS2O7F6,mp-557877,3.6038,-1.98298132,0.23255438188822808,"{6: 2, 34: 1, 16: 2, 8: 7, 9: 6}","[6, 8, 9, 16, 34]",628796162341,C2Se1S2O7F6
Na2Np(CO4)2,mp-1203886,0.04830000000000001,1.39490764,0.2868347834615408,"{11: 2, 93: 1, 6: 2, 8: 8}","[6, 8, 11, 93]",6288112931,Na2Np1C2O8
Na3(CO4)2,mp-1194394,0.0,-0.63726215,0.2823190656089736,"{11: 3, 6: 2, 8: 8}","[6, 8, 11]",6288113,Na3C2O8