formula,material_id,band_gap,efermi,energy_above_hull,comp_atoms,sorted_keys_comp_atoms,comp_number,new_formula
ZrC3(NO4)3,mp-1199784,0.0,-0.23903578,0.5852637399999994,"{40: 1, 6: 3, 7: 3, 8: 12}","[6, 7, 8, 40]",6373812401,Zr1C3N3O12
Zn4P3C3N3O13,mp-1199842,0.0,-2.41865511,0.7546082617788343,"{30: 4, 15: 3, 6: 3, 7: 3, 8: 13}","[6, 7, 8, 15, 30]",6373813153304,Zn4P3C3N3O13
Zn4As3C3N3O13,mp-1198250,0.0,-2.84502124,0.8844709570853375,"{30: 4, 33: 3, 6: 3, 7: 3, 8: 13}","[6, 7, 8, 30, 33]",6373813304333,Zn4As3C3N3O13
AgC3N3O,mp-650510,1.5118,0.15850057,0.4981261090104159,"{47: 1, 6: 3, 7: 3, 8: 1}","[6, 7, 8, 47]",637381471,Ag1C3N3O1
Rb2Nb3C3S3N3(Cl3O)2,mp-1220771,0.09000000000000002,0.37684755,0.6284836228181812,"{37: 2, 41: 3, 6: 3, 16: 3, 7: 3, 17: 6, 8: 2}","[6, 7, 8, 16, 17, 37, 41]",637382163176372413,Rb2Nb3C3S3N3Cl6O2
AgC3N3O2,mp-667508,2.3284,2.02683457,0.5485339537731484,"{47: 1, 6: 3, 7: 3, 8: 2}","[6, 7, 8, 47]",637382471,Ag1C3N3O2
KCdC3(NO)3,mp-17799,4.1312,-1.17786712,0.0039430362878825065,"{19: 1, 48: 1, 6: 3, 7: 3, 8: 3}","[6, 7, 8, 19, 48]",637383191481,K1Cd1C3N3O3
KHgC3(NO)3,mp-18376,3.2554,-1.27049904,0.08317093210227267,"{19: 1, 80: 1, 6: 3, 7: 3, 8: 3}","[6, 7, 8, 19, 80]",637383191801,K1Hg1C3N3O3
RbHgC3(NO)3,mp-1209656,3.2812,-1.44647888,0.07896409613635935,"{37: 1, 80: 1, 6: 3, 7: 3, 8: 3}","[6, 7, 8, 37, 80]",637383371801,Rb1Hg1C3N3O3
K3CrC3N3O4,mp-554797,1.8068,-0.20349714,0.7728192308432433,"{19: 3, 24: 1, 6: 3, 7: 3, 8: 4}","[6, 7, 8, 19, 24]",637384193241,K3Cr1C3N3O4
Te6As4C3(NF8)3,mp-555419,2.1702,-0.29141517,0.19548033562500056,"{52: 6, 33: 4, 6: 3, 7: 3, 9: 24}","[6, 7, 9, 33, 52]",6373924334526,Te6As4C3N3F24
AsC3N3Cl3F7,mp-1228966,1.3700999999999999,-0.60403322,0.201658053272058,"{33: 1, 6: 3, 7: 3, 17: 3, 9: 7}","[6, 7, 9, 17, 33]",637397173331,As1C3N3Cl3F7
AsC3N3F8,mp-558853,3.9572000000000003,-2.48525176,0.06066984712499668,"{33: 1, 6: 3, 7: 3, 9: 8}","[6, 7, 9, 33]",637398331,As1C3N3F8
C3N4,mp-971684,1.1814999999999998,1.91223247,0.08975931392856928,"{6: 3, 7: 4}","[6, 7]",6374,C3N4
Al8C3N4,mp-541187,0.0,8.43067455,0.10316056266666607,"{13: 8, 6: 3, 7: 4}","[6, 7, 13]",6374138,Al8C3N4
U2W2C3,mp-1025264,0.0,9.98752141,0.13990661642857027,"{92: 2, 74: 2, 6: 3}","[6, 74, 92]",63742922,U2W2C3
Pu2W2C3,mp-1025268,0.0,9.59243403,0.0702527730357172,"{94: 2, 74: 2, 6: 3}","[6, 74, 94]",63742942,Pu2W2C3
UC3N4O11,mp-1203204,0.0,-2.99991188,1.4167472049999992,"{92: 1, 6: 3, 7: 4, 8: 11}","[6, 7, 8, 92]",6374811921,U1C3N4O11
C3N4O3,mp-1198447,0.0,-2.06640105,1.1013111496250012,"{6: 3, 7: 4, 8: 3}","[6, 7, 8]",637483,C3N4O3
CdC3S3N5,mp-725605,0.0,-1.27286968,0.2738321308630942,"{48: 1, 6: 3, 16: 3, 7: 5}","[6, 7, 16, 48]",6375163481,Cd1C3S3N5
U2Re2C3,mp-1025230,0.0,10.4491844,0.0,"{92: 2, 75: 2, 6: 3}","[6, 75, 92]",63752922,U2Re2C3
Sr3C3N5,mp-1247168,1.8287,3.32086861,0.3904243289393934,"{38: 3, 6: 3, 7: 5}","[6, 7, 38]",6375383,Sr3C3N5
Na5(CN2)3,mp-724972,0.0,0.76705635,0.050517296874999396,"{11: 5, 6: 3, 7: 6}","[6, 7, 11]",6376115,Na5C3N6
Al2(CN2)3,mp-1029975,2.8366,3.18935208,0.0,"{13: 2, 6: 3, 7: 6}","[6, 7, 13]",6376132,Al2C3N6
RhC3(N2Cl)3,mp-1199826,0.5019,-3.82411474,0.9753264274999998,"{45: 1, 6: 3, 7: 6, 17: 3}","[6, 7, 17, 45]",6376173451,Rh1C3N6Cl3
K5(CN2)3,mp-1103814,0.0,-0.05230177,0.04884381037946284,"{19: 5, 6: 3, 7: 6}","[6, 7, 19]",6376195,K5C3N6
Os2C3,mp-1197685,0.07660000000000089,8.3362513,1.17217014525,"{76: 2, 6: 3}","[6, 76]",63762,Os2C3
Sc2(CN2)3,mp-1029602,3.2601,0.73731664,0.0,"{21: 2, 6: 3, 7: 6}","[6, 7, 21]",6376212,Sc2C3N6
Ti2(CN2)3,mp-1246224,0.0,3.92788061,0.09499068750000106,"{22: 2, 6: 3, 7: 6}","[6, 7, 22]",6376222,Ti2C3N6
V2(CN2)3,mp-1246795,0.0,3.29700589,0.13018445795454525,"{23: 2, 6: 3, 7: 6}","[6, 7, 23]",6376232,V2C3N6
Cr2(CN2)3,mp-1190798,0.0,3.19780936,0.06303070522727161,"{24: 2, 6: 3, 7: 6}","[6, 7, 24]",6376242,Cr2C3N6
Mn2(CN2)3,mp-1245400,0.0,3.95919782,0.07920664568181657,"{25: 2, 6: 3, 7: 6}","[6, 7, 25]",6376252,Mn2C3N6
Co2(CN2)3,mp-1247219,0.8468,3.03440704,0.11034908295454571,"{27: 2, 6: 3, 7: 6}","[6, 7, 27]",6376272,Co2C3N6
Ga2(CN2)3,mp-1245974,1.89,3.37821644,0.06152259977272667,"{31: 2, 6: 3, 7: 6}","[6, 7, 31]",6376312,Ga2C3N6
Nb2(CN2)3,mp-1245481,0.06619999999999981,3.77156048,0.16978246486363702,"{41: 2, 6: 3, 7: 6}","[6, 7, 41]",6376412,Nb2C3N6
Mo2(CN2)3,mp-1245672,0.17609999999999992,5.05529505,0.1208532755000018,"{42: 2, 6: 3, 7: 6}","[6, 7, 42]",6376422,Mo2C3N6
Ru2(CN2)3,mp-1247359,0.0,3.87219502,0.15697467886363725,"{44: 2, 6: 3, 7: 6}","[6, 7, 44]",6376442,Ru2C3N6
Rh2(CN2)3,mp-1246752,1.1808,3.96172857,0.11251957204545349,"{45: 2, 6: 3, 7: 6}","[6, 7, 45]",6376452,Rh2C3N6
In2(CN2)3,mp-1029677,2.1510000000000002,2.05911485,0.0,"{49: 2, 6: 3, 7: 6}","[6, 7, 49]",6376492,In2C3N6
SnC3(I4N3)2,mp-1179625,0.0,0.08815477,0.6723137631944418,"{50: 1, 6: 3, 53: 8, 7: 6}","[6, 7, 50, 53]",6376501538,Sn1C3I8N6
Sb2(CN2)3,mp-1245995,2.0483000000000002,3.67207662,0.10103757568181759,"{51: 2, 6: 3, 7: 6}","[6, 7, 51]",6376512,Sb2C3N6
Ce2(CN2)3,mp-1213867,0.0,5.72838025,0.0,"{58: 2, 6: 3, 7: 6}","[6, 7, 58]",6376582,Ce2C3N6
Sm2(CN2)3,mp-568498,2.4814,2.1033347,0.0,"{62: 2, 6: 3, 7: 6}","[6, 7, 62]",6376622,Sm2C3N6
Tm2(CN2)3,mp-1205483,2.4882999999999997,2.46691337,0.0,"{69: 2, 6: 3, 7: 6}","[6, 7, 69]",6376692,Tm2C3N6
Lu2(CN2)3,mp-607712,4.173900000000001,0.14264545,0.0,"{71: 2, 6: 3, 7: 6}","[6, 7, 71]",6376712,Lu2C3N6
Ta2(CN2)3,mp-1246375,0.0,4.73796379,0.3424910115909068,"{73: 2, 6: 3, 7: 6}","[6, 7, 73]",6376732,Ta2C3N6
W2(CN2)3,mp-1246822,0.27390000000000025,5.30203086,0.2696179752272698,"{74: 2, 6: 3, 7: 6}","[6, 7, 74]",6376742,W2C3N6
Re2(CN2)3,mp-1246356,0.0,5.15565645,0.1811026385606045,"{75: 2, 6: 3, 7: 6}","[6, 7, 75]",6376752,Re2C3N6
Os2(CN2)3,mp-1246344,0.0,4.56020119,0.27710253613636304,"{76: 2, 6: 3, 7: 6}","[6, 7, 76]",6376762,Os2C3N6
Ir2(CN2)3,mp-1246444,0.0,3.53188645,0.3587552006818182,"{77: 2, 6: 3, 7: 6}","[6, 7, 77]",6376772,Ir2C3N6
Bi2(CN2)3,mp-1246532,1.9812,1.53171511,0.024429620227272686,"{83: 2, 6: 3, 7: 6}","[6, 7, 83]",6376832,Bi2C3N6
IrC3,mp-1184780,0.0,7.25468229,0.7364806387499989,"{77: 1, 6: 3}","[6, 77]",63771,Ir1C3
Ti3C3N7,mp-1245543,0.0,4.78744409,0.29566670019230834,"{22: 3, 6: 3, 7: 7}","[6, 7, 22]",6377223,Ti3C3N7
Ga3C3N7,mp-1245347,2.1556,2.36757953,0.21002326576923025,"{31: 3, 6: 3, 7: 7}","[6, 7, 31]",6377313,Ga3C3N7
Ir5C3,mp-1106149,0.0,7.41197355,0.7824195903125002,"{77: 5, 6: 3}","[6, 77]",63775,Ir5C3
Bi3C3N7,mp-1246589,1.9464000000000001,3.77669356,0.1266187314423064,"{83: 3, 6: 3, 7: 7}","[6, 7, 83]",6377833,Bi3C3N7
C37F21,mp-555948,2.0155,0.46206382,0.23444050852370601,"{6: 37, 9: 21}","[6, 9]",637921,C37F21
Bi2C3(BrN)9,mp-1196308,0.0,-1.0145458,0.8464734526154878,"{83: 2, 6: 3, 35: 9, 7: 9}","[6, 7, 35, 83]",6379359832,Bi2C3Br9N9
Hg2C3I7N9,mp-1197606,0.0,0.70738568,0.7961559086309498,"{80: 2, 6: 3, 53: 7, 7: 9}","[6, 7, 53, 80]",6379537802,Hg2C3I7N9
BiC3S3(NO)9,mp-1200048,0.12539999999999996,-0.95538135,0.9473519542821442,"{83: 1, 6: 3, 16: 3, 7: 9, 8: 9}","[6, 7, 8, 16, 83]",637989163831,Bi1C3S3N9O9
ScC3(N3F2)3,mp-1196731,0.0,-1.78543042,1.7461608275986844,"{21: 1, 6: 3, 7: 9, 9: 6}","[6, 7, 9, 21]",637996211,Sc1C3N9F6
KUC3O10,mp-1181495,0.6464,-0.49063673,0.6039455251666732,"{19: 1, 92: 1, 6: 3, 8: 10}","[6, 8, 19, 92]",63810191921,K1U1C3O10
NdC3O10,mp-1180367,0.5423,-0.74027946,0.44537484571428454,"{60: 1, 6: 3, 8: 10}","[6, 8, 60]",63810601,Nd1C3O10
BiC3O10,mp-1229017,0.4035,-0.46038556,0.6968911026785705,"{83: 1, 6: 3, 8: 10}","[6, 8, 83]",63810831,Bi1C3O10
K3NaUC3O11,mp-557407,2.1423,-0.46429334,0.0,"{19: 3, 11: 1, 92: 1, 6: 3, 8: 11}","[6, 8, 11, 19, 92]",63811111193921,K3Na1U1C3O11
Na4UC3O11,mp-6046,2.1523000000000003,0.41399235,0.0,"{11: 4, 92: 1, 6: 3, 8: 11}","[6, 8, 11, 92]",63811114921,Na4U1C3O11
K4UC3O11,mp-6194,2.0892,-0.16538717,0.0,"{19: 4, 92: 1, 6: 3, 8: 11}","[6, 8, 19, 92]",63811194921,K4U1C3O11
Rb4UC3O11,mp-1209486,2.1677999999999997,-0.3646194,0.0,"{37: 4, 92: 1, 6: 3, 8: 11}","[6, 8, 37, 92]",63811374921,Rb4U1C3O11
SbPC3Cl5O,mp-726922,1.1166,-1.35739428,0.7974931188257557,"{51: 1, 15: 1, 6: 3, 17: 5, 8: 1}","[6, 8, 15, 17, 51]",6381151175511,Sb1P1C3Cl5O1
Cs4UC3O11,mp-573096,2.0837000000000003,0.1634634,0.0,"{55: 4, 92: 1, 6: 3, 8: 11}","[6, 8, 55, 92]",63811554921,Cs4U1C3O11
NdC3O11,mp-1204161,0.3577,-0.84354516,0.6407159161666662,"{60: 1, 6: 3, 8: 11}","[6, 8, 60]",63811601,Nd1C3O11
MoC3S2Cl7O,mp-555254,0.6692999999999999,0.97759639,0.14880224375318551,"{42: 1, 6: 3, 16: 2, 17: 7, 8: 1}","[6, 8, 16, 17, 42]",6381162177421,Mo1C3S2Cl7O1
C3S4O,mp-1203167,2.4479,3.32554996,0.23785840868303598,"{6: 3, 16: 4, 8: 1}","[6, 8, 16]",6381164,C3S4O1
C3S7O,mp-1192192,1.9924000000000002,2.9199399,0.16391987818181875,"{6: 3, 16: 7, 8: 1}","[6, 8, 16]",6381167,C3S7O1
C3Cl2O,mp-1214194,1.4592,-0.47280896,0.20905051968749966,"{6: 3, 17: 2, 8: 1}","[6, 8, 17]",6381172,C3Cl2O1
UTl4C3O11,mp-18136,1.7982999999999998,1.52239999,0.0,"{92: 1, 81: 4, 6: 3, 8: 11}","[6, 8, 81, 92]",63811814921,U1Tl4C3O11
K3NaU(CO4)3,mp-1224280,0.45519999999999994,-0.59398227,0.09884783212500103,"{19: 3, 11: 1, 92: 1, 6: 3, 8: 12}","[6, 8, 11, 19, 92]",63812111193921,K3Na1U1C3O12
Pb5(CO4)3,mp-1221786,0.0,2.17607626,0.134654685083329,"{82: 5, 6: 3, 8: 12}","[6, 8, 82]",63812825,Pb5C3O12
Na3C3S3O13,mp-1213501,0.6585,-0.78833333,1.0164284096642549,"{11: 3, 6: 3, 16: 3, 8: 13}","[6, 8, 11, 16]",63813113163,Na3C3S3O13
Sr3CePC3O13,mp-561145,0.05399999999999938,5.02904435,0.016135471031750726,"{38: 3, 58: 1, 15: 1, 6: 3, 8: 13}","[6, 8, 15, 38, 58]",63813151383581,Sr3Ce1P1C3O13
K3ZrC3O13,mp-1199305,0.10050000000000003,-0.97269621,0.41236657537500054,"{19: 3, 40: 1, 6: 3, 8: 13}","[6, 8, 19, 40]",63813193401,K3Zr1C3O13
C3Br2O,mp-1214273,1.5707,-0.25087472,0.22057314244791648,"{6: 3, 35: 2, 8: 1}","[6, 8, 35]",6381352,C3Br2O1
K3NaCe(CO5)3,mp-1181132,0.015100000000000002,-0.46494266,0.5144730917391289,"{19: 3, 11: 1, 58: 1, 6: 3, 8: 15}","[6, 8, 11, 19, 58]",63815111193581,K3Na1Ce1C3O15
NaCo4(CO5)3,mp-1180522,0.0,0.58571065,0.3777353466304332,"{11: 1, 27: 4, 6: 3, 8: 15}","[6, 8, 11, 27]",63815111274,Na1Co4C3O15
Mg2C3ClO15,mp-1196274,0.11840000000000006,-1.30224937,0.7343823352976244,"{12: 2, 6: 3, 17: 1, 8: 15}","[6, 8, 12, 17]",63815122171,Mg2C3Cl1O15
W4C3O,mp-1216217,0.0,8.56395662,1.3799301103125021,"{74: 4, 6: 3, 8: 1}","[6, 8, 74]",6381744,W4C3O1
La2C3O17,mp-1181011,0.43139999999999995,0.42681763,0.4059207308712134,"{57: 2, 6: 3, 8: 17}","[6, 8, 57]",63817572,La2C3O17
Nd2C3O17,mp-1202637,0.8538,-0.19270579,0.34201344261363253,"{60: 2, 6: 3, 8: 17}","[6, 8, 60]",63817602,Nd2C3O17
NdC3S3(O2F)9,mp-1211666,0.0,-3.23869346,0.8170039213970615,"{60: 1, 6: 3, 16: 3, 8: 18, 9: 9}","[6, 8, 9, 16, 60]",6381899163601,Nd1C3S3O18F9
HoC3S3(O2F)9,mp-1212475,0.026899999999999924,-3.33214839,0.8989653133088193,"{67: 1, 6: 3, 16: 3, 8: 18, 9: 9}","[6, 8, 9, 16, 67]",6381899163671,Ho1C3S3O18F9
Sb2C3OF18,mp-1199341,2.1709,-0.62036031,0.1162575788541691,"{51: 2, 6: 3, 8: 1, 9: 18}","[6, 8, 9, 51]",6381918512,Sb2C3O1F18
C3OF2,mp-1214145,1.7061000000000002,-1.53973544,0.3730243925000023,"{6: 3, 8: 1, 9: 2}","[6, 8, 9]",638192,C3O1F2
AsC3OF6,mp-1182587,0.6292999999999997,-2.86502012,1.0816851210795457,"{33: 1, 6: 3, 8: 1, 9: 6}","[6, 8, 9, 33]",638196331,As1C3O1F6
C3O2,mp-561848,3.8777,-2.4185025,0.5089956552500006,"{6: 3, 8: 2}","[6, 8]",6382,C3O2
Mo2C3S2(Cl5O)2,mp-704608,2.0977,0.58009222,0.20207436976503956,"{42: 2, 6: 3, 16: 2, 17: 10, 8: 2}","[6, 8, 16, 17, 42]",63821621710422,Mo2C3S2Cl10O2
C3S3O2,mp-1214211,1.4102,0.03975102,0.29783118662946517,"{6: 3, 16: 3, 8: 2}","[6, 8, 16]",6382163,C3S3O2
C3S2ClO2F3,mp-555503,3.4821,-1.33228848,0.14439539403814994,"{6: 3, 16: 2, 17: 1, 8: 2, 9: 3}","[6, 8, 9, 16, 17]",638293162171,C3S2Cl1O2F3
C3S2(OF2)2,mp-1182437,3.6381,-1.80194933,0.14744471662337766,"{6: 3, 16: 2, 8: 2, 9: 4}","[6, 8, 9, 16]",638294162,C3S2O2F4
C3ICl(OF3)2,mp-554739,2.9994,-1.0338928,0.19662593932692118,"{6: 3, 53: 1, 17: 1, 8: 2, 9: 6}","[6, 8, 9, 17, 53]",638296171531,C3I1Cl1O2F6
Na(CO)3,mp-561309,1.0139,0.76237954,0.2387417161904768,"{11: 1, 6: 3, 8: 3}","[6, 8, 11]",6383111,Na1C3O3
Sc2Al4(CO)3,mp-1219436,0.13949999999999996,7.34731237,0.14191324986111287,"{21: 2, 13: 4, 6: 3, 8: 3}","[6, 8, 13, 21]",6383134212,Sc2Al4C3O3
CsOsC3(ClO)3,mp-1196677,3.6727000000000003,2.56269353,0.0,"{55: 1, 76: 1, 6: 3, 17: 3, 8: 3}","[6, 8, 17, 55, 76]",6383173551761,Cs1Os1C3Cl3O3
CoSb(CO)3,mp-562220,1.6035,0.65535628,0.3726272147187508,"{27: 1, 51: 1, 6: 3, 8: 3}","[6, 8, 27, 51]",6383271511,Co1Sb1C3O3
CoBi(CO)3,mp-1203525,1.1488,1.02592865,0.38426525666666755,"{27: 1, 83: 1, 6: 3, 8: 3}","[6, 8, 27, 83]",6383271831,Co1Bi1C3O3
RuC3SeO3,mp-629476,2.195,0.47387919,0.14892248124999874,"{44: 1, 6: 3, 34: 1, 8: 3}","[6, 8, 34, 44]",6383341441,Ru1C3Se1O3
RuC3Br2O3,mp-649950,2.123,-0.39750952,0.05789258078703696,"{44: 1, 6: 3, 35: 2, 8: 3}","[6, 8, 35, 44]",6383352441,Ru1C3Br2O3
Rh(CO)3,mp-1199463,2.2534,-0.89502083,0.23768591758928714,"{45: 1, 6: 3, 8: 3}","[6, 8, 45]",6383451,Rh1C3O3
OsC3IO3,mp-608354,2.154,0.2361106,0.08312157210937521,"{76: 1, 6: 3, 53: 1, 8: 3}","[6, 8, 53, 76]",6383531761,Os1C3I1O3
OsC3I2O3,mp-616196,1.7955999999999999,1.01194545,0.0,"{76: 1, 6: 3, 53: 2, 8: 3}","[6, 8, 53, 76]",6383532761,Os1C3I2O3
Re2C3I4O3,mp-621943,0.1915,1.45625718,0.1175910208217612,"{75: 2, 6: 3, 53: 4, 8: 3}","[6, 8, 53, 75]",6383534752,Re2C3I4O3
W2(CO)3,mp-1216282,0.0,2.88100039,1.2647385048437485,"{74: 2, 6: 3, 8: 3}","[6, 8, 74]",6383742,W2C3O3
Sb2IrC3O3F13,mp-1203024,2.8205,0.32203631,0.11131853852272489,"{51: 2, 77: 1, 6: 3, 8: 3, 9: 13}","[6, 8, 9, 51, 77]",6383913512771,Sb2Ir1C3O3F13
Tl2C3O4,mp-555790,2.932,0.92610858,0.16472844486110994,"{81: 2, 6: 3, 8: 4}","[6, 8, 81]",6384812,Tl2C3O4
Mg9Si10Pb8(CO16)3,mp-1202494,0.0,1.95556509,0.16622983335469588,"{12: 9, 14: 10, 82: 8, 6: 3, 8: 48}","[6, 8, 12, 14, 82]",638481291410828,Mg9Si10Pb8C3O48
ReC3O4F,mp-1203853,2.8601,-1.29029872,0.5691109268055641,"{75: 1, 6: 3, 8: 4, 9: 1}","[6, 8, 9, 75]",638491751,Re1C3O4F1
RbC3S2(O2F3)2,mp-728443,1.1549,-1.15208544,0.4639916112890585,"{37: 1, 6: 3, 16: 2, 8: 4, 9: 6}","[6, 8, 9, 16, 37]",638496162371,Rb1C3S2O4F6
Re2C3(ClO2)3,mp-1204665,0.8496999999999999,0.52911895,0.5509629619940579,"{75: 2, 6: 3, 17: 3, 8: 6}","[6, 8, 17, 75]",6386173752,Re2C3Cl3O6
KCd(CO2)3,mp-1192169,0.19069999999999998,0.51448879,0.4732435834659121,"{19: 1, 48: 1, 6: 3, 8: 6}","[6, 8, 19, 48]",6386191481,K1Cd1C3O6
Sc(CO2)3,mp-1198568,0.12920000000000004,0.56334663,0.5625084831249989,"{21: 1, 6: 3, 8: 6}","[6, 8, 21]",6386211,Sc1C3O6
Sr(CO2)3,mp-1202303,0.4629,0.55557953,0.21774545537499357,"{38: 1, 6: 3, 8: 6}","[6, 8, 38]",6386381,Sr1C3O6
Ce(CO2)3,mp-1201526,0.0,3.70231512,0.22678375375000037,"{58: 1, 6: 3, 8: 6}","[6, 8, 58]",6386581,Ce1C3O6
Bi(CO2)3,mp-1193340,0.0,2.40488157,0.5710667521458248,"{83: 1, 6: 3, 8: 6}","[6, 8, 83]",6386831,Bi1C3O6
Na2Sn2C3(O2F)3,mp-560327,2.4854,1.25230146,0.0523810923828103,"{11: 2, 50: 2, 6: 3, 8: 6, 9: 3}","[6, 8, 9, 11, 50]",638693112502,Na2Sn2C3O6F3
SrC3O7,mp-1201853,1.1056000000000001,-0.84016383,0.35969046340908406,"{38: 1, 6: 3, 8: 7}","[6, 8, 38]",6387381,Sr1C3O7
RbUC3O8,mp-1203924,1.9272,1.93123553,0.04968781040865622,"{37: 1, 92: 1, 6: 3, 8: 8}","[6, 8, 37, 92]",6388371921,Rb1U1C3O8
ErC3O8,mp-1199532,0.22220000000000018,-1.30741985,0.06188299239583195,"{68: 1, 6: 3, 8: 8}","[6, 8, 68]",6388681,Er1C3O8
Na2Ca2(CO3)3,mp-557391,4.7886999999999995,0.97599261,0.0,"{11: 2, 20: 2, 6: 3, 8: 9}","[6, 8, 11, 20]",6389112202,Na2Ca2C3O9
Na3Eu(CO3)3,mp-555099,0.0,0.30335018,0.0,"{11: 3, 63: 1, 6: 3, 8: 9}","[6, 8, 11, 63]",6389113631,Na3Eu1C3O9
Na3Gd(CO3)3,mp-1194955,0.0,0.29492036,0.0,"{11: 3, 64: 1, 6: 3, 8: 9}","[6, 8, 11, 64]",6389113641,Na3Gd1C3O9
Ca2Mg(CO3)3,mp-1193964,4.588900000000001,1.41613308,0.012052074000000523,"{20: 2, 12: 1, 6: 3, 8: 9}","[6, 8, 12, 20]",6389121202,Ca2Mg1C3O9
K2Ca2(CO3)3,mp-554591,4.7388,0.79739868,0.009970265000000644,"{19: 2, 20: 2, 6: 3, 8: 9}","[6, 8, 19, 20]",6389192202,K2Ca2C3O9
Mn2(CO3)3,mp-762590,0.39390000000000003,-0.26258986,0.05283413315475549,"{25: 2, 6: 3, 8: 9}","[6, 8, 25]",6389252,Mn2C3O9
Co2(CO3)3,mp-752772,0.8501,-0.43733058,0.12419112571428137,"{27: 2, 6: 3, 8: 9}","[6, 8, 27]",6389272,Co2C3O9
Rb2Sr2(CO3)3,mp-984332,4.6229000000000005,0.5559051,0.0029581793749997587,"{37: 2, 38: 2, 6: 3, 8: 9}","[6, 8, 37, 38]",6389372382,Rb2Sr2C3O9
Cs2Sr2(CO3)3,mp-866617,4.6235,0.94308345,0.0008109807812495262,"{55: 2, 38: 2, 6: 3, 8: 9}","[6, 8, 38, 55]",6389382552,Cs2Sr2C3O9
Nd(CO3)3,mp-1196447,0.47150000000000003,-1.41403026,0.6476758986538433,"{60: 1, 6: 3, 8: 9}","[6, 8, 60]",6389601,Nd1C3O9
Bi(CO3)3,mp-729796,0.29369999999999996,-0.15677781,0.7803109674999984,"{83: 1, 6: 3, 8: 9}","[6, 8, 83]",6389831,Bi1C3O9
Na4LuC3O9F,mp-1194756,4.533600000000001,0.51872933,0.0,"{11: 4, 71: 1, 6: 3, 8: 9, 9: 1}","[6, 8, 9, 11, 71]",638991114711,Na4Lu1C3O9F1
K2Pb3C3O9F2,mp-1194624,3.2868999999999997,1.54331047,0.0,"{19: 2, 82: 3, 6: 3, 8: 9, 9: 2}","[6, 8, 9, 19, 82]",638992192823,K2Pb3C3O9F2
K4Gd2C3O9F4,mp-42089,2.4162,-0.05014121,0.009271428522731107,"{19: 4, 64: 2, 6: 3, 8: 9, 9: 4}","[6, 8, 9, 19, 64]",638994194642,K4Gd2C3O9F4
Th2C3,mp-1188514,0.0,8.0943384,0.0,"{90: 2, 6: 3}","[6, 90]",63902,Th2C3
Th4C3,mp-1217395,0.0,7.19472132,0.0,"{90: 4, 6: 3}","[6, 90]",63904,Th4C3
C3F2,mp-1214300,2.9499,-0.05362209,0.28676061508333284,"{6: 3, 9: 2}","[6, 9]",6392,C3F2
PuUC3,mp-1219701,0.0,11.53814656,0.07023807124999948,"{94: 1, 92: 1, 6: 3}","[6, 92, 94]",63921941,Pu1U1C3
U2C3,mp-2625,0.0,11.56936032,0.0,"{92: 2, 6: 3}","[6, 92]",63922,U2C3
C3IF2,mp-1214186,2.7303,0.51564348,0.24615361145833425,"{6: 3, 53: 1, 9: 2}","[6, 9, 53]",6392531,C3I1F2
Np2C3,mp-1188564,0.0,12.49006862,0.04224445999999915,"{93: 2, 6: 3}","[6, 93]",63932,Np2C3
Pu2C3,mp-19891,0.0,11.22733374,0.14544362400000033,"{94: 2, 6: 3}","[6, 94]",63942,Pu2C3
C3F5,mp-1195459,4.5774,-1.58357693,0.23131435132812506,"{6: 3, 9: 5}","[6, 9]",6395,C3F5
AlW3C4,mp-1228839,0.0,7.9404263,0.29313770351562773,"{13: 1, 74: 3, 6: 4}","[6, 13, 74]",64131743,Al1W3C4
Zr2Al3C4,mp-567748,0.0,7.90374828,0.0,"{40: 2, 13: 3, 6: 4}","[6, 13, 40]",64133402,Zr2Al3C4
Hf2Al3C4,mp-570784,0.0,8.4806581,0.0,"{72: 2, 13: 3, 6: 4}","[6, 13, 72]",64133722,Hf2Al3C4
Al3WC4,mp-1228936,0.0,8.53481071,0.7352326730468768,"{13: 3, 74: 1, 6: 4}","[6, 13, 74]",64133741,Al3W1C4
Al3W3C4,mp-1228977,0.0,7.67362252,0.5131237501578969,"{13: 3, 74: 3, 6: 4}","[6, 13, 74]",64133743,Al3W3C4
U2Al3C4,mp-8894,0.0,10.21003986,0.0,"{92: 2, 13: 3, 6: 4}","[6, 13, 92]",64133922,U2Al3C4
Al4SiC4,mp-1214816,1.2008999999999999,8.78361389,0.047258067859651476,"{13: 4, 14: 1, 6: 4}","[6, 13, 14]",64134141,Al4Si1C4
Zr(AlC)4,mp-1207385,0.0,6.83432793,0.020563863506940727,"{40: 1, 13: 4, 6: 4}","[6, 13, 40]",64134401,Zr1Al4C4
Th(AlC)4,mp-15123,0.0,7.8476204,0.0,"{90: 1, 13: 4, 6: 4}","[6, 13, 90]",64134901,Th1Al4C4
CaSi3C4,mp-1227086,0.0,6.19891273,0.5650943339342112,"{20: 1, 14: 3, 6: 4}","[6, 14, 20]",64143201,Ca1Si3C4
C4SBr4,mp-1214179,2.7805,2.67995151,0.128897681061507,"{6: 4, 16: 1, 35: 4}","[6, 16, 35]",64161354,C4S1Br4
Ta8V(CS2)4,mp-1218036,0.0,6.61469129,0.01036629690476154,"{73: 8, 23: 1, 6: 4, 16: 8}","[6, 16, 23, 73]",64168231738,Ta8V1C4S8
Cs3Tb10C4Cl21,mp-571397,0.6788000000000003,2.16326039,0.0,"{55: 3, 65: 10, 6: 4, 17: 21}","[6, 17, 55, 65]",6417215536510,Cs3Tb10C4Cl21
C4Cl5,mp-1214607,2.4157,0.48654862,0.1481017446180557,"{6: 4, 17: 5}","[6, 17]",64175,C4Cl5
C41F14,mp-1200162,1.2278000000000002,1.3480248,0.27984859538636364,"{6: 41, 9: 14}","[6, 9]",641914,C41F14
K5C4Br,mp-1223943,1.1172,-0.59242928,1.8486714414625007,"{19: 5, 6: 4, 35: 1}","[6, 19, 35]",64195351,K5C4Br1
CaC4,mp-1022724,0.0,7.98239567,0.3263071860000002,"{20: 1, 6: 4}","[6, 20]",64201,Ca1C4
CaCeC4,mp-1227321,0.0,5.31190617,0.06920880520833084,"{20: 1, 58: 1, 6: 4}","[6, 20, 58]",64201581,Ca1Ce1C4
Sc3C4,mp-28733,0.0,5.48337016,0.0,"{21: 3, 6: 4}","[6, 21]",64213,Sc3C4
Sc3CoC4,mp-5075,0.0,6.17619517,0.0,"{21: 3, 27: 1, 6: 4}","[6, 21, 27]",64213271,Sc3Co1C4