formula,material_id,band_gap,efermi,energy_above_hull,comp_atoms,sorted_keys_comp_atoms,comp_number,new_formula
KSbPCO7,mp-756953,0.0,0.6545336,0.08245475818182602,"{19: 1, 51: 1, 15: 1, 6: 1, 8: 7}","[6, 8, 15, 19, 51]",6187151191511,K1Sb1P1C1O7
KCePCO7,mp-756880,1.1836,-0.77408021,0.032427690227263994,"{19: 1, 58: 1, 15: 1, 6: 1, 8: 7}","[6, 8, 15, 19, 58]",6187151191581,K1Ce1P1C1O7
KPrPCO7,mp-755031,0.10989999999999989,-1.42262831,0.08265978613636005,"{19: 1, 59: 1, 15: 1, 6: 1, 8: 7}","[6, 8, 15, 19, 59]",6187151191591,K1Pr1P1C1O7
KHfPCO7,mp-772778,5.1465,-0.83325365,0.005580322840909702,"{19: 1, 72: 1, 15: 1, 6: 1, 8: 7}","[6, 8, 15, 19, 72]",6187151191721,K1Hf1P1C1O7
KPWCO7,mp-755603,2.8067,-0.11761118,0.01132829418830994,"{19: 1, 15: 1, 74: 1, 6: 1, 8: 7}","[6, 8, 15, 19, 74]",6187151191741,K1P1W1C1O7
KBiPCO7,mp-1178144,0.0,-0.76501475,0.057791042386364566,"{19: 1, 83: 1, 15: 1, 6: 1, 8: 7}","[6, 8, 15, 19, 83]",6187151191831,K1Bi1P1C1O7
K2ScPCO7,mp-772763,3.9723,-0.18518608,0.0,"{19: 2, 21: 1, 15: 1, 6: 1, 8: 7}","[6, 8, 15, 19, 21]",6187151192211,K2Sc1P1C1O7
K2TiPCO7,mp-755542,0.1251000000000002,2.97713345,0.11233225026041449,"{19: 2, 22: 1, 15: 1, 6: 1, 8: 7}","[6, 8, 15, 19, 22]",6187151192221,K2Ti1P1C1O7
K2VPCO7,mp-754947,1.6536,0.76203369,0.0,"{19: 2, 23: 1, 15: 1, 6: 1, 8: 7}","[6, 8, 15, 19, 23]",6187151192231,K2V1P1C1O7
K2CrPCO7,mp-756910,2.1462000000000003,0.05741721,0.0,"{19: 2, 24: 1, 15: 1, 6: 1, 8: 7}","[6, 8, 15, 19, 24]",6187151192241,K2Cr1P1C1O7
K2MnPCO7,mp-769604,0.7031,0.0600856,0.0,"{19: 2, 25: 1, 15: 1, 6: 1, 8: 7}","[6, 8, 15, 19, 25]",6187151192251,K2Mn1P1C1O7
K2CoPCO7,mp-773463,0.9361,-0.1283443,0.031959366874996675,"{19: 2, 27: 1, 15: 1, 6: 1, 8: 7}","[6, 8, 15, 19, 27]",6187151192271,K2Co1P1C1O7
K2GaPCO7,mp-772857,3.4804999999999997,0.05244917,0.02683956079859673,"{19: 2, 31: 1, 15: 1, 6: 1, 8: 7}","[6, 8, 15, 19, 31]",6187151192311,K2Ga1P1C1O7
K2AsPCO7,mp-1178156,4.0808,-0.22896524,0.01353099281250092,"{19: 2, 33: 1, 15: 1, 6: 1, 8: 7}","[6, 8, 15, 19, 33]",6187151192331,K2As1P1C1O7
K2SnPCO7,mp-772799,0.0,1.84859532,0.07644720838541463,"{19: 2, 50: 1, 15: 1, 6: 1, 8: 7}","[6, 8, 15, 19, 50]",6187151192501,K2Sn1P1C1O7
K2SbPCO7,mp-756981,3.8332999999999995,0.59530455,0.0,"{19: 2, 51: 1, 15: 1, 6: 1, 8: 7}","[6, 8, 15, 19, 51]",6187151192511,K2Sb1P1C1O7
K2LaPCO7,mp-1178167,4.1823,0.41847866,0.04246938298610825,"{19: 2, 57: 1, 15: 1, 6: 1, 8: 7}","[6, 8, 15, 19, 57]",6187151192571,K2La1P1C1O7
K2CePCO7,mp-772782,0.0,3.34522352,0.04218778013889857,"{19: 2, 58: 1, 15: 1, 6: 1, 8: 7}","[6, 8, 15, 19, 58]",6187151192581,K2Ce1P1C1O7
K2PrPCO7,mp-772765,4.2654,-0.16101468,0.03730293604166146,"{19: 2, 59: 1, 15: 1, 6: 1, 8: 7}","[6, 8, 15, 19, 59]",6187151192591,K2Pr1P1C1O7
K2NdPCO7,mp-772835,4.3286999999999995,-0.17187633,0.03890911072916037,"{19: 2, 60: 1, 15: 1, 6: 1, 8: 7}","[6, 8, 15, 19, 60]",6187151192601,K2Nd1P1C1O7
K2SmPCO7,mp-772845,5.1944,-0.21534521,0.03733240854165665,"{19: 2, 62: 1, 15: 1, 6: 1, 8: 7}","[6, 8, 15, 19, 62]",6187151192621,K2Sm1P1C1O7
K2TbPCO7,mp-772871,4.4814,-0.24555461,0.021484480625000302,"{19: 2, 65: 1, 15: 1, 6: 1, 8: 7}","[6, 8, 15, 19, 65]",6187151192651,K2Tb1P1C1O7
K2DyPCO7,mp-756470,4.3407,-0.31739049,0.020085540625000675,"{19: 2, 66: 1, 15: 1, 6: 1, 8: 7}","[6, 8, 15, 19, 66]",6187151192661,K2Dy1P1C1O7
K2HoPCO7,mp-767414,4.2068,-0.29768001,0.023787199999997455,"{19: 2, 67: 1, 15: 1, 6: 1, 8: 7}","[6, 8, 15, 19, 67]",6187151192671,K2Ho1P1C1O7
K2ErPCO7,mp-754613,4.4968,-0.25117056,0.02021123562499927,"{19: 2, 68: 1, 15: 1, 6: 1, 8: 7}","[6, 8, 15, 19, 68]",6187151192681,K2Er1P1C1O7
K2TmPCO7,mp-772802,4.4497,-0.26291967,0.01520650437499782,"{19: 2, 69: 1, 15: 1, 6: 1, 8: 7}","[6, 8, 15, 19, 69]",6187151192691,K2Tm1P1C1O7
K2LuPCO7,mp-772832,4.5152,-0.24654375,0.020139626666675348,"{19: 2, 71: 1, 15: 1, 6: 1, 8: 7}","[6, 8, 15, 19, 71]",6187151192711,K2Lu1P1C1O7
K2TlPCO7,mp-1178146,1.2816,0.31103295,0.0,"{19: 2, 81: 1, 15: 1, 6: 1, 8: 7}","[6, 8, 15, 19, 81]",6187151192811,K2Tl1P1C1O7
K2BiPCO7,mp-772808,3.626,0.27092322,0.0,"{19: 2, 83: 1, 15: 1, 6: 1, 8: 7}","[6, 8, 15, 19, 83]",6187151192831,K2Bi1P1C1O7
K3CaPCO7,mp-756968,4.3648,0.32395768,0.0,"{19: 3, 20: 1, 15: 1, 6: 1, 8: 7}","[6, 8, 15, 19, 20]",6187151193201,K3Ca1P1C1O7
K3VPCO7,mp-754544,2.3244999999999996,2.60019302,0.011088106963136113,"{19: 3, 23: 1, 15: 1, 6: 1, 8: 7}","[6, 8, 15, 19, 23]",6187151193231,K3V1P1C1O7
K3CrPCO7,mp-774255,2.6393,1.96176852,0.015289452628207911,"{19: 3, 24: 1, 15: 1, 6: 1, 8: 7}","[6, 8, 15, 19, 24]",6187151193241,K3Cr1P1C1O7
K3MnPCO7,mp-1178149,3.5748,4.60772912,0.0,"{19: 3, 25: 1, 15: 1, 6: 1, 8: 7}","[6, 8, 15, 19, 25]",6187151193251,K3Mn1P1C1O7
K3CoPCO7,mp-1580470,2.9166999999999996,0.9780315,0.0030582618589747312,"{19: 3, 27: 1, 15: 1, 6: 1, 8: 7}","[6, 8, 15, 19, 27]",6187151193271,K3Co1P1C1O7
K3ZnPCO7,mp-772848,3.8609,0.49062778,0.03052199054487037,"{19: 3, 30: 1, 15: 1, 6: 1, 8: 7}","[6, 8, 15, 19, 30]",6187151193301,K3Zn1P1C1O7
K3GePCO7,mp-756801,3.5576999999999996,1.01562419,0.0746623144230707,"{19: 3, 32: 1, 15: 1, 6: 1, 8: 7}","[6, 8, 15, 19, 32]",6187151193321,K3Ge1P1C1O7
K3SrPCO7,mp-772777,4.153499999999999,0.13407816,0.01083337673076823,"{19: 3, 38: 1, 15: 1, 6: 1, 8: 7}","[6, 8, 15, 19, 38]",6187151193381,K3Sr1P1C1O7
K3SnPCO7,mp-754251,3.2434000000000003,1.58938828,0.021850561105772215,"{19: 3, 50: 1, 15: 1, 6: 1, 8: 7}","[6, 8, 15, 19, 50]",6187151193501,K3Sn1P1C1O7
K3SbPCO7,mp-756642,0.29110000000000014,2.69886511,0.096240176831496,"{19: 3, 51: 1, 15: 1, 6: 1, 8: 7}","[6, 8, 15, 19, 51]",6187151193511,K3Sb1P1C1O7
K3TlPCO7,mp-1178147,0.0,1.38366639,0.02111289137820993,"{19: 3, 81: 1, 15: 1, 6: 1, 8: 7}","[6, 8, 15, 19, 81]",6187151193811,K3Tl1P1C1O7
K3BiPCO7,mp-767416,0.4455,2.80181391,0.08618890032051052,"{19: 3, 83: 1, 15: 1, 6: 1, 8: 7}","[6, 8, 15, 19, 83]",6187151193831,K3Bi1P1C1O7
PuP2CO7,mp-1219882,0.0,1.3819759,0.6082698024431803,"{94: 1, 15: 2, 6: 1, 8: 7}","[6, 8, 15, 94]",6187152941,Pu1P2C1O7
MnCSO7,mp-754649,0.05690000000000006,-0.84101362,0.08912983605555702,"{25: 1, 6: 1, 16: 1, 8: 7}","[6, 8, 16, 25]",6187161251,Mn1C1S1O7
NdSi6(C6N)3,mp-1180641,0.5009000000000001,2.98638909,0.7768197183080998,"{60: 1, 14: 6, 6: 18, 7: 3}","[6, 7, 14, 60]",61873146601,Nd1Si6C18N3
La14Sb8CO7,mp-1200169,0.0,7.11161795,0.014810421016667519,"{57: 14, 51: 8, 6: 1, 8: 7}","[6, 8, 51, 57]",61875185714,La14Sb8C1O7
Er2CO7,mp-1213505,0.0,-0.82280475,0.24717692424999882,"{68: 2, 6: 1, 8: 7}","[6, 8, 68]",6187682,Er2C1O7
NaMg6CO8,mp-1030675,0.0,5.37299448,0.5677771850065101,"{11: 1, 12: 6, 6: 1, 8: 8}","[6, 8, 11, 12]",6188111126,Na1Mg6C1O8
Mg6AlCO8,mp-1032999,0.21870000000000012,6.94123744,0.4880952062109367,"{12: 6, 13: 1, 6: 1, 8: 8}","[6, 8, 12, 13]",6188126131,Mg6Al1C1O8
Mg6SiCO8,mp-1030861,0.050200000000000244,8.29713868,0.673904987031249,"{12: 6, 14: 1, 6: 1, 8: 8}","[6, 8, 12, 14]",6188126141,Mg6Si1C1O8
KMg6CO8,mp-1030964,0.0,6.23915843,0.6833690674218751,"{19: 1, 12: 6, 6: 1, 8: 8}","[6, 8, 12, 19]",6188126191,K1Mg6C1O8
CaMg6CO8,mp-1031708,0.7787999999999995,4.40831207,0.5330939735156264,"{20: 1, 12: 6, 6: 1, 8: 8}","[6, 8, 12, 20]",6188126201,Ca1Mg6C1O8
Mg6TiCO8,mp-1031354,0.0,7.33561716,0.5663954809375005,"{12: 6, 22: 1, 6: 1, 8: 8}","[6, 8, 12, 22]",6188126221,Mg6Ti1C1O8
Mg6VCO8,mp-1031455,0.0,6.14246197,0.49397832470052094,"{12: 6, 23: 1, 6: 1, 8: 8}","[6, 8, 12, 23]",6188126231,Mg6V1C1O8
Mg6CrCO8,mp-1033328,0.002500000000000391,6.42357208,0.49321676699218653,"{12: 6, 24: 1, 6: 1, 8: 8}","[6, 8, 12, 24]",6188126241,Mg6Cr1C1O8
Mg6MnCO8,mp-1032752,0.0,5.76610842,0.4581668078906258,"{12: 6, 25: 1, 6: 1, 8: 8}","[6, 8, 12, 25]",6188126251,Mg6Mn1C1O8
Mg6CoCO8,mp-1031988,0.000600000000000378,5.75489514,0.5257735625000004,"{12: 6, 27: 1, 6: 1, 8: 8}","[6, 8, 12, 27]",6188126271,Mg6Co1C1O8
Mg6ZnCO8,mp-1032475,0.3601000000000001,5.33036872,0.45269197945312456,"{12: 6, 30: 1, 6: 1, 8: 8}","[6, 8, 12, 30]",6188126301,Mg6Zn1C1O8
RbMg6CO8,mp-1033565,0.0,4.80911684,0.8915442158203124,"{37: 1, 12: 6, 6: 1, 8: 8}","[6, 8, 12, 37]",6188126371,Rb1Mg6C1O8
SrMg6CO8,mp-1033488,0.9188999999999998,3.62765024,0.662860968125,"{38: 1, 12: 6, 6: 1, 8: 8}","[6, 8, 12, 38]",6188126381,Sr1Mg6C1O8
Mg6NbCO8,mp-1033383,0.0,5.85494799,0.6371809815468739,"{12: 6, 41: 1, 6: 1, 8: 8}","[6, 8, 12, 41]",6188126411,Mg6Nb1C1O8
Mg6CdCO8,mp-1033230,0.24489999999999945,5.30088782,0.5291568025000011,"{12: 6, 48: 1, 6: 1, 8: 8}","[6, 8, 12, 48]",6188126481,Mg6Cd1C1O8
Mg6SnCO8,mp-1031751,0.0,7.92926663,0.5953065720312498,"{12: 6, 50: 1, 6: 1, 8: 8}","[6, 8, 12, 50]",6188126501,Mg6Sn1C1O8
CsMg6CO8,mp-1033571,0.0,4.05234682,1.0070924738671874,"{55: 1, 12: 6, 6: 1, 8: 8}","[6, 8, 12, 55]",6188126551,Cs1Mg6C1O8
HfMg6CO8,mp-1033280,0.0,7.15540949,0.6527452590624998,"{72: 1, 12: 6, 6: 1, 8: 8}","[6, 8, 12, 72]",6188126721,Hf1Mg6C1O8
Mg6BiCO8,mp-1033201,0.0,5.98919818,0.6521577531250005,"{12: 6, 83: 1, 6: 1, 8: 8}","[6, 8, 12, 83]",6188126831,Mg6Bi1C1O8
POs6C18ClO18,mp-652744,2.2398,-0.19020905,0.20670104429924763,"{15: 1, 76: 6, 6: 18, 17: 1, 8: 18}","[6, 8, 15, 17, 76]",618818151171766,P1Os6C18Cl1O18
BiRu5(CO)18,mp-1204558,0.4697,-0.38886957,0.24649376126488143,"{83: 1, 44: 5, 6: 18, 8: 18}","[6, 8, 44, 83]",618818445831,Bi1Ru5C18O18
K3VCO8,mp-555154,2.4179,0.29110908,0.258162411538466,"{19: 3, 23: 1, 6: 1, 8: 8}","[6, 8, 19, 23]",6188193231,K3V1C1O8
C18BrF13,mp-1214339,3.8031,-0.63790877,0.27072580386230527,"{6: 18, 35: 1, 9: 13}","[6, 9, 35]",618913351,C18Br1F13
PC18F17,mp-1210382,3.5637,-0.47881227,0.35468817319444046,"{15: 1, 6: 18, 9: 17}","[6, 9, 15]",618917151,P1C18F17
AsC18F17,mp-1214907,3.2096,-0.54180921,0.3438914007291656,"{33: 1, 6: 18, 9: 17}","[6, 9, 33]",618917331,As1C18F17
Ca4Tl2CO9,mp-1227293,1.3965,3.14206524,0.020161424999998623,"{20: 4, 81: 2, 6: 1, 8: 9}","[6, 8, 20, 81]",6189204812,Ca4Tl2C1O9
Sr4Tl2CO9,mp-1218552,1.3472999999999997,3.79993699,0.0,"{38: 4, 81: 2, 6: 1, 8: 9}","[6, 8, 38, 81]",6189384812,Sr4Tl2C1O9
ThC,mp-1164,0.0,6.95433119,0.0,"{90: 1, 6: 1}","[6, 90]",61901,Th1C1
Th5C,mp-1217298,0.0,7.76013966,0.0,"{90: 5, 6: 1}","[6, 90]",61905,Th5C1
CF,mp-1214158,4.4670000000000005,-2.00781004,0.3074599996874996,"{6: 1, 9: 1}","[6, 9]",6191,C1F1
PaC,mp-567580,0.0,10.95388067,0.0,"{91: 1, 6: 1}","[6, 91]",61911,Pa1C1
AsCSF11,mp-561235,4.5408,-3.23207888,0.09678652370606677,"{33: 1, 6: 1, 16: 1, 9: 11}","[6, 9, 16, 33]",61911161331,As1C1S1F11
SbCSF11,mp-558893,4.3941,-2.84034571,0.08548110852347435,"{51: 1, 6: 1, 16: 1, 9: 11}","[6, 9, 16, 51]",61911161511,Sb1C1S1F11
CCl3F,mp-23071,4.8988,-2.30113825,0.011921779687500411,"{6: 1, 17: 3, 9: 1}","[6, 9, 17]",6191173,C1Cl3F1
CBr3F,mp-28765,3.3196000000000003,-1.89898206,0.023877444406249726,"{6: 1, 35: 3, 9: 1}","[6, 9, 35]",6191353,C1Br3F1
CF2,mp-559432,4.9033,-1.50273871,0.24559039430555707,"{6: 1, 9: 2}","[6, 9]",6192,C1F2
UC,mp-2489,0.0,11.33445738,0.0,"{92: 1, 6: 1}","[6, 92]",61921,U1C1
Sc15C19,mp-15957,0.0,5.51345022,0.0017390710924392039,"{21: 15, 6: 19}","[6, 21]",6192115,Sc15C19
C(ClF)2,mp-22966,5.7111,-2.48509338,0.01521880862500069,"{6: 1, 17: 2, 9: 2}","[6, 9, 17]",6192172,C1Cl2F2
U3C,mp-972103,0.0,14.45466102,0.5221372700000018,"{92: 3, 6: 1}","[6, 92]",61923,U3C1
CBrF2,mp-1214136,4.5314,2.41765383,0.07132794261718711,"{6: 1, 35: 1, 9: 2}","[6, 9, 35]",6192351,C1Br1F2
TeCF2,mp-28836,1.6616000000000002,1.48297724,0.628129923854166,"{52: 1, 6: 1, 9: 2}","[6, 9, 52]",6192521,Te1C1F2
Gd2CF2,mp-8301,0.7328000000000001,3.41776798,0.0,"{64: 2, 6: 1, 9: 2}","[6, 9, 64]",6192642,Gd2C1F2
Ho2CF2,mp-9006,1.1355000000000004,3.66446441,0.0,"{67: 2, 6: 1, 9: 2}","[6, 9, 67]",6192672,Ho2C1F2
NpC,mp-2546,0.0,11.9502104,0.1715936868749992,"{93: 1, 6: 1}","[6, 93]",61931,Np1C1
SiC(ClF)3,mp-554491,6.1814,-2.38672597,0.3113377156250001,"{14: 1, 6: 1, 17: 3, 9: 3}","[6, 9, 14, 17]",6193141173,Si1C1Cl3F3
PCF3,mp-556383,3.2259,-0.49708309,0.597670229228572,"{15: 1, 6: 1, 9: 3}","[6, 9, 15]",6193151,P1C1F3
CClF3,mp-28473,6.616,-2.98043722,0.011826156312499947,"{6: 1, 17: 1, 9: 3}","[6, 9, 17]",6193171,C1Cl1F3
CSe(ClF)3,mp-647549,2.8954,1.57114195,0.11400939695800805,"{6: 1, 34: 1, 17: 3, 9: 3}","[6, 9, 17, 34]",6193173341,C1Se1Cl3F3
AsCF3,mp-27274,3.3193,-1.17497661,0.4925155162500001,"{33: 1, 6: 1, 9: 3}","[6, 9, 33]",6193331,As1C1F3
TeCF3,mp-29429,2.5038,0.16517051,0.33356352229166575,"{52: 1, 6: 1, 9: 3}","[6, 9, 52]",6193521,Te1C1F3
CIF3,mp-556845,3.725,-1.32947694,0.0775907566250007,"{6: 1, 53: 1, 9: 3}","[6, 9, 53]",6193531,C1I1F3
CF4,mp-1167,9.3354,-5.38132639,0.0,"{6: 1, 9: 4}","[6, 9]",6194,C1F4
PuC,mp-280,0.0,10.909678,0.3167489918750057,"{94: 1, 6: 1}","[6, 94]",61941,Pu1C1
CIClF4,mp-556844,2.4801,-0.15068986,0.13515005214285658,"{6: 1, 53: 1, 17: 1, 9: 4}","[6, 9, 17, 53]",6194171531,C1I1Cl1F4
Er10Ru10C19,mp-28472,0.0,6.32978616,0.0,"{68: 10, 44: 10, 6: 19}","[6, 44, 68]",61944106810,Er10Ru10C19
Ag5CF4,mp-29536,1.9267999999999998,0.49687367,0.25359428941666806,"{47: 5, 6: 1, 9: 4}","[6, 9, 47]",6194475,Ag5C1F4
CIF5,mp-676711,1.2211,-0.11836674,0.36951849934285885,"{6: 1, 53: 1, 9: 5}","[6, 9, 53]",6195531,C1I1F5
Ho15C19,mp-1198229,0.0,4.39230356,0.010653622411764374,"{67: 15, 6: 19}","[6, 67]",6196715,Ho15C19
Er15C19,mp-22827,0.0,4.52533778,0.004803069999999465,"{68: 15, 6: 19}","[6, 68]",6196815,Er15C19
Tm15C19,mp-1204458,0.0,4.35307285,0.009526079470586701,"{69: 15, 6: 19}","[6, 69]",6196915,Tm15C19
Lu15C19,mp-1203650,0.0,4.35509441,0.009565023958824526,"{71: 15, 6: 19}","[6, 71]",6197115,Lu15C19
Rh6C19NO15,mp-1180014,0.08019999999999994,-0.84905055,0.536673333689027,"{45: 6, 6: 19, 7: 1, 8: 15}","[6, 7, 8, 45]",61971815456,Rh6C19N1O15
CIF7,mp-29409,4.6791,-2.10232808,0.1667328867999993,"{6: 1, 53: 1, 9: 7}","[6, 9, 53]",6197531,C1I1F7
PrC19S6N9O2,mp-735777,0.23199999999999998,-1.82908744,0.8817332413103278,"{59: 1, 6: 19, 16: 6, 7: 9, 8: 2}","[6, 7, 8, 16, 59]",6197982166591,Pr1C19S6N9O2
Os6C19SO19,mp-662802,1.7147000000000001,-0.18937819,0.21430296941666782,"{76: 6, 6: 19, 16: 1, 8: 19}","[6, 8, 16, 76]",619819161766,Os6C19S1O19
Os7C19SO19,mp-648805,1.2659,0.05360517,0.2134879936684797,"{76: 7, 6: 19, 16: 1, 8: 19}","[6, 8, 16, 76]",619819161767,Os7C19S1O19
Co6Ge2(CO)19,mp-650858,2.1904,1.08175939,0.4536981477173896,"{27: 6, 32: 2, 6: 19, 8: 19}","[6, 8, 27, 32]",619819276322,Co6Ge2C19O19
Cs3Rh9(CO)19,mp-1197124,1.2189,0.85966703,0.16520487772500037,"{55: 3, 45: 9, 6: 19, 8: 19}","[6, 8, 45, 55]",619819459553,Cs3Rh9C19O19
Os5(CO)19,mp-680286,2.0255,-0.06181091,0.2266015202034879,"{76: 5, 6: 19, 8: 19}","[6, 8, 76]",619819765,Os5C19O19
Os6C19O20,mp-648157,2.7473,-0.37462274,0.225684681833334,"{76: 6, 6: 19, 8: 20}","[6, 8, 76]",619820766,Os6C19O20
AsCSCl2F9,mp-561244,3.8103,-1.96717141,0.08583935560799194,"{33: 1, 6: 1, 16: 1, 17: 2, 9: 9}","[6, 9, 16, 17, 33]",6199161172331,As1C1S1Cl2F9
SbCSCl2F9,mp-557900,3.8,-1.84684215,0.05078314555020391,"{51: 1, 6: 1, 16: 1, 17: 2, 9: 9}","[6, 9, 16, 17, 51]",6199161172511,Sb1C1S1Cl2F9
La20C20Cl13,mp-571437,0.0,7.47810499,0.05404146725949044,"{57: 20, 6: 20, 17: 13}","[6, 17, 57]",62017135720,La20C20Cl13
C20Cl3,mp-646122,1.4316,1.39785971,0.27041503251358634,"{6: 20, 17: 3}","[6, 17]",620173,C20Cl3
Ti(C5Cl)4,mp-1205237,1.1040999999999999,1.1696182,0.30982720610000136,"{22: 1, 6: 20, 17: 4}","[6, 17, 22]",620174221,Ti1C20Cl4
SrC20,mp-28905,0.31179999999999986,4.13230768,0.28364491246031776,"{38: 1, 6: 20}","[6, 38]",620381,Sr1C20
C20Cl18O,mp-1214619,1.3525,0.04163805,0.1308392736057682,"{6: 20, 17: 18, 8: 1}","[6, 8, 17]",620811718,C20Cl18O1
Rh8C20O19,mp-683938,1.4061000000000001,-0.12234613,0.24417821992021516,"{45: 8, 6: 20, 8: 19}","[6, 8, 45]",620819458,Rh8C20O19
Ru7C20(SO10)2,mp-650996,1.0682,0.31307045,0.20199693566326538,"{44: 7, 6: 20, 16: 2, 8: 20}","[6, 8, 16, 44]",620820162447,Ru7C20S2O20
Cr3Co2As2(CO)20,mp-694249,1.7069999999999999,-0.63325998,0.5351666479122361,"{24: 3, 27: 2, 33: 2, 6: 20, 8: 20}","[6, 8, 24, 27, 33]",620820243272332,Cr3Co2As2C20O20
NaC2,mp-1102647,0.0,6.35120717,1.1471409512068966,"{11: 1, 6: 2}","[6, 11]",62111,Na1C2
NaAgC2,mp-1206388,1.2033,-0.0158121,0.457331972952586,"{11: 1, 47: 1, 6: 2}","[6, 11, 47]",62111471,Na1Ag1C2
CsNaC2,mp-1189817,3.3196,0.36565816,0.29787373221982705,"{55: 1, 11: 1, 6: 2}","[6, 11, 55]",62111551,Cs1Na1C2
NaAuC2,mp-10422,1.3302999999999998,0.17094052,0.41902128416666606,"{11: 1, 79: 1, 6: 2}","[6, 11, 79]",62111791,Na1Au1C2
Na2PdC2,mp-4823,0.8829,0.89207466,0.045265634999999804,"{11: 2, 46: 1, 6: 2}","[6, 11, 46]",62112461,Na2Pd1C2
Na2PtC2,mp-4366,0.3662000000000001,1.5625372,0.06315300758620701,"{11: 2, 78: 1, 6: 2}","[6, 11, 78]",62112781,Na2Pt1C2
MgC2,mp-29771,2.562,1.68389702,0.44029436833333335,"{12: 1, 6: 2}","[6, 12]",62121,Mg1C2
Mg(AlC)2,mp-9514,1.7481,7.01832483,0.00795041225000137,"{12: 1, 13: 2, 6: 2}","[6, 12, 13]",62121132,Mg1Al2C2
Ti3AlC2,mp-3747,0.0,6.95563937,0.0,"{22: 3, 13: 1, 6: 2}","[6, 13, 22]",62131223,Ti3Al1C2
AlCr4GaC2,mp-1228967,0.0,7.19516637,0.0005288318749983034,"{13: 1, 24: 4, 31: 1, 6: 2}","[6, 13, 24, 31]",62131244311,Al1Cr4Ga1C2
Nb3AlC2,mp-996161,0.0,6.84122663,0.0,"{41: 3, 13: 1, 6: 2}","[6, 13, 41]",62131413,Nb3Al1C2
Ta3AlC2,mp-569568,0.0,7.43736568,0.0,"{73: 3, 13: 1, 6: 2}","[6, 13, 73]",62131733,Ta3Al1C2
AlWC2,mp-1228830,0.0,8.15387882,0.5711494520312517,"{13: 1, 74: 1, 6: 2}","[6, 13, 74]",62131741,Al1W1C2
TiAl2Cr3C2,mp-1217049,0.0,7.40864013,0.02028935574999835,"{22: 1, 13: 2, 24: 3, 6: 2}","[6, 13, 22, 24]",62132221243,Ti1Al2Cr3C2
TiNb3(AlC)2,mp-1216715,0.0,6.37233669,0.0,"{22: 1, 41: 3, 13: 2, 6: 2}","[6, 13, 22, 41]",62132221413,Ti1Nb3Al2C2
Ti3Nb(AlC)2,mp-1217102,0.0,6.67223004,0.0,"{22: 3, 41: 1, 13: 2, 6: 2}","[6, 13, 22, 41]",62132223411,Ti3Nb1Al2C2
SiC2,mp-1019097,0.0,5.82370922,0.563003859412281,"{14: 1, 6: 2}","[6, 14]",62141,Si1C2
Ti3SiC2,mp-5659,0.0,7.80301839,0.0,"{22: 3, 14: 1, 6: 2}","[6, 14, 22]",62141223,Ti3Si1C2
Pr3(SiC)2,mp-1219981,0.0,4.69536845,0.0916067726785732,"{59: 3, 14: 2, 6: 2}","[6, 14, 59]",62142593,Pr3Si2C2
Tb3(SiC)2,mp-1237751,0.0,4.80324367,0.26736500116071316,"{65: 3, 14: 2, 6: 2}","[6, 14, 65]",62142653,Tb3Si2C2
U3(SiC)2,mp-28838,0.0,11.42062837,0.0,"{92: 3, 14: 2, 6: 2}","[6, 14, 92]",62142923,U3Si2C2
V18P9C2,mp-1195743,0.0,8.51670729,0.0,"{23: 18, 15: 9, 6: 2}","[6, 15, 23]",621592318,V18P9C2
C2S,mp-1214378,2.5888,3.37484392,0.28177604860119043,"{6: 2, 16: 1}","[6, 16]",62161,C2S1
C2S3,mp-1214192,1.7265,2.9909231,0.24385409660714252,"{6: 2, 16: 3}","[6, 16]",62163,C2S3
C2S3I,mp-1214225,1.6642000000000001,1.13390643,0.10131553738095178,"{6: 2, 16: 3, 53: 1}","[6, 16, 53]",62163531,C2S3I1
Nb4Cr(CS2)2,mp-1220451,0.0,6.7916829,0.03201285772727047,"{41: 4, 24: 1, 6: 2, 16: 4}","[6, 16, 24, 41]",62164241414,Nb4Cr1C2S4
MnNb4(CS2)2,mp-1221653,0.0,6.39612296,0.02468074186100111,"{25: 1, 41: 4, 6: 2, 16: 4}","[6, 16, 25, 41]",62164251414,Mn1Nb4C2S4
Nb4Co(CS2)2,mp-1220517,0.0,6.9362733,0.031984471931819414,"{41: 4, 27: 1, 6: 2, 16: 4}","[6, 16, 27, 41]",62164271414,Nb4Co1C2S4
C2S7Cl6,mp-29477,2.9242,-0.59245372,0.006898352958334186,"{6: 2, 16: 7, 17: 6}","[6, 16, 17]",62167176,C2S7Cl6
KLa5(CCl5)2,mp-571240,1.7157999999999998,4.45450979,0.0,"{19: 1, 57: 5, 6: 2, 17: 10}","[6, 17, 19, 57]",621710191575,K1La5C2Cl10
KPr5(CCl5)2,mp-1223605,2.1273000000000004,2.83517511,0.0,"{19: 1, 59: 5, 6: 2, 17: 10}","[6, 17, 19, 59]",621710191595,K1Pr5C2Cl10
Sc7(CCl5)2,mp-29315,0.0,4.49061654,0.0,"{21: 7, 6: 2, 17: 10}","[6, 17, 21]",621710217,Sc7C2Cl10
La2C2Cl,mp-567694,0.0,7.70439012,0.0,"{57: 2, 6: 2, 17: 1}","[6, 17, 57]",62171572,La2C2Cl1
Ce2C2Cl,mp-1078814,0.0,7.70258807,0.0,"{58: 2, 6: 2, 17: 1}","[6, 17, 58]",62171582,Ce2C2Cl1
Sn(CCl)2,mp-721657,3.6578,-0.58865226,0.7824497379999995,"{50: 1, 6: 2, 17: 2}","[6, 17, 50]",62172501,Sn1C2Cl2
Gd4C2Cl3,mp-1203227,0.0,4.13511692,0.0,"{64: 4, 6: 2, 17: 3}","[6, 17, 64]",62173644,Gd4C2Cl3
La4C2Cl5,mp-569637,0.0,6.62285763,0.0,"{57: 4, 6: 2, 17: 5}","[6, 17, 57]",62175574,La4C2Cl5
Pr4C2Cl5,mp-570498,0.0,4.4059609,0.0,"{59: 4, 6: 2, 17: 5}","[6, 17, 59]",62175594,Pr4C2Cl5