formula,material_id,band_gap,efermi,energy_above_hull,comp_atoms,sorted_keys_comp_atoms,comp_number,new_formula
H6C2S(BrN)2,mp-1202739,2.6829,-0.75838281,0.6657948945264103,"{1: 6, 6: 2, 16: 1, 35: 2, 7: 2}","[1, 6, 7, 16, 35]",166272161352,H6C2S1Br2N2
ZnH6C2(NCl2)2,mp-698419,0.0,-3.74265476,0.7538670606944446,"{30: 1, 1: 6, 6: 2, 7: 2, 17: 4}","[1, 6, 7, 17, 30]",166272174301,Zn1H6C2N2Cl4
CdH6C2I2(NO)2,mp-1104248,2.7712,-0.21113947,0.07280092402222227,"{48: 1, 1: 6, 6: 2, 53: 2, 7: 2, 8: 2}","[1, 6, 7, 8, 48, 53]",16627282481532,Cd1H6C2I2N2O2
Cd3H6C2I6(NO)2,mp-1204973,2.5574,2.82033824,0.05432072719047465,"{48: 3, 1: 6, 6: 2, 53: 6, 7: 2, 8: 2}","[1, 6, 7, 8, 48, 53]",16627282483536,Cd3H6C2I6N2O2
CoH6C2S2N2O3,mp-743619,1.8544,-0.27938275,0.22443654020832682,"{27: 1, 1: 6, 6: 2, 16: 2, 7: 2, 8: 3}","[1, 6, 7, 8, 16, 27]",16627283162271,Co1H6C2S2N2O3
SrH6C2S2N2O3,mp-707312,4.2044,-0.82383484,0.11149275640624534,"{38: 1, 1: 6, 6: 2, 16: 2, 7: 2, 8: 3}","[1, 6, 7, 8, 16, 38]",16627283162381,Sr1H6C2S2N2O3
NaH6C2S2N3O2,mp-1211315,3.0479,0.50262136,0.12138424893973188,"{11: 1, 1: 6, 6: 2, 16: 2, 7: 3, 8: 2}","[1, 6, 7, 8, 11, 16]",16627382111162,Na1H6C2S2N3O2
H6C2SN3O2,mp-1212569,2.2976,2.28932979,0.12693630605441975,"{1: 6, 6: 2, 16: 1, 7: 3, 8: 2}","[1, 6, 7, 8, 16]",16627382161,H6C2S1N3O2
H6C2(NO)3,mp-1196435,3.9785999999999997,3.19119393,0.1322816601388892,"{1: 6, 6: 2, 7: 3, 8: 3}","[1, 6, 7, 8]",16627383,H6C2N3O3
VPH6C2N3O7,mp-698293,1.4065,-0.16877904,0.10287162355832713,"{23: 1, 15: 1, 1: 6, 6: 2, 7: 3, 8: 7}","[1, 6, 7, 8, 15, 23]",16627387151231,V1P1H6C2N3O7
UH6C2SeN3O7,mp-1203047,2.0587999999999997,1.78898608,0.09224232371615315,"{92: 1, 1: 6, 6: 2, 34: 1, 7: 3, 8: 7}","[1, 6, 7, 8, 34, 92]",16627387341921,U1H6C2Se1N3O7
H6C2N4O,mp-758097,4.5286,-0.66938852,0.0513938782692307,"{1: 6, 6: 2, 7: 4, 8: 1}","[1, 6, 7, 8]",16627481,H6C2N4O1
NaPH6C2(NO)4,mp-1197042,4.9843,4.37798225,0.03151482993518773,"{11: 1, 15: 1, 1: 6, 6: 2, 7: 4, 8: 4}","[1, 6, 7, 8, 11, 15]",16627484111151,Na1P1H6C2N4O4
KPH6C2(NO)4,mp-1202391,5.2859,4.9494873,0.02375803120790554,"{19: 1, 15: 1, 1: 6, 6: 2, 7: 4, 8: 4}","[1, 6, 7, 8, 15, 19]",16627484151191,K1P1H6C2N4O4
RbPH6C2(NO)4,mp-1200508,5.299799999999999,4.8240782,0.016294968789683395,"{37: 1, 15: 1, 1: 6, 6: 2, 7: 4, 8: 4}","[1, 6, 7, 8, 15, 37]",16627484151371,Rb1P1H6C2N4O4
CaH6C2(NO)4,mp-720384,4.3104,4.37784372,0.10240252803923156,"{20: 1, 1: 6, 6: 2, 7: 4, 8: 4}","[1, 6, 7, 8, 20]",16627484201,Ca1H6C2N4O4
ZnH6C2(NO)4,mp-706627,4.684900000000001,0.13903268,0.10466978424836348,"{30: 1, 1: 6, 6: 2, 7: 4, 8: 4}","[1, 6, 7, 8, 30]",16627484301,Zn1H6C2N4O4
AgH6C2N5O4,mp-1202721,1.992,1.65074429,0.3952749691666657,"{47: 1, 1: 6, 6: 2, 7: 5, 8: 4}","[1, 6, 7, 8, 47]",16627584471,Ag1H6C2N5O4
SrAl2H6C2O11,mp-1208735,5.103899999999999,0.95506092,0.0,"{38: 1, 13: 2, 1: 6, 6: 2, 8: 11}","[1, 6, 8, 13, 38]",1662811132381,Sr1Al2H6C2O11
K2UH6C2SO13,mp-766416,1.4061,1.12114173,0.03726281529318065,"{19: 2, 92: 1, 1: 6, 6: 2, 16: 1, 8: 13}","[1, 6, 8, 16, 19, 92]",1662813161192921,K2U1H6C2S1O13
H6C2SeO,mp-1189850,3.9629,-1.13578877,0.2101710832656254,"{1: 6, 6: 2, 34: 1, 8: 1}","[1, 6, 8, 34]",166281341,H6C2Se1O1
VH6C2ClO3,mp-1193987,3.2765000000000004,0.72121609,0.257695233337917,"{23: 1, 1: 6, 6: 2, 17: 1, 8: 3}","[1, 6, 8, 17, 23]",166283171231,V1H6C2Cl1O3
H6C2SO4,mp-1193557,6.1425,2.50389558,0.3140565087637359,"{1: 6, 6: 2, 16: 1, 8: 4}","[1, 6, 8, 16]",166284161,H6C2S1O4
CaH6W3(CO2)2,mp-1215054,0.0,1.63593867,1.0004103400000055,"{20: 1, 1: 6, 74: 3, 6: 2, 8: 4}","[1, 6, 8, 20, 74]",166284201743,Ca1H6W3C2O4
SnMoH6(CO2)2,mp-1199536,4.109,2.87441216,0.20537877633928492,"{50: 1, 42: 1, 1: 6, 6: 2, 8: 4}","[1, 6, 8, 42, 50]",166284421501,Sn1Mo1H6C2O4
MgH6(CO3)2,mp-542785,4.8736,-1.35080814,0.07465530399999754,"{12: 1, 1: 6, 6: 2, 8: 6}","[1, 6, 8, 12]",166286121,Mg1H6C2O6
PuP2H6(CO3)2,mp-1204667,0.38249999999999984,1.73882602,0.0,"{94: 1, 15: 2, 1: 6, 6: 2, 8: 6}","[1, 6, 8, 15, 94]",166286152941,Pu1P2H6C2O6
ZnH6C2(SO3)2,mp-698301,3.5171000000000006,0.39762975,0.319531985378152,"{30: 1, 1: 6, 6: 2, 16: 2, 8: 6}","[1, 6, 8, 16, 30]",166286162301,Zn1H6C2S2O6
GeH6C2(SO3)2,mp-1194589,5.131,3.95367373,0.274124065535716,"{32: 1, 1: 6, 6: 2, 16: 2, 8: 6}","[1, 6, 8, 16, 32]",166286162321,Ge1H6C2S2O6
H6PdC2(SO3)2,mp-1197675,1.5615999999999999,1.08844151,0.3669333075735297,"{1: 6, 46: 1, 6: 2, 16: 2, 8: 6}","[1, 6, 8, 16, 46]",166286162461,H6Pd1C2S2O6
MnH6(CO3)2,mp-24476,3.4977,-0.3709603,0.08041232100000428,"{25: 1, 1: 6, 6: 2, 8: 6}","[1, 6, 8, 25]",166286251,Mn1H6C2O6
CoH6(CO3)2,mp-1196066,2.537,0.42424078,0.07284979333333297,"{27: 1, 1: 6, 6: 2, 8: 6}","[1, 6, 8, 27]",166286271,Co1H6C2O6
ZnH6(CO3)2,mp-24313,4.4692,-1.35467851,0.07631951799999737,"{30: 1, 1: 6, 6: 2, 8: 6}","[1, 6, 8, 30]",166286301,Zn1H6C2O6
SrH6(CO3)2,mp-1237207,5.0322000000000005,3.57323736,0.08232918383333132,"{38: 1, 1: 6, 6: 2, 8: 6}","[1, 6, 8, 38]",166286381,Sr1H6C2O6
CdH6(CO3)2,mp-24749,4.5222999999999995,-1.92715022,0.07921775316666846,"{48: 1, 1: 6, 6: 2, 8: 6}","[1, 6, 8, 48]",166286481,Cd1H6C2O6
VH6C2S2O7,mp-1202628,0.0,0.54710349,0.252495995138891,"{23: 1, 1: 6, 6: 2, 16: 2, 8: 7}","[1, 6, 8, 16, 23]",166287162231,V1H6C2S2O7
H6PbC2S2O7,mp-1195902,0.661,0.29378667,0.4634153926620348,"{1: 6, 82: 1, 6: 2, 16: 2, 8: 7}","[1, 6, 8, 16, 82]",166287162821,H6Pb1C2S2O7
GdH6C2ClO7,mp-1196255,2.8345000000000002,1.88400114,0.017874505122553508,"{64: 1, 1: 6, 6: 2, 17: 1, 8: 7}","[1, 6, 8, 17, 64]",166287171641,Gd1H6C2Cl1O7
CaH6C2O7,mp-559469,3.7229,-1.01750039,0.03494264835937688,"{20: 1, 1: 6, 6: 2, 8: 7}","[1, 6, 8, 20]",166287201,Ca1H6C2O7
CdH6C2O7,mp-1198011,3.5862,2.31132585,0.052835787109374976,"{48: 1, 1: 6, 6: 2, 8: 7}","[1, 6, 8, 48]",166287481,Cd1H6C2O7
UH6C2(SO4)2,mp-1196853,2.1304,-0.84924503,0.1973792333521338,"{92: 1, 1: 6, 6: 2, 16: 2, 8: 8}","[1, 6, 8, 16, 92]",166288162921,U1H6C2S2O8
K4H6C2O9,mp-542043,3.8796,-0.25809288,0.0,"{19: 4, 1: 6, 6: 2, 8: 9}","[1, 6, 8, 19]",166289194,K4H6C2O9
Rb4H6C2O9,mp-542063,3.9848,-0.20150889,0.0,"{37: 4, 1: 6, 6: 2, 8: 9}","[1, 6, 8, 37]",166289374,Rb4H6C2O9
UH6C2O9,mp-1208198,2.2221,0.65604905,0.028469926574079096,"{92: 1, 1: 6, 6: 2, 8: 9}","[1, 6, 8, 92]",166289921,U1H6C2O9
CsGaH6(CF)2,mp-1202705,4.2064,-2.35292368,0.044335765937501215,"{55: 1, 31: 1, 1: 6, 6: 2, 9: 2}","[1, 6, 9, 31, 55]",166292311551,Cs1Ga1H6C2F2
SbAsH6(CF4)2,mp-1200260,5.171,-3.31681857,0.08913960138889454,"{51: 1, 33: 1, 1: 6, 6: 2, 9: 8}","[1, 6, 9, 33, 51]",166298331511,Sb1As1H6C2F8
H6PbC3S2IN,mp-1194606,2.8489999999999998,3.29000329,0.13629200813775455,"{1: 6, 82: 1, 6: 3, 16: 2, 53: 1, 7: 1}","[1, 6, 7, 16, 53, 82]",166371162531821,H6Pb1C3S2I1N1
H6AuC3NO,mp-1196856,3.3476999999999997,2.44039025,0.2575802081770835,"{1: 6, 79: 1, 6: 3, 7: 1, 8: 1}","[1, 6, 7, 8, 79]",16637181791,H6Au1C3N1O1
H6C3S3NCl3O5,mp-1204839,4.0119,-0.7789712,0.4015121811564608,"{1: 6, 6: 3, 16: 3, 7: 1, 17: 3, 8: 5}","[1, 6, 7, 8, 16, 17]",16637185163173,H6C3S3N1Cl3O5
H6C3(NO)2,mp-1203544,4.7894000000000005,2.91876598,0.1470664548076943,"{1: 6, 6: 3, 7: 2, 8: 2}","[1, 6, 7, 8]",16637282,H6C3N2O2
H6C3S(NO)2,mp-1195319,4.263999999999999,-2.04961514,0.09834441072703903,"{1: 6, 6: 3, 16: 1, 7: 2, 8: 2}","[1, 6, 7, 8, 16]",16637282161,H6C3S1N2O2
UH6C3SeN2O7,mp-1203533,2.2132,1.79424116,0.14509103994531536,"{92: 1, 1: 6, 6: 3, 34: 1, 7: 2, 8: 7}","[1, 6, 7, 8, 34, 92]",16637287341921,U1H6C3Se1N2O7
CrH6C3(S2N)3,mp-1196508,1.8989000000000003,0.58972024,0.054865675111036794,"{24: 1, 1: 6, 6: 3, 16: 6, 7: 3}","[1, 6, 7, 16, 24]",166373166241,Cr1H6C3S6N3
BiH6C3(S2N)3,mp-1204400,2.5591,3.21129677,0.06812130120408266,"{83: 1, 1: 6, 6: 3, 16: 6, 7: 3}","[1, 6, 7, 16, 83]",166373166831,Bi1H6C3S6N3
H6C3SN3O2F3,mp-555728,2.1838,-1.24562686,0.39831709870205056,"{1: 6, 6: 3, 16: 1, 7: 3, 8: 2, 9: 3}","[1, 6, 7, 8, 9, 16]",1663738293161,H6C3S1N3O2F3
NaMnH6C3S3(NO)3,mp-1197034,2.7790999999999997,-0.40889758,0.11908305174350176,"{11: 1, 25: 1, 1: 6, 6: 3, 16: 3, 7: 3, 8: 3}","[1, 6, 7, 8, 11, 16, 25]",16637383111163251,Na1Mn1H6C3S3N3O3
H6C3N4O3,mp-721707,4.3669,-0.53177794,0.012091708802081769,"{1: 6, 6: 3, 7: 4, 8: 3}","[1, 6, 7, 8]",16637483,H6C3N4O3
TlH6C3S3(O4F3)3,mp-1198235,2.7202,-1.80519094,0.19331366904412306,"{81: 1, 1: 6, 6: 3, 16: 3, 8: 12, 9: 9}","[1, 6, 8, 9, 16, 81]",166381299163811,Tl1H6C3S3O12F9
H6AuC3O2,mp-1201462,3.4829999999999997,1.14676767,0.2828043015625008,"{1: 6, 79: 1, 6: 3, 8: 2}","[1, 6, 8, 79]",166382791,H6Au1C3O2
As4H6(CO)3,mp-1202552,2.6283,2.52521796,0.27817850874999994,"{33: 4, 1: 6, 6: 3, 8: 3}","[1, 6, 8, 33]",166383334,As4H6C3O3
InH6(CO3)3,mp-600220,3.7005999999999997,-0.42522294,0.03426535003289555,"{49: 1, 1: 6, 6: 3, 8: 9}","[1, 6, 8, 49]",166389491,In1H6C3O9
PrH6(CO3)3,mp-1209824,3.4398,2.38462082,0.0,"{59: 1, 1: 6, 6: 3, 8: 9}","[1, 6, 8, 59]",166389591,Pr1H6C3O9
NdH6(CO3)3,mp-1198360,3.1502999999999997,2.53305379,0.028696298585532354,"{60: 1, 1: 6, 6: 3, 8: 9}","[1, 6, 8, 60]",166389601,Nd1H6C3O9
GaGe5H6C4NO12,mp-684743,1.4324,0.07911385,0.35157152713362283,"{31: 1, 32: 5, 1: 6, 6: 4, 7: 1, 8: 12}","[1, 6, 7, 8, 31, 32]",166471812311325,Ga1Ge5H6C4N1O12
GdH6C4NO9,mp-559223,2.9524999999999997,-0.73589219,0.021517875000002462,"{64: 1, 1: 6, 6: 4, 7: 1, 8: 9}","[1, 6, 7, 8, 64]",16647189641,Gd1H6C4N1O9
Si5H6C4(NCl5)2,mp-1199804,3.5385,-1.04967392,0.26213533474951145,"{14: 5, 1: 6, 6: 4, 7: 2, 17: 10}","[1, 6, 7, 14, 17]",1664721451710,Si5H6C4N2Cl10
SnH6C4(SN)2,mp-1193781,4.01,2.90491313,0.2588336679999985,"{50: 1, 1: 6, 6: 4, 16: 2, 7: 2}","[1, 6, 7, 16, 50]",166472162501,Sn1H6C4S2N2
P2H6C4N2Cl2O,mp-557379,2.9631,0.22058914,0.30731476315242645,"{15: 2, 1: 6, 6: 4, 7: 2, 17: 2, 8: 1}","[1, 6, 7, 8, 15, 17]",16647281152172,P2H6C4N2Cl2O1
AgH6C4(NO)2,mp-698351,2.3857,1.214526,0.20340938605555614,"{47: 1, 1: 6, 6: 4, 7: 2, 8: 2}","[1, 6, 7, 8, 47]",16647282471,Ag1H6C4N2O2
NaH6C4SN3O5,mp-1197676,2.3638,1.49629905,0.1388967405506083,"{11: 1, 1: 6, 6: 4, 16: 1, 7: 3, 8: 5}","[1, 6, 7, 8, 11, 16]",16647385111161,Na1H6C4S1N3O5
HgH6C4(N2O)2,mp-1197145,3.7512999999999996,-1.22475452,0.2585742969281055,"{80: 1, 1: 6, 6: 4, 7: 4, 8: 2}","[1, 6, 7, 8, 80]",16647482801,Hg1H6C4N4O2
KNaH6PtC4N4O3,mp-696179,1.3944,0.0846444,0.11235620944791513,"{19: 1, 11: 1, 1: 6, 78: 1, 6: 4, 7: 4, 8: 3}","[1, 6, 7, 8, 11, 19, 78]",16647483111191781,K1Na1H6Pt1C4N4O3
Na2H6PtC4N4O3,mp-720849,2.4515000000000002,-0.85747827,0.11752002945833251,"{11: 2, 1: 6, 78: 1, 6: 4, 7: 4, 8: 3}","[1, 6, 7, 8, 11, 78]",16647483112781,Na2H6Pt1C4N4O3
K2H6PtC4N4O3,mp-720283,1.8723,-0.54078847,0.10787204631249558,"{19: 2, 1: 6, 78: 1, 6: 4, 7: 4, 8: 3}","[1, 6, 7, 8, 19, 78]",16647483192781,K2H6Pt1C4N4O3
SiH6C4N5F6,mp-1196697,0.17379999999999995,-1.37121758,0.4210950350800582,"{14: 1, 1: 6, 6: 4, 7: 5, 9: 6}","[1, 6, 7, 9, 14]",16647596141,Si1H6C4N5F6
MnH6(CN2)4,mp-1195586,1.0154,1.55394252,0.28720094819078756,"{25: 1, 1: 6, 6: 4, 7: 8}","[1, 6, 7, 25]",166478251,Mn1H6C4N8
KNdH6C4O11,mp-1201323,3.2645,-1.12079269,0.03483747945652116,"{19: 1, 60: 1, 1: 6, 6: 4, 8: 11}","[1, 6, 8, 19, 60]",1664811191601,K1Nd1H6C4O11
K3VH6C4O13,mp-698305,2.6857,-1.03427738,0.09436771726852022,"{19: 3, 23: 1, 1: 6, 6: 4, 8: 13}","[1, 6, 8, 19, 23]",1664813193231,K3V1H6C4O13
K2UH6C4SeO15,mp-1201982,2.083,1.02243753,0.08329638509159398,"{19: 2, 92: 1, 1: 6, 6: 4, 34: 1, 8: 15}","[1, 6, 8, 19, 34, 92]",1664815192341921,K2U1H6C4Se1O15
CdH6C4(S2O)2,mp-698349,2.3204000000000002,0.88205951,0.24045280186974782,"{48: 1, 1: 6, 6: 4, 16: 4, 8: 2}","[1, 6, 8, 16, 48]",166482164481,Cd1H6C4S4O2
U12Cd4H6C4O51,mp-1217885,0.0,0.71564692,0.5259588347727249,"{92: 12, 48: 4, 1: 6, 6: 4, 8: 51}","[1, 6, 8, 48, 92]",16648514849212,U12Cd4H6C4O51
CaH6(C2O3)2,mp-1195133,3.9321,-0.11282063,0.1311023830392113,"{20: 1, 1: 6, 6: 4, 8: 6}","[1, 6, 8, 20]",166486201,Ca1H6C4O6
Na2H6C4O7,mp-699317,2.7363999999999997,0.26737019,0.14930367081506368,"{11: 2, 1: 6, 6: 4, 8: 7}","[1, 6, 8, 11]",166487112,Na2H6C4O7
SrH6C4O7,mp-690824,2.5705,0.44787965,0.1651565336805607,"{38: 1, 1: 6, 6: 4, 8: 7}","[1, 6, 8, 38]",166487381,Sr1H6C4O7
K3UH6C5SNO13,mp-605461,1.6804999999999999,-0.57931012,0.07894784466914029,"{19: 3, 92: 1, 1: 6, 6: 5, 16: 1, 7: 1, 8: 13}","[1, 6, 7, 8, 16, 19, 92]",166571813161193921,K3U1H6C5S1N1O13
P2H6C5N2Cl4O,mp-605047,2.6879,0.56916526,0.4012355952093243,"{15: 2, 1: 6, 6: 5, 7: 2, 17: 4, 8: 1}","[1, 6, 7, 8, 15, 17]",16657281152174,P2H6C5N2Cl4O1
In2H6C5O11,mp-1199004,4.7153,3.7913136,0.10329897046875036,"{49: 2, 1: 6, 6: 5, 8: 11}","[1, 6, 8, 49]",1665811492,In2H6C5O11
H6C6NO,mp-997581,2.2398000000000002,-4.77148414,0.2250708854017862,"{1: 6, 6: 6, 7: 1, 8: 1}","[1, 6, 7, 8]",16667181,H6C6N1O1
SrH6C6S2N2O7,mp-1209405,2.7544,1.95428783,0.12699383341766435,"{38: 1, 1: 6, 6: 6, 16: 2, 7: 2, 8: 7}","[1, 6, 7, 8, 16, 38]",16667287162381,Sr1H6C6S2N2O7
TbAg3H6C6(N2O)3,mp-23772,2.5766999999999998,-0.8899641,0.29213788721250555,"{65: 1, 47: 3, 1: 6, 6: 6, 7: 6, 8: 3}","[1, 6, 7, 8, 47, 65]",16667683473651,Tb1Ag3H6C6N6O3
LaH6Au3C6(N2O)3,mp-542688,2.1416999999999997,0.00838268,0.239974336661108,"{57: 1, 1: 6, 79: 3, 6: 6, 7: 6, 8: 3}","[1, 6, 7, 8, 57, 79]",16667683571793,La1H6Au3C6N6O3
Na3MoH6(CO2)6,mp-558939,3.8412,-0.57218822,0.1077242589955425,"{11: 3, 42: 1, 1: 6, 6: 6, 8: 12}","[1, 6, 8, 11, 42]",1666812113421,Na3Mo1H6C6O12
Zn3H6C6(IO6)2,mp-1204276,1.5493000000000001,0.64517101,0.1436636227801662,"{30: 3, 1: 6, 6: 6, 53: 2, 8: 12}","[1, 6, 8, 30, 53]",1666812303532,Zn3H6C6I2O12
K3NdH6(C2O5)3,mp-554058,3.4054,-0.77002112,0.04936905310483741,"{19: 3, 60: 1, 1: 6, 6: 6, 8: 15}","[1, 6, 8, 19, 60]",1666815193601,K3Nd1H6C6O15
K3GdH6(C2O5)3,mp-738657,2.9734000000000003,-0.80334609,0.05416663157258039,"{19: 3, 64: 1, 1: 6, 6: 6, 8: 15}","[1, 6, 8, 19, 64]",1666815193641,K3Gd1H6C6O15
CaH6C6(ClO4)2,mp-1214366,0.0,-0.17692958,0.37405644820652206,"{20: 1, 1: 6, 6: 6, 17: 2, 8: 8}","[1, 6, 8, 17, 20]",166688172201,Ca1H6C6Cl2O8
CaH6C6(BrO4)2,mp-1214678,0.0,0.06189543,0.3742180128804362,"{20: 1, 1: 6, 6: 6, 35: 2, 8: 8}","[1, 6, 8, 20, 35]",166688201352,Ca1H6C6Br2O8
GdH6C6Cl3(O3F2)3,mp-605688,3.0035,-1.7397874,0.18178294108871285,"{64: 1, 1: 6, 6: 6, 17: 3, 8: 9, 9: 6}","[1, 6, 8, 9, 17, 64]",16668996173641,Gd1H6C6Cl3O9F6
DyH6C6Cl3(O3F2)3,mp-605302,4.1943,-1.79286961,0.1971266228578683,"{66: 1, 1: 6, 6: 6, 17: 3, 8: 9, 9: 6}","[1, 6, 8, 9, 17, 66]",16668996173661,Dy1H6C6Cl3O9F6
HoH6C6Cl3(O3F2)3,mp-1204761,4.392,-1.8227665,0.20035222422883692,"{67: 1, 1: 6, 6: 6, 17: 3, 8: 9, 9: 6}","[1, 6, 8, 9, 17, 67]",16668996173671,Ho1H6C6Cl3O9F6
H6C8I3NO5,mp-1213638,2.7869,0.44353251,0.214197526467391,"{1: 6, 6: 8, 53: 3, 7: 1, 8: 5}","[1, 6, 7, 8, 53]",16687185533,H6C8I3N1O5
V2H6C8N2O13,mp-1197334,0.044700000000000184,-2.50352315,1.1136420372580682,"{23: 2, 1: 6, 6: 8, 7: 2, 8: 13}","[1, 6, 7, 8, 23]",166872813232,V2H6C8N2O13
K4Tc2H6C8O21,mp-722674,0.1943,-0.15007511,0.1286357109146392,"{19: 4, 43: 2, 1: 6, 6: 8, 8: 21}","[1, 6, 8, 19, 43]",1668821194432,K4Tc2H6C8O21
Cr4H67C20(NO)16,mp-706251,1.1999,-1.41610187,0.32229338997460477,"{24: 4, 1: 67, 6: 20, 7: 16, 8: 16}","[1, 6, 7, 8, 24]",167620716816244,Cr4H67C20N16O16
Na2Co2Si8H72C24N4O,mp-1194231,0.2744,0.29431561,0.10950501529242462,"{11: 2, 27: 2, 14: 8, 1: 72, 6: 24, 7: 4, 8: 1}","[1, 6, 7, 8, 11, 14, 27]",1726247481112148272,Na2Co2Si8H72C24N4O1
Si10BiTe2H73C25,mp-1204603,1.9396,-0.58510439,0.056657177083096144,"{14: 10, 83: 1, 52: 2, 1: 73, 6: 25}","[1, 6, 14, 52, 83]",1736251410522831,Si10Bi1Te2H73C25
K3Be2H7C3O13,mp-1202397,4.6287,-0.8993862,0.01616594843749386,"{19: 3, 4: 2, 1: 7, 6: 3, 8: 13}","[1, 4, 6, 8, 19]",174263813193,K3Be2H7C3O13
BH7C2N4OF4,mp-1198829,5.0921,3.25230335,0.014602032850873137,"{5: 1, 1: 7, 6: 2, 7: 4, 8: 1, 9: 4}","[1, 5, 6, 7, 8, 9]",175162748194,B1H7C2N4O1F4
B3H7CO,mp-696308,4.0448,-3.25141263,0.29355524679976064,"{5: 3, 1: 7, 6: 1, 8: 1}","[1, 5, 6, 8]",17536181,B3H7C1O1
B3H7C2S,mp-1194767,3.6437,-0.57815195,0.147178472132941,"{5: 3, 1: 7, 6: 2, 16: 1}","[1, 5, 6, 16]",175362161,B3H7C2S1
La2B5H7(C2O7)2,mp-1195834,4.326,4.69047469,0.053172227093739366,"{57: 2, 5: 5, 1: 7, 6: 4, 8: 14}","[1, 5, 6, 8, 57]",175564814572,La2B5H7C4O14
Al3P3H7CNO13,mp-1202100,5.2306,0.60353056,0.03373313306122672,"{13: 3, 15: 3, 1: 7, 6: 1, 7: 1, 8: 13}","[1, 6, 7, 8, 13, 15]",176171813133153,Al3P3H7C1N1O13
PH7CN2O5,mp-542041,5.4212,-0.77852389,0.0251850804166871,"{15: 1, 1: 7, 6: 1, 7: 2, 8: 5}","[1, 6, 7, 8, 15]",17617285151,P1H7C1N2O5
H7C(NO)3,mp-557248,3.2517,-0.78125317,0.4005563969642818,"{1: 7, 6: 1, 7: 3, 8: 3}","[1, 6, 7, 8]",17617383,H7C1N3O3
PH7CN3O3F,mp-555080,5.0802,-1.04114046,0.013060924440129185,"{15: 1, 1: 7, 6: 1, 7: 3, 8: 3, 9: 1}","[1, 6, 7, 8, 9, 15]",1761738391151,P1H7C1N3O3F1
H7CSN3O4,mp-735063,5.313599999999999,-0.81350379,0.042681225359067376,"{1: 7, 6: 1, 16: 1, 7: 3, 8: 4}","[1, 6, 7, 8, 16]",17617384161,H7C1S1N3O4
H7CSeN3O4,mp-1200356,3.5161,2.15448175,0.19677856782226488,"{1: 7, 6: 1, 34: 1, 7: 3, 8: 4}","[1, 6, 7, 8, 34]",17617384341,H7C1Se1N3O4
ZrH7CN4F5,mp-722270,4.319,-1.36361489,0.05479979057874296,"{40: 1, 1: 7, 6: 1, 7: 4, 9: 5}","[1, 6, 7, 9, 40]",17617495401,Zr1H7C1N4F5
AgH7CN8O7,mp-1204011,2.2819000000000003,1.51609601,0.4493994665104166,"{47: 1, 1: 7, 6: 1, 7: 8, 8: 7}","[1, 6, 7, 8, 47]",17617887471,Ag1H7C1N8O7
SrPH7CO6,mp-1203131,0.48009999999999997,-1.2525192,0.38514718414062976,"{38: 1, 15: 1, 1: 7, 6: 1, 8: 6}","[1, 6, 8, 15, 38]",176186151381,Sr1P1H7C1O6
AlH7C2SCl4,mp-1198123,4.6652000000000005,-1.96336114,0.0,"{13: 1, 1: 7, 6: 2, 16: 1, 17: 4}","[1, 6, 13, 16, 17]",1762131161174,Al1H7C2S1Cl4
H7C2SNO,mp-1197067,4.5829,2.3888981,0.2878755175833332,"{1: 7, 6: 2, 16: 1, 7: 1, 8: 1}","[1, 6, 7, 8, 16]",17627181161,H7C2S1N1O1
H7C2SNO2,mp-1205193,5.5432,-1.51175706,0.23532165169231156,"{1: 7, 6: 2, 16: 1, 7: 1, 8: 2}","[1, 6, 7, 8, 16]",17627182161,H7C2S1N1O2
H7C2SN4Cl,mp-1212759,3.0664,2.55123778,0.034892530952379985,"{1: 7, 6: 2, 16: 1, 7: 4, 17: 1}","[1, 6, 7, 16, 17]",176274161171,H7C2S1N4Cl1
H7C2SBrN4,mp-1212553,3.2492,2.10545514,0.037566269930610297,"{1: 7, 6: 2, 16: 1, 35: 1, 7: 4}","[1, 6, 7, 16, 35]",176274161351,H7C2S1Br1N4
H7C2SIN4,mp-1212742,2.8495,1.73481237,0.03377288926394684,"{1: 7, 6: 2, 16: 1, 53: 1, 7: 4}","[1, 6, 7, 16, 53]",176274161531,H7C2S1I1N4
H7C2S2N4ClO3,mp-1201712,3.6582,-0.59711295,0.2181167786062943,"{1: 7, 6: 2, 16: 2, 7: 4, 17: 1, 8: 3}","[1, 6, 7, 8, 16, 17]",17627483162171,H7C2S2N4Cl1O3
H7C2SN4ClO4,mp-1204845,3.4124,2.38320059,0.477514384942209,"{1: 7, 6: 2, 16: 1, 7: 4, 17: 1, 8: 4}","[1, 6, 7, 8, 16, 17]",17627484161171,H7C2S1N4Cl1O4
ZnPH7C2N4O5,mp-699466,4.0413,0.29699306,0.01841935456945798,"{30: 1, 15: 1, 1: 7, 6: 2, 7: 4, 8: 5}","[1, 6, 7, 8, 15, 30]",17627485151301,Zn1P1H7C2N4O5
H7C2N4ClO5,mp-1202388,4.9342,-0.93068568,0.43007644688596347,"{1: 7, 6: 2, 7: 4, 17: 1, 8: 5}","[1, 6, 7, 8, 17]",17627485171,H7C2N4Cl1O5
H7C2SN5,mp-1196757,2.2168,2.52129293,0.171070263511111,"{1: 7, 6: 2, 16: 1, 7: 5}","[1, 6, 7, 16]",176275161,H7C2S1N5
H7C2SN5O3,mp-1212675,2.9961,1.98427831,0.205386976270459,"{1: 7, 6: 2, 16: 1, 7: 5, 8: 3}","[1, 6, 7, 8, 16]",17627583161,H7C2S1N5O3
H7C2N7O6,mp-1200776,2.2437,-1.48974117,0.43996769806818126,"{1: 7, 6: 2, 7: 7, 8: 6}","[1, 6, 7, 8]",17627786,H7C2N7O6
H7C2N9O2,mp-1212710,2.3496,0.87449181,0.2427800842361112,"{1: 7, 6: 2, 7: 9, 8: 2}","[1, 6, 7, 8]",17627982,H7C2N9O2
SnH7C2SeClO3,mp-1192921,4.4319999999999995,-0.83820455,0.32118897179166694,"{50: 1, 1: 7, 6: 2, 34: 1, 17: 1, 8: 3}","[1, 6, 8, 17, 34, 50]",176283171341501,Sn1H7C2Se1Cl1O3
Na3H7(CO3)2,mp-1210530,0.6713,1.20575451,0.4327592471643422,"{11: 3, 1: 7, 6: 2, 8: 6}","[1, 6, 8, 11]",176286113,Na3H7C2O6
GdH7C2SO8,mp-559733,2.8774,-0.11840815,0.0860048241541298,"{64: 1, 1: 7, 6: 2, 16: 1, 8: 8}","[1, 6, 8, 16, 64]",176288161641,Gd1H7C2S1O8
SnH7C3NO5F,mp-1199360,3.0788,0.25285393,0.11239589274305128,"{50: 1, 1: 7, 6: 3, 7: 1, 8: 5, 9: 1}","[1, 6, 7, 8, 9, 50]",1763718591501,Sn1H7C3N1O5F1