formula,material_id,band_gap,efermi,energy_above_hull,comp_atoms,sorted_keys_comp_atoms,comp_number,new_formula
CaBiCO4F,mp-556666,2.2248,3.16069636,0.0051668882812432315,"{20: 1, 83: 1, 6: 1, 8: 4, 9: 1}","[6, 8, 9, 20, 83]",618491201831,Ca1Bi1C1O4F1
NpCO4,mp-1191563,0.4504999999999999,3.75078489,0.3527271945833359,"{93: 1, 6: 1, 8: 4}","[6, 8, 93]",6184931,Np1C1O4
RbHfC(OF)4,mp-1204072,2.193,-2.03677625,0.23020644598485696,"{37: 1, 72: 1, 6: 1, 8: 4, 9: 4}","[6, 8, 9, 37, 72]",618494371721,Rb1Hf1C1O4F4
NaAlCO5,mp-1189078,0.0,-0.52590071,0.25824403318181766,"{11: 1, 13: 1, 6: 1, 8: 5}","[6, 8, 11, 13]",6185111131,Na1Al1C1O5
NaNpCO5,mp-608031,0.0376000000000003,4.08292374,0.0,"{11: 1, 93: 1, 6: 1, 8: 5}","[6, 8, 11, 93]",6185111931,Na1Np1C1O5
Na2CO5,mp-675271,0.21229999999999993,-0.91985847,0.33286007036458365,"{11: 2, 6: 1, 8: 5}","[6, 8, 11]",6185112,Na2C1O5
Na3CO5,mp-1173800,0.6024,-1.00850909,0.30415021976851797,"{11: 3, 6: 1, 8: 5}","[6, 8, 11]",6185113,Na3C1O5
Na5CoCO5,mp-1221135,1.3959,1.33160016,0.03753726711805783,"{11: 5, 27: 1, 6: 1, 8: 5}","[6, 8, 11, 27]",6185115271,Na5Co1C1O5
Mg2CO5,mp-1200429,0.10360000000000014,0.91377568,0.26291672656250054,"{12: 2, 6: 1, 8: 5}","[6, 8, 12]",6185122,Mg2C1O5
KAlCO5,mp-1211756,0.0,-0.5853113,0.23643444661931756,"{19: 1, 13: 1, 6: 1, 8: 5}","[6, 8, 13, 19]",6185131191,K1Al1C1O5
KPuCO5,mp-561433,0.4342999999999999,3.33353649,0.0,"{19: 1, 94: 1, 6: 1, 8: 5}","[6, 8, 19, 94]",6185191941,K1Pu1C1O5
CaTeCO5,mp-559128,3.8456,2.5521271,0.00023844093749580964,"{20: 1, 52: 1, 6: 1, 8: 5}","[6, 8, 20, 52]",6185201521,Ca1Te1C1O5
La2CO5,mp-555349,3.9487000000000005,4.34912043,0.0,"{57: 2, 6: 1, 8: 5}","[6, 8, 57]",6185572,La2C1O5
Nd2CO5,mp-1173626,3.9783999999999997,6.34995119,0.0,"{60: 2, 6: 1, 8: 5}","[6, 8, 60]",6185602,Nd2C1O5
Dy2CO5,mp-1225362,4.4556,1.97614427,0.0,"{66: 2, 6: 1, 8: 5}","[6, 8, 66]",6185662,Dy2C1O5
Mn26As18CO57,mp-1223358,0.0,2.3999839,0.0,"{25: 26, 33: 18, 6: 1, 8: 57}","[6, 8, 25, 33]",6185725263318,Mn26As18C1O57
Tl4CO5,mp-1238269,1.5392,0.02195073,0.2064139478333349,"{81: 4, 6: 1, 8: 5}","[6, 8, 81]",6185814,Tl4C1O5
Bi2CO5,mp-556210,2.2747,4.24221591,0.0,"{83: 2, 6: 1, 8: 5}","[6, 8, 83]",6185832,Bi2C1O5
UCO5,mp-29761,2.2864,0.55543224,0.00048752142856933744,"{92: 1, 6: 1, 8: 5}","[6, 8, 92]",6185921,U1C1O5
Na2CO6,mp-1221738,0.0,-0.16321261,0.2246016136574056,"{11: 2, 6: 1, 8: 6}","[6, 8, 11]",6186112,Na2C1O6
MgCO6,mp-1198523,1.9396,1.33194212,0.4285069015625016,"{12: 1, 6: 1, 8: 6}","[6, 8, 12]",6186121,Mg1C1O6
Mg2CClO6,mp-1199407,0.0014000000000000679,-1.21050627,0.5063996504062498,"{12: 2, 6: 1, 17: 1, 8: 6}","[6, 8, 12, 17]",6186122171,Mg2C1Cl1O6
KAlCO6,mp-1200100,0.11219999999999997,-0.1632664,0.4222862136616188,"{19: 1, 13: 1, 6: 1, 8: 6}","[6, 8, 13, 19]",6186131191,K1Al1C1O6
Sn2PCO6,mp-559291,2.2169999999999996,2.22404359,0.028376656875003903,"{50: 2, 15: 1, 6: 1, 8: 6}","[6, 8, 15, 50]",6186151502,Sn2P1C1O6
ZrP2CO6,mp-725603,0.2116,-0.26023471,0.3920869505142779,"{40: 1, 15: 2, 6: 1, 8: 6}","[6, 8, 15, 40]",6186152401,Zr1P2C1O6
Pb2C(SO3)2,mp-1196932,2.7190000000000003,6.08565356,0.06596976566666601,"{82: 2, 6: 1, 16: 2, 8: 6}","[6, 8, 16, 82]",6186162822,Pb2C1S2O6
K4CO6,mp-675766,0.1431,0.03895761,0.32622172977272434,"{19: 4, 6: 1, 8: 6}","[6, 8, 19]",6186194,K4C1O6
Rb4CO6,mp-674325,0.42699999999999994,-0.39324515,0.3401978377272732,"{37: 4, 6: 1, 8: 6}","[6, 8, 37]",6186374,Rb4C1O6
Pb2CO6,mp-1079073,0.0,0.76237381,0.57842902111111,"{82: 2, 6: 1, 8: 6}","[6, 8, 82]",6186822,Pb2C1O6
UCO6,mp-1200269,0.6155,-1.40320935,0.2945873178125016,"{92: 1, 6: 1, 8: 6}","[6, 8, 92]",6186921,U1C1O6
K2CS2(O3F)2,mp-559393,5.5367,-1.06652043,0.17130915643356381,"{19: 2, 6: 1, 16: 2, 8: 6, 9: 2}","[6, 8, 9, 16, 19]",618692162192,K2C1S2O6F2
AgCS2(O2F)3,mp-1200256,3.306,2.72554432,0.1579048960576932,"{47: 1, 6: 1, 16: 2, 8: 6, 9: 3}","[6, 8, 9, 16, 47]",618693162471,Ag1C1S2O6F3
NaSiPCO7,mp-1101475,5.337000000000001,0.28434364,0.08857879727273232,"{11: 1, 14: 1, 15: 1, 6: 1, 8: 7}","[6, 8, 11, 14, 15]",6187111141151,Na1Si1P1C1O7
NaVSiCO7,mp-772044,1.6175000000000002,-0.62548873,0.08967052015151822,"{11: 1, 23: 1, 14: 1, 6: 1, 8: 7}","[6, 8, 11, 14, 23]",6187111141231,Na1V1Si1C1O7
NaSiSbCO7,mp-772595,2.7702,0.33379997,0.06103446560606507,"{11: 1, 14: 1, 51: 1, 6: 1, 8: 7}","[6, 8, 11, 14, 51]",6187111141511,Na1Si1Sb1C1O7
NaTiPCO7,mp-767556,2.6902,-0.52824391,0.024135468497472168,"{11: 1, 22: 1, 15: 1, 6: 1, 8: 7}","[6, 8, 11, 15, 22]",6187111151221,Na1Ti1P1C1O7
NaVPCO7,mp-769564,1.2233999999999998,0.11496651,0.03670100545453803,"{11: 1, 23: 1, 15: 1, 6: 1, 8: 7}","[6, 8, 11, 15, 23]",6187111151231,Na1V1P1C1O7
NaCrPCO7,mp-769599,0.4532,-0.47136093,0.05642303357955125,"{11: 1, 24: 1, 15: 1, 6: 1, 8: 7}","[6, 8, 11, 15, 24]",6187111151241,Na1Cr1P1C1O7
NaMnPCO7,mp-761016,1.3064,-0.20655134,0.002042128409090793,"{11: 1, 25: 1, 15: 1, 6: 1, 8: 7}","[6, 8, 11, 15, 25]",6187111151251,Na1Mn1P1C1O7
NaCoPCO7,mp-1101670,0.007800000000000029,-0.72635374,0.056746473806814635,"{11: 1, 27: 1, 15: 1, 6: 1, 8: 7}","[6, 8, 11, 15, 27]",6187111151271,Na1Co1P1C1O7
NaGePCO7,mp-768143,3.2699,0.06692017,0.0640876403030326,"{11: 1, 32: 1, 15: 1, 6: 1, 8: 7}","[6, 8, 11, 15, 32]",6187111151321,Na1Ge1P1C1O7
NaZrPCO7,mp-768152,4.0075,-0.85834658,0.038997810997477345,"{11: 1, 40: 1, 15: 1, 6: 1, 8: 7}","[6, 8, 11, 15, 40]",6187111151401,Na1Zr1P1C1O7
NaSnPCO7,mp-768209,3.0149,0.71549488,0.025085609227268435,"{11: 1, 50: 1, 15: 1, 6: 1, 8: 7}","[6, 8, 11, 15, 50]",6187111151501,Na1Sn1P1C1O7
NaSbPCO7,mp-768121,0.0,1.22038516,0.10014999751137754,"{11: 1, 51: 1, 15: 1, 6: 1, 8: 7}","[6, 8, 11, 15, 51]",6187111151511,Na1Sb1P1C1O7
NaCePCO7,mp-767538,0.9844999999999999,-0.18124629,0.029361832784099207,"{11: 1, 58: 1, 15: 1, 6: 1, 8: 7}","[6, 8, 11, 15, 58]",6187111151581,Na1Ce1P1C1O7
NaPrPCO7,mp-767717,0.1574000000000001,-0.91310559,0.09980493727272766,"{11: 1, 59: 1, 15: 1, 6: 1, 8: 7}","[6, 8, 11, 15, 59]",6187111151591,Na1Pr1P1C1O7
NaNdPCO7,mp-767688,0.18589999999999995,-0.9317066,0.0951249631818154,"{11: 1, 60: 1, 15: 1, 6: 1, 8: 7}","[6, 8, 11, 15, 60]",6187111151601,Na1Nd1P1C1O7
NaHfPCO7,mp-767535,5.071,-0.48302265,0.050260616679294046,"{11: 1, 72: 1, 15: 1, 6: 1, 8: 7}","[6, 8, 11, 15, 72]",6187111151721,Na1Hf1P1C1O7
NaBiPCO7,mp-768122,0.0,-0.17146741,0.07022246329545645,"{11: 1, 83: 1, 15: 1, 6: 1, 8: 7}","[6, 8, 11, 15, 83]",6187111151831,Na1Bi1P1C1O7
NaVCSO7,mp-772183,1.7907000000000002,-0.0464108,0.08445266864233858,"{11: 1, 23: 1, 6: 1, 16: 1, 8: 7}","[6, 8, 11, 16, 23]",6187111161231,Na1V1C1S1O7
NaCrCSO7,mp-770829,2.266,-0.18471589,0.04597325227272986,"{11: 1, 24: 1, 6: 1, 16: 1, 8: 7}","[6, 8, 11, 16, 24]",6187111161241,Na1Cr1C1S1O7
NaCoCSO7,mp-770820,0.4798,-0.09356186,0.030786000530302893,"{11: 1, 27: 1, 6: 1, 16: 1, 8: 7}","[6, 8, 11, 16, 27]",6187111161271,Na1Co1C1S1O7
NaSbCSO7,mp-768656,3.8056,-0.10322037,0.03594830704545693,"{11: 1, 51: 1, 6: 1, 16: 1, 8: 7}","[6, 8, 11, 16, 51]",6187111161511,Na1Sb1C1S1O7
NaBiCSO7,mp-770332,3.7245,-0.37364256,0.04569218196969782,"{11: 1, 83: 1, 6: 1, 16: 1, 8: 7}","[6, 8, 11, 16, 83]",6187111161831,Na1Bi1C1S1O7
NaVAsCO7,mp-774241,2.0021999999999998,-0.76190142,0.05021177954544953,"{11: 1, 23: 1, 33: 1, 6: 1, 8: 7}","[6, 8, 11, 23, 33]",6187111231331,Na1V1As1C1O7
NaCrAsCO7,mp-773138,0.6733,-0.73650055,0.053284074405411275,"{11: 1, 24: 1, 33: 1, 6: 1, 8: 7}","[6, 8, 11, 24, 33]",6187111241331,Na1Cr1As1C1O7
NaMnAsCO7,mp-770900,1.0809,-0.99626289,0.015707460358590275,"{11: 1, 25: 1, 33: 1, 6: 1, 8: 7}","[6, 8, 11, 25, 33]",6187111251331,Na1Mn1As1C1O7
NaCoAsCO7,mp-772152,0.0,0.0235208,0.0436777980808154,"{11: 1, 27: 1, 33: 1, 6: 1, 8: 7}","[6, 8, 11, 27, 33]",6187111271331,Na1Co1As1C1O7
NaSnAsCO7,mp-772605,1.7495,0.17406604,0.026341233030305666,"{11: 1, 50: 1, 33: 1, 6: 1, 8: 7}","[6, 8, 11, 33, 50]",6187111331501,Na1Sn1As1C1O7
NaSbAsCO7,mp-768815,0.0,1.28999714,0.09836654363636654,"{11: 1, 51: 1, 33: 1, 6: 1, 8: 7}","[6, 8, 11, 33, 51]",6187111331511,Na1Sb1As1C1O7
NaBiAsCO7,mp-768996,0.0,-0.5721092,0.0728872875000075,"{11: 1, 83: 1, 33: 1, 6: 1, 8: 7}","[6, 8, 11, 33, 83]",6187111331831,Na1Bi1As1C1O7
Na2AlPCO7,mp-768146,5.0719,1.0857093,0.0,"{11: 2, 13: 1, 15: 1, 6: 1, 8: 7}","[6, 8, 11, 13, 15]",6187112131151,Na2Al1P1C1O7
Na2VSiCO7,mp-772154,1.6193,0.71040685,0.028426859548620342,"{11: 2, 23: 1, 14: 1, 6: 1, 8: 7}","[6, 8, 11, 14, 23]",6187112141231,Na2V1Si1C1O7
Na2CrSiCO7,mp-772121,0.8636000000000001,0.58392874,0.043058775995366894,"{11: 2, 24: 1, 14: 1, 6: 1, 8: 7}","[6, 8, 11, 14, 24]",6187112141241,Na2Cr1Si1C1O7
Na2MnSiCO7,mp-770912,0.736,0.70189141,0.026295848020835066,"{11: 2, 25: 1, 14: 1, 6: 1, 8: 7}","[6, 8, 11, 14, 25]",6187112141251,Na2Mn1Si1C1O7
Na2CoSiCO7,mp-771009,0.15629999999999988,1.0186816,0.07465189085647506,"{11: 2, 27: 1, 14: 1, 6: 1, 8: 7}","[6, 8, 11, 14, 27]",6187112141271,Na2Co1Si1C1O7
Na2SiSnCO7,mp-771774,3.0973999999999995,1.10192332,0.013933278298609686,"{11: 2, 14: 1, 50: 1, 6: 1, 8: 7}","[6, 8, 11, 14, 50]",6187112141501,Na2Si1Sn1C1O7
Na2SiSbCO7,mp-770978,0.0,2.86994684,0.08112007782118447,"{11: 2, 14: 1, 51: 1, 6: 1, 8: 7}","[6, 8, 11, 14, 51]",6187112141511,Na2Si1Sb1C1O7
Na2SiBiCO7,mp-771168,0.0,1.22245655,0.03603798526911017,"{11: 2, 14: 1, 83: 1, 6: 1, 8: 7}","[6, 8, 11, 14, 83]",6187112141831,Na2Si1Bi1C1O7
Na2ScPCO7,mp-767518,4.0815,0.48857394,0.0,"{11: 2, 21: 1, 15: 1, 6: 1, 8: 7}","[6, 8, 11, 15, 21]",6187112151211,Na2Sc1P1C1O7
Na2TiPCO7,mp-767550,0.1887000000000003,3.77033149,0.08055945881979465,"{11: 2, 22: 1, 15: 1, 6: 1, 8: 7}","[6, 8, 11, 15, 22]",6187112151221,Na2Ti1P1C1O7
Na2VPCO7,mp-770717,1.7865,1.14073901,0.0,"{11: 2, 23: 1, 15: 1, 6: 1, 8: 7}","[6, 8, 11, 15, 23]",6187112151231,Na2V1P1C1O7
Na2CrPCO7,mp-769616,2.6488,0.53886541,0.0,"{11: 2, 24: 1, 15: 1, 6: 1, 8: 7}","[6, 8, 11, 15, 24]",6187112151241,Na2Cr1P1C1O7
Na2MnPCO7,mp-780530,0.24269999999999992,0.91440841,0.0,"{11: 2, 25: 1, 15: 1, 6: 1, 8: 7}","[6, 8, 11, 15, 25]",6187112151251,Na2Mn1P1C1O7
Na2CoPCO7,mp-770988,0.8388000000000001,0.76314525,0.02732475322916894,"{11: 2, 27: 1, 15: 1, 6: 1, 8: 7}","[6, 8, 11, 15, 27]",6187112151271,Na2Co1P1C1O7
Na2GaPCO7,mp-768120,3.7817,0.69869114,0.0,"{11: 2, 31: 1, 15: 1, 6: 1, 8: 7}","[6, 8, 11, 15, 31]",6187112151311,Na2Ga1P1C1O7
Na2GePCO7,mp-768132,0.0,2.15192122,0.11297532953124545,"{11: 2, 32: 1, 15: 1, 6: 1, 8: 7}","[6, 8, 11, 15, 32]",6187112151321,Na2Ge1P1C1O7
Na2AsPCO7,mp-767546,3.979,0.6537201,0.010238826354162178,"{11: 2, 33: 1, 15: 1, 6: 1, 8: 7}","[6, 8, 11, 15, 33]",6187112151331,Na2As1P1C1O7
Na2PRuCO7,mp-767408,0.0,2.31568822,0.05938666854166463,"{11: 2, 15: 1, 44: 1, 6: 1, 8: 7}","[6, 8, 11, 15, 44]",6187112151441,Na2P1Ru1C1O7
Na2InPCO7,mp-767521,2.7683,1.3404557,0.0,"{11: 2, 49: 1, 15: 1, 6: 1, 8: 7}","[6, 8, 11, 15, 49]",6187112151491,Na2In1P1C1O7
Na2SnPCO7,mp-768137,0.0,2.87046103,0.05592638661458693,"{11: 2, 50: 1, 15: 1, 6: 1, 8: 7}","[6, 8, 11, 15, 50]",6187112151501,Na2Sn1P1C1O7
Na2SbPCO7,mp-768144,3.6837,1.33958058,0.0,"{11: 2, 51: 1, 15: 1, 6: 1, 8: 7}","[6, 8, 11, 15, 51]",6187112151511,Na2Sb1P1C1O7
Na2LaPCO7,mp-767533,3.8187000000000006,1.42596295,0.04912878385416786,"{11: 2, 57: 1, 15: 1, 6: 1, 8: 7}","[6, 8, 11, 15, 57]",6187112151571,Na2La1P1C1O7
Na2CePCO7,mp-1176428,0.21390000000000065,4.18331109,0.035307022673611854,"{11: 2, 58: 1, 15: 1, 6: 1, 8: 7}","[6, 8, 11, 15, 58]",6187112151581,Na2Ce1P1C1O7
Na2NdPCO7,mp-767606,4.3794,0.58259816,0.03277510000000028,"{11: 2, 60: 1, 15: 1, 6: 1, 8: 7}","[6, 8, 11, 15, 60]",6187112151601,Na2Nd1P1C1O7
Na2SmPCO7,mp-767523,4.4299,0.5792361,0.02731297690972312,"{11: 2, 62: 1, 15: 1, 6: 1, 8: 7}","[6, 8, 11, 15, 62]",6187112151621,Na2Sm1P1C1O7
Na2TbPCO7,mp-767529,4.647,0.5509512,0.02748302524305224,"{11: 2, 65: 1, 15: 1, 6: 1, 8: 7}","[6, 8, 11, 15, 65]",6187112151651,Na2Tb1P1C1O7
Na2DyPCO7,mp-768141,4.5321,0.46332709,0.024735364409721683,"{11: 2, 66: 1, 15: 1, 6: 1, 8: 7}","[6, 8, 11, 15, 66]",6187112151661,Na2Dy1P1C1O7
Na2HoPCO7,mp-768129,4.5615,0.46777151,0.02393989357638482,"{11: 2, 67: 1, 15: 1, 6: 1, 8: 7}","[6, 8, 11, 15, 67]",6187112151671,Na2Ho1P1C1O7
Na2ErPCO7,mp-767573,4.3992,0.415071,0.026494963576387143,"{11: 2, 68: 1, 15: 1, 6: 1, 8: 7}","[6, 8, 11, 15, 68]",6187112151681,Na2Er1P1C1O7
Na2TmPCO7,mp-767566,4.2238999999999995,0.42277808,0.023691965659722314,"{11: 2, 69: 1, 15: 1, 6: 1, 8: 7}","[6, 8, 11, 15, 69]",6187112151691,Na2Tm1P1C1O7
Na2LuPCO7,mp-767562,4.745299999999999,0.38717738,0.014890425243057948,"{11: 2, 71: 1, 15: 1, 6: 1, 8: 7}","[6, 8, 11, 15, 71]",6187112151711,Na2Lu1P1C1O7
Na2TlPCO7,mp-756769,1.1597000000000002,1.2635312,0.0,"{11: 2, 81: 1, 15: 1, 6: 1, 8: 7}","[6, 8, 11, 15, 81]",6187112151811,Na2Tl1P1C1O7
Na2BiPCO7,mp-768140,3.4772000000000003,1.01353598,0.0,"{11: 2, 83: 1, 15: 1, 6: 1, 8: 7}","[6, 8, 11, 15, 83]",6187112151831,Na2Bi1P1C1O7
Na2VCSO7,mp-771954,2.643,1.93664954,0.0522710715933723,"{11: 2, 23: 1, 6: 1, 16: 1, 8: 7}","[6, 8, 11, 16, 23]",6187112161231,Na2V1C1S1O7
Na2CrCSO7,mp-773178,2.3779,1.69549648,0.05363364579624186,"{11: 2, 24: 1, 6: 1, 16: 1, 8: 7}","[6, 8, 11, 16, 24]",6187112161241,Na2Cr1C1S1O7
Na2MnCSO7,mp-771824,2.8265,1.20482933,0.03671986875000233,"{11: 2, 25: 1, 6: 1, 16: 1, 8: 7}","[6, 8, 11, 16, 25]",6187112161251,Na2Mn1C1S1O7
Na2CoCSO7,mp-772117,2.2283,1.02128701,0.03426643583331579,"{11: 2, 27: 1, 6: 1, 16: 1, 8: 7}","[6, 8, 11, 16, 27]",6187112161271,Na2Co1C1S1O7
Na2SnCSO7,mp-768867,3.4883,1.42648987,0.04897745224826622,"{11: 2, 50: 1, 6: 1, 16: 1, 8: 7}","[6, 8, 11, 16, 50]",6187112161501,Na2Sn1C1S1O7
Na2VAsCO7,mp-771012,2.1657,0.86672645,0.0,"{11: 2, 23: 1, 33: 1, 6: 1, 8: 7}","[6, 8, 11, 23, 33]",6187112231331,Na2V1As1C1O7
Na2CrAsCO7,mp-771169,2.4049,0.13733058,0.0,"{11: 2, 24: 1, 33: 1, 6: 1, 8: 7}","[6, 8, 11, 24, 33]",6187112241331,Na2Cr1As1C1O7
Na2MnAsCO7,mp-773119,0.6423,0.62569342,0.0,"{11: 2, 25: 1, 33: 1, 6: 1, 8: 7}","[6, 8, 11, 25, 33]",6187112251331,Na2Mn1As1C1O7
Na2CoAsCO7,mp-772664,0.8344999999999999,0.59449391,0.0,"{11: 2, 27: 1, 33: 1, 6: 1, 8: 7}","[6, 8, 11, 27, 33]",6187112271331,Na2Co1As1C1O7
Na2SnAsCO7,mp-772495,0.0,2.81945613,0.07363255053818829,"{11: 2, 50: 1, 33: 1, 6: 1, 8: 7}","[6, 8, 11, 33, 50]",6187112331501,Na2Sn1As1C1O7
Na2SbAsCO7,mp-771166,3.2260999999999997,1.14708217,0.008373837204862511,"{11: 2, 51: 1, 33: 1, 6: 1, 8: 7}","[6, 8, 11, 33, 51]",6187112331511,Na2Sb1As1C1O7
Na2BiAsCO7,mp-1176418,3.4802999999999997,0.49004116,0.0,"{11: 2, 83: 1, 33: 1, 6: 1, 8: 7}","[6, 8, 11, 33, 83]",6187112331831,Na2Bi1As1C1O7
Na3MgPCO7,mp-768154,4.2436,1.30329288,0.0,"{11: 3, 12: 1, 15: 1, 6: 1, 8: 7}","[6, 8, 11, 12, 15]",6187113121151,Na3Mg1P1C1O7
Na3VSiCO7,mp-770947,1.5607000000000002,2.64842587,0.0,"{11: 3, 23: 1, 14: 1, 6: 1, 8: 7}","[6, 8, 11, 14, 23]",6187113141231,Na3V1Si1C1O7
Na3CrSiCO7,mp-771013,2.4022,1.93437052,0.002806922243578036,"{11: 3, 24: 1, 14: 1, 6: 1, 8: 7}","[6, 8, 11, 14, 24]",6187113141241,Na3Cr1Si1C1O7
Na3MnSiCO7,mp-772101,1.1273,1.75963851,0.0,"{11: 3, 25: 1, 14: 1, 6: 1, 8: 7}","[6, 8, 11, 14, 25]",6187113141251,Na3Mn1Si1C1O7
Na3CoSiCO7,mp-771041,1.2908,1.4537449,0.05606038059615415,"{11: 3, 27: 1, 14: 1, 6: 1, 8: 7}","[6, 8, 11, 14, 27]",6187113141271,Na3Co1Si1C1O7
Na3SiSnCO7,mp-771250,0.0,4.23453392,0.06438644690704898,"{11: 3, 14: 1, 50: 1, 6: 1, 8: 7}","[6, 8, 11, 14, 50]",6187113141501,Na3Si1Sn1C1O7
Na3SiSbCO7,mp-772713,3.008,3.09371979,0.03311482283653877,"{11: 3, 14: 1, 51: 1, 6: 1, 8: 7}","[6, 8, 11, 14, 51]",6187113141511,Na3Si1Sb1C1O7
Na3SiBiCO7,mp-768663,3.2499000000000002,2.25470078,0.0,"{11: 3, 14: 1, 83: 1, 6: 1, 8: 7}","[6, 8, 11, 14, 83]",6187113141831,Na3Si1Bi1C1O7
Na3CaPCO7,mp-767552,4.1204,0.99582656,0.0,"{11: 3, 20: 1, 15: 1, 6: 1, 8: 7}","[6, 8, 11, 15, 20]",6187113151201,Na3Ca1P1C1O7
Na3VPCO7,mp-769592,2.1544,3.28765715,0.012394549739576988,"{11: 3, 23: 1, 15: 1, 6: 1, 8: 7}","[6, 8, 11, 15, 23]",6187113151231,Na3V1P1C1O7
Na3CrPCO7,mp-769634,2.4999000000000002,2.83992351,0.011956742636210826,"{11: 3, 24: 1, 15: 1, 6: 1, 8: 7}","[6, 8, 11, 15, 24]",6187113151241,Na3Cr1P1C1O7
Na3MnPCO7,mp-19261,2.0790999999999995,2.52992476,0.0,"{11: 3, 25: 1, 15: 1, 6: 1, 8: 7}","[6, 8, 11, 15, 25]",6187113151251,Na3Mn1P1C1O7
Na3CoPCO7,mp-770948,2.8697,1.6181295,0.0,"{11: 3, 27: 1, 15: 1, 6: 1, 8: 7}","[6, 8, 11, 15, 27]",6187113151271,Na3Co1P1C1O7
Na3ZnPCO7,mp-767545,3.8113,1.17097511,0.00041443849359090734,"{11: 3, 30: 1, 15: 1, 6: 1, 8: 7}","[6, 8, 11, 15, 30]",6187113151301,Na3Zn1P1C1O7
Na3GePCO7,mp-756494,4.187900000000001,1.25980941,0.06655590722756433,"{11: 3, 32: 1, 15: 1, 6: 1, 8: 7}","[6, 8, 11, 15, 32]",6187113151321,Na3Ge1P1C1O7
Na3SrPCO7,mp-767431,4.052899999999999,0.79903253,0.009613523269229596,"{11: 3, 38: 1, 15: 1, 6: 1, 8: 7}","[6, 8, 11, 15, 38]",6187113151381,Na3Sr1P1C1O7
Na3CdPCO7,mp-767430,3.1961,0.95422185,0.0,"{11: 3, 48: 1, 15: 1, 6: 1, 8: 7}","[6, 8, 11, 15, 48]",6187113151481,Na3Cd1P1C1O7
Na3SnPCO7,mp-757172,3.1036000000000006,2.80115139,0.03765059184294994,"{11: 3, 50: 1, 15: 1, 6: 1, 8: 7}","[6, 8, 11, 15, 50]",6187113151501,Na3Sn1P1C1O7
Na3TlPCO7,mp-768155,0.0,2.45057523,0.036959213915602085,"{11: 3, 81: 1, 15: 1, 6: 1, 8: 7}","[6, 8, 11, 15, 81]",6187113151811,Na3Tl1P1C1O7
Na3VAsCO7,mp-771270,1.2654999999999994,3.01661155,0.045786530229695366,"{11: 3, 23: 1, 33: 1, 6: 1, 8: 7}","[6, 8, 11, 23, 33]",6187113231331,Na3V1As1C1O7
Na3CrAsCO7,mp-771038,1.5635000000000003,2.57722621,0.036489923787388356,"{11: 3, 24: 1, 33: 1, 6: 1, 8: 7}","[6, 8, 11, 24, 33]",6187113241331,Na3Cr1As1C1O7
Na3MnAsCO7,mp-771035,2.1050000000000004,1.7084417,0.0,"{11: 3, 25: 1, 33: 1, 6: 1, 8: 7}","[6, 8, 11, 25, 33]",6187113251331,Na3Mn1As1C1O7
Na3CoAsCO7,mp-773177,2.6166,1.55607565,0.0,"{11: 3, 27: 1, 33: 1, 6: 1, 8: 7}","[6, 8, 11, 27, 33]",6187113271331,Na3Co1As1C1O7
Na3SnAsCO7,mp-770646,2.2552,2.54213905,0.07958573839743543,"{11: 3, 50: 1, 33: 1, 6: 1, 8: 7}","[6, 8, 11, 33, 50]",6187113331501,Na3Sn1As1C1O7
Na3BiAsCO7,mp-754871,0.34330000000000016,3.35582432,0.09652927391025035,"{11: 3, 83: 1, 33: 1, 6: 1, 8: 7}","[6, 8, 11, 33, 83]",6187113331831,Na3Bi1As1C1O7
K3MgPCO7,mp-768670,4.4383,0.66761304,0.004051285384613301,"{19: 3, 12: 1, 15: 1, 6: 1, 8: 7}","[6, 8, 12, 15, 19]",6187121151193,K3Mg1P1C1O7
Mg2CClO7,mp-1224591,9.999999999998899e-05,-0.38032317,0.5228624287594714,"{12: 2, 6: 1, 17: 1, 8: 7}","[6, 8, 12, 17]",6187122171,Mg2C1Cl1O7
K2AlPCO7,mp-767417,4.9518,0.41368992,0.032006056919192005,"{19: 2, 13: 1, 15: 1, 6: 1, 8: 7}","[6, 8, 13, 15, 19]",6187131151192,K2Al1P1C1O7
Al6CO7,mp-1228266,0.0,8.24490455,0.25316572750000077,"{13: 6, 6: 1, 8: 7}","[6, 8, 13]",6187136,Al6C1O7
KSiPCO7,mp-772843,5.168,0.29834264,0.08243690060605946,"{19: 1, 14: 1, 15: 1, 6: 1, 8: 7}","[6, 8, 14, 15, 19]",6187141151191,K1Si1P1C1O7
KTiPCO7,mp-772844,2.3913,-0.82639553,0.03190585920454758,"{19: 1, 22: 1, 15: 1, 6: 1, 8: 7}","[6, 8, 15, 19, 22]",6187151191221,K1Ti1P1C1O7
KVPCO7,mp-755407,1.58,-0.63721848,0.024138210454541564,"{19: 1, 23: 1, 15: 1, 6: 1, 8: 7}","[6, 8, 15, 19, 23]",6187151191231,K1V1P1C1O7
KCrPCO7,mp-1178159,0.8471,-0.84246837,0.04395096787879016,"{19: 1, 24: 1, 15: 1, 6: 1, 8: 7}","[6, 8, 15, 19, 24]",6187151191241,K1Cr1P1C1O7
KMnPCO7,mp-773432,0.48140000000000005,-0.90330448,0.0001804644696914437,"{19: 1, 25: 1, 15: 1, 6: 1, 8: 7}","[6, 8, 15, 19, 25]",6187151191251,K1Mn1P1C1O7
KCoPCO7,mp-773502,0.0,-0.13728179,0.030420439545457256,"{19: 1, 27: 1, 15: 1, 6: 1, 8: 7}","[6, 8, 15, 19, 27]",6187151191271,K1Co1P1C1O7
KGePCO7,mp-754175,3.2424,-0.41253446,0.039840428636361835,"{19: 1, 32: 1, 15: 1, 6: 1, 8: 7}","[6, 8, 15, 19, 32]",6187151191321,K1Ge1P1C1O7
KZrPCO7,mp-757002,3.8916000000000004,-0.95981495,0.031959209318179305,"{19: 1, 40: 1, 15: 1, 6: 1, 8: 7}","[6, 8, 15, 19, 40]",6187151191401,K1Zr1P1C1O7
KNbPCO7,mp-767415,0.4433,1.53786699,0.12626652957644513,"{19: 1, 41: 1, 15: 1, 6: 1, 8: 7}","[6, 8, 15, 19, 41]",6187151191411,K1Nb1P1C1O7
KSnPCO7,mp-772809,2.4247,0.13440406,0.029899058068179052,"{19: 1, 50: 1, 15: 1, 6: 1, 8: 7}","[6, 8, 15, 19, 50]",6187151191501,K1Sn1P1C1O7