formula,material_id,band_gap,efermi,energy_above_hull,comp_atoms,sorted_keys_comp_atoms,comp_number,new_formula
Ca5As3CO12,mp-1214089,0.7066000000000003,4.33666554,0.3107758083503409,"{20: 5, 33: 3, 6: 1, 8: 12}","[6, 8, 20, 33]",61812205333,Ca5As3C1O12
Si4CO13,mp-1209673,1.077,-0.32229852,0.8029003685648162,"{14: 4, 6: 1, 8: 13}","[6, 8, 14]",61813144,Si4C1O13
Sr5Mn4CO13,mp-1218639,0.6452,2.74093911,0.0,"{38: 5, 25: 4, 6: 1, 8: 13}","[6, 8, 25, 38]",61813254385,Sr5Mn4C1O13
Si8HgC18,mp-1219839,0.0,0.6841809,1.3809155295701743,"{14: 8, 80: 1, 6: 18}","[6, 14, 80]",618148801,Si8Hg1C18
Na3CaAl3Si3CO15,mp-1253229,1.8002,1.47425374,0.301646252836564,"{11: 3, 20: 1, 13: 3, 14: 3, 6: 1, 8: 15}","[6, 8, 11, 13, 14, 20]",61815113133143201,Na3Ca1Al3Si3C1O15
PtCI2O,mp-558381,1.5982,0.46534536,0.0880793277500036,"{78: 1, 6: 1, 53: 2, 8: 1}","[6, 8, 53, 78]",6181532781,Pt1C1I2O1
LaCO,mp-27311,2.7847999999999997,4.65997362,0.05424139055555699,"{57: 1, 6: 1, 8: 1}","[6, 8, 57]",6181571,La1C1O1
CeCO,mp-1206355,0.0,7.40918781,0.06049103166666292,"{58: 1, 6: 1, 8: 1}","[6, 8, 58]",6181581,Ce1C1O1
NaMg14CO16,mp-1034419,0.0,5.47797692,0.2858579790657556,"{11: 1, 12: 14, 6: 1, 8: 16}","[6, 8, 11, 12]",618161111214,Na1Mg14C1O16
Mg14AlCO16,mp-1036461,0.4170999999999996,6.42787891,0.2500098999804683,"{12: 14, 13: 1, 6: 1, 8: 16}","[6, 8, 12, 13]",618161214131,Mg14Al1C1O16
Mg14SiCO16,mp-1034615,0.2016,7.98488259,0.3291652932031246,"{12: 14, 14: 1, 6: 1, 8: 16}","[6, 8, 12, 14]",618161214141,Mg14Si1C1O16
KMg14CO16,mp-1035674,0.0,6.83012977,0.34477114527343744,"{19: 1, 12: 14, 6: 1, 8: 16}","[6, 8, 12, 19]",618161214191,K1Mg14C1O16
CaMg14CO16,mp-1036231,1.0687999999999995,4.62344959,0.27074633050781305,"{20: 1, 12: 14, 6: 1, 8: 16}","[6, 8, 12, 20]",618161214201,Ca1Mg14C1O16
Mg14TiCO16,mp-1034112,0.0,7.35694345,0.2914676982812505,"{12: 14, 22: 1, 6: 1, 8: 16}","[6, 8, 12, 22]",618161214221,Mg14Ti1C1O16
Mg14VCO16,mp-1034537,0.04190000000000005,6.74545719,0.2521343473502604,"{12: 14, 23: 1, 6: 1, 8: 16}","[6, 8, 12, 23]",618161214231,Mg14V1C1O16
Mg14CrCO16,mp-1033792,0.0,6.83282375,0.2534068688085931,"{12: 14, 24: 1, 6: 1, 8: 16}","[6, 8, 12, 24]",618161214241,Mg14Cr1C1O16
Mg14MnCO16,mp-1036119,0.010299999999999976,5.99802027,0.23446232144531365,"{12: 14, 25: 1, 6: 1, 8: 16}","[6, 8, 12, 25]",618161214251,Mg14Mn1C1O16
Mg14CoCO16,mp-1035037,0.5907,5.51536927,0.24963054281250052,"{12: 14, 27: 1, 6: 1, 8: 16}","[6, 8, 12, 27]",618161214271,Mg14Co1C1O16
Mg14ZnCO16,mp-1035738,0.9351000000000003,5.00774781,0.2319761703515626,"{12: 14, 30: 1, 6: 1, 8: 16}","[6, 8, 12, 30]",618161214301,Mg14Zn1C1O16
RbMg14CO16,mp-1034162,0.0,6.93554541,0.39069712134765666,"{37: 1, 12: 14, 6: 1, 8: 16}","[6, 8, 12, 37]",618161214371,Rb1Mg14C1O16
SrMg14CO16,mp-1034502,0.8197000000000001,4.68983472,0.33316117062499995,"{38: 1, 12: 14, 6: 1, 8: 16}","[6, 8, 12, 38]",618161214381,Sr1Mg14C1O16
Mg14NbCO16,mp-1033892,0.0,7.36075959,0.34857423139843746,"{12: 14, 41: 1, 6: 1, 8: 16}","[6, 8, 12, 41]",618161214411,Mg14Nb1C1O16
Mg14CdCO16,mp-1033748,0.6462000000000003,5.34815933,0.2660463337500003,"{12: 14, 48: 1, 6: 1, 8: 16}","[6, 8, 12, 48]",618161214481,Mg14Cd1C1O16
Mg14SnCO16,mp-1034352,0.0,7.42138613,0.3112691972656245,"{12: 14, 50: 1, 6: 1, 8: 16}","[6, 8, 12, 50]",618161214501,Mg14Sn1C1O16
HfMg14CO16,mp-1033660,0.0,7.59949468,0.337137168906251,"{72: 1, 12: 14, 6: 1, 8: 16}","[6, 8, 12, 72]",618161214721,Hf1Mg14C1O16
Mg14BiCO16,mp-1033751,0.0,6.94989798,0.3477360875000004,"{12: 14, 83: 1, 6: 1, 8: 16}","[6, 8, 12, 83]",618161214831,Mg14Bi1C1O16
CaMg5P3CO16,mp-733871,0.5874000000000001,2.19166398,0.04838718068319814,"{20: 1, 12: 5, 15: 3, 6: 1, 8: 16}","[6, 8, 12, 15, 20]",61816125153201,Ca1Mg5P3C1O16
Ce18C18Cl11,mp-1196346,0.0,7.44898565,0.01483132159568612,"{58: 18, 6: 18, 17: 11}","[6, 17, 58]",61817115818,Ce18C18Cl11
W2CO,mp-1216273,0.0,8.58496494,1.5725384681250016,"{74: 2, 6: 1, 8: 1}","[6, 8, 74]",6181742,W2C1O1
KCOF3,mp-1211696,6.3741,-2.30807016,0.011330979166666033,"{19: 1, 6: 1, 8: 1, 9: 3}","[6, 8, 9, 19]",618193191,K1C1O1F3
Tl2OsCBr2OF3,mp-556622,0.7567999999999999,0.89867035,0.0159714121750012,"{81: 2, 76: 1, 6: 1, 35: 2, 8: 1, 9: 3}","[6, 8, 9, 35, 76, 81]",618193352761812,Tl2Os1C1Br2O1F3
RbCOF3,mp-1209379,6.3842,-2.30817026,0.0,"{37: 1, 6: 1, 8: 1, 9: 3}","[6, 8, 9, 37]",618193371,Rb1C1O1F3
CsCOF3,mp-14734,6.1248000000000005,-2.16234427,0.0,"{55: 1, 6: 1, 8: 1, 9: 3}","[6, 8, 9, 55]",618193551,Cs1C1O1F3
AsCOF4,mp-1182438,0.8165,-2.9399318,0.4457404122321442,"{33: 1, 6: 1, 8: 1, 9: 4}","[6, 8, 9, 33]",618194331,As1C1O1F4
CO2,mp-20066,6.6332,-4.09997108,0.0,"{6: 1, 8: 2}","[6, 8]",6182,C1O2
PbC,mp-1186446,0.0,6.63714355,1.487404713750001,"{82: 1, 6: 1}","[6, 82]",61821,Pb1C1
NaCO2,mp-4534,3.4095,-0.00810669,0.006818306145834896,"{11: 1, 6: 1, 8: 2}","[6, 8, 11]",6182111,Na1C1O2
PbCClO2,mp-552056,2.9227000000000003,2.39254757,0.06353212612499881,"{82: 1, 6: 1, 17: 1, 8: 2}","[6, 8, 17, 82]",6182171821,Pb1C1Cl1O2
SbC(Cl2O)2,mp-558165,2.1067,-1.46179388,0.0939996642187495,"{51: 1, 6: 1, 17: 4, 8: 2}","[6, 8, 17, 51]",6182174511,Sb1C1Cl4O2
KCO2,mp-560616,2.7324,-0.07247806,0.013450602968749337,"{19: 1, 6: 1, 8: 2}","[6, 8, 19]",6182191,K1C1O2
Ca7Si6CO23,mp-1227284,0.0,1.03325082,0.12100715837838383,"{20: 7, 14: 6, 6: 1, 8: 23}","[6, 8, 14, 20]",61823146207,Ca7Si6C1O23
RbCO2,mp-556872,2.9410000000000003,-0.16031564,0.0,"{37: 1, 6: 1, 8: 2}","[6, 8, 37]",6182371,Rb1C1O2
Ca3SiCSO24,mp-1196628,0.3747,-0.59892896,0.9251147714722272,"{20: 3, 14: 1, 6: 1, 16: 1, 8: 24}","[6, 8, 14, 16, 20]",61824141161203,Ca3Si1C1S1O24
Si12CO24,mp-1219366,1.6378000000000004,3.70599816,0.2177881381756741,"{14: 12, 6: 1, 8: 24}","[6, 8, 14]",618241412,Si12C1O24
AgCO2,mp-5282,2.3498,0.7476156,0.22148470895833405,"{47: 1, 6: 1, 8: 2}","[6, 8, 47]",6182471,Ag1C1O2
Dy11(Mn2C3)6,mp-1213205,0.0,5.46602114,0.0,"{66: 11, 25: 12, 6: 18}","[6, 25, 66]",61825126611,Dy11Mn12C18
Tb10Mn13C18,mp-1197004,0.0,5.55830264,0.0,"{65: 10, 25: 13, 6: 18}","[6, 25, 65]",61825136510,Tb10Mn13C18
Ho10Mn13C18,mp-1199972,0.0,5.4668461,0.0,"{67: 10, 25: 13, 6: 18}","[6, 25, 67]",61825136710,Ho10Mn13C18
Er10Mn13C18,mp-1198824,0.0,5.46238345,0.0,"{68: 10, 25: 13, 6: 18}","[6, 25, 68]",61825136810,Er10Mn13C18
Tm10Mn13C18,mp-1204728,0.0,5.45152152,0.0,"{69: 10, 25: 13, 6: 18}","[6, 25, 69]",61825136910,Tm10Mn13C18
Lu10Mn13C18,mp-1203385,0.0,5.45509683,0.0,"{71: 10, 25: 13, 6: 18}","[6, 25, 71]",61825137110,Lu10Mn13C18
Ca3SiCSO25,mp-1199820,0.0,-0.84217803,0.49416568005376327,"{20: 3, 14: 1, 6: 1, 16: 1, 8: 25}","[6, 8, 14, 16, 20]",61825141161203,Ca3Si1C1S1O25
Ca3MnCSO25,mp-1195426,0.24850000000000005,-0.66584911,0.7355287890322577,"{20: 3, 25: 1, 6: 1, 16: 1, 8: 25}","[6, 8, 16, 20, 25]",61825161203251,Ca3Mn1C1S1O25
La11(MnC6)3,mp-1195612,0.5335999999999999,8.27362131,0.0,"{57: 11, 25: 3, 6: 18}","[6, 25, 57]",6182535711,La11Mn3C18
CsCO2,mp-555131,4.1556999999999995,0.29985246,0.0,"{55: 1, 6: 1, 8: 2}","[6, 8, 55]",6182551,Cs1C1O2
Na8Al6Si6CO27,mp-39823,3.2507,0.94286977,0.0,"{11: 8, 13: 6, 14: 6, 6: 1, 8: 27}","[6, 8, 11, 13, 14]",61827118136146,Na8Al6Si6C1O27
Ca10P6CO27,mp-1195864,5.1373999999999995,7.2672233,0.0,"{20: 10, 15: 6, 6: 1, 8: 27}","[6, 8, 15, 20]",618271562010,Ca10P6C1O27
WCO2,mp-1216158,0.0,1.33246909,1.3277416593749987,"{74: 1, 6: 1, 8: 2}","[6, 8, 74]",6182741,W1C1O2
TlCO2,mp-556745,2.8853,1.58346555,0.04235201515625242,"{81: 1, 6: 1, 8: 2}","[6, 8, 81]",6182811,Tl1C1O2
K6W4CO29,mp-1182792,0.07269999999999999,-0.69578149,0.4231505393125028,"{19: 6, 74: 4, 6: 1, 8: 29}","[6, 8, 19, 74]",61829196744,K6W4C1O29
CsC(OF)2,mp-1213690,0.8099999999999999,-0.91038455,0.1104182775,"{55: 1, 6: 1, 8: 2, 9: 2}","[6, 8, 9, 55]",618292551,Cs1C1O2F2
NaSbCO2F3,mp-554716,0.0,3.77818208,0.031095129687505718,"{11: 1, 51: 1, 6: 1, 8: 2, 9: 3}","[6, 8, 9, 11, 51]",618293111511,Na1Sb1C1O2F3
AsCClO2F3,mp-1198257,0.0,-1.77766083,0.6101388274999913,"{33: 1, 6: 1, 17: 1, 8: 2, 9: 3}","[6, 8, 9, 17, 33]",618293171331,As1C1Cl1O2F3
CO3,mp-995196,0.0,2.85440016,3.074929928125,"{6: 1, 8: 3}","[6, 8]",6183,C1O3
NaCO3,mp-1120755,0.6623,-1.46431483,0.0,"{11: 1, 6: 1, 8: 3}","[6, 8, 11]",6183111,Na1C1O3
Na2CO3,mp-1201027,4.1922,1.15614698,0.0,"{11: 2, 6: 1, 8: 3}","[6, 8, 11]",6183112,Na2C1O3
MgCO3,mp-5348,4.9603,2.2261969,0.0,"{12: 1, 6: 1, 8: 3}","[6, 8, 12]",6183121,Mg1C1O3
SbPC(ClO)3,mp-728651,0.5151,-0.20492708,0.7991251939583277,"{51: 1, 15: 1, 6: 1, 17: 3, 8: 3}","[6, 8, 15, 17, 51]",6183151173511,Sb1P1C1Cl3O3
Pb2CCl2O3,mp-504593,3.2298,2.20388543,0.016056813437496764,"{82: 2, 6: 1, 17: 2, 8: 3}","[6, 8, 17, 82]",6183172822,Pb2C1Cl2O3
KCO3,mp-1106094,0.8755999999999999,-2.07719981,0.0,"{19: 1, 6: 1, 8: 3}","[6, 8, 19]",6183191,K1C1O3
KAgCO3,mp-541966,2.2257,0.55496219,0.0,"{19: 1, 47: 1, 6: 1, 8: 3}","[6, 8, 19, 47]",6183191471,K1Ag1C1O3
K2CO3,mp-3963,3.649,0.09809253,0.0,"{19: 2, 6: 1, 8: 3}","[6, 8, 19]",6183192,K2C1O3
CaCO3,mp-3953,4.999499999999999,1.09729877,0.0,"{20: 1, 6: 1, 8: 3}","[6, 8, 20]",6183201,Ca1C1O3
NaMg30CO32,mp-1039719,0.4779,5.00056969,0.1435167737516272,"{11: 1, 12: 30, 6: 1, 8: 32}","[6, 8, 11, 12]",618321111230,Na1Mg30C1O32
Mg30AlCO32,mp-1038189,1.8304,6.16092534,0.12681773920898465,"{12: 30, 13: 1, 6: 1, 8: 32}","[6, 8, 12, 13]",618321230131,Mg30Al1C1O32
Mg30SiCO32,mp-1039816,1.0376999999999992,7.39565612,0.16166309691406333,"{12: 30, 14: 1, 6: 1, 8: 32}","[6, 8, 12, 14]",618321230141,Mg30Si1C1O32
KMg30CO32,mp-1040199,0.48099999999999987,5.3656587,0.17920796076171897,"{19: 1, 12: 30, 6: 1, 8: 32}","[6, 8, 12, 19]",618321230191,K1Mg30C1O32
CaMg30CO32,mp-1037944,3.1308999999999996,4.26401452,0.13554715822265617,"{20: 1, 12: 30, 6: 1, 8: 32}","[6, 8, 12, 20]",618321230201,Ca1Mg30C1O32
Mg30TiCO32,mp-1040333,0.3008999999999995,7.49414096,0.1506895182031256,"{12: 30, 22: 1, 6: 1, 8: 32}","[6, 8, 12, 22]",618321230221,Mg30Ti1C1O32
Mg30VCO32,mp-1036759,1.3328999999999995,6.15546014,0.1284767214876288,"{12: 30, 23: 1, 6: 1, 8: 32}","[6, 8, 12, 23]",618321230231,Mg30V1C1O32
Mg30CrCO32,mp-1038542,1.1748000000000003,6.71721011,0.12779409174804535,"{12: 30, 24: 1, 6: 1, 8: 32}","[6, 8, 12, 24]",618321230241,Mg30Cr1C1O32
Mg30MnCO32,mp-1037884,1.9097,5.57525047,0.11959404447265687,"{12: 30, 25: 1, 6: 1, 8: 32}","[6, 8, 12, 25]",618321230251,Mg30Mn1C1O32
Mg30CoCO32,mp-1036880,0.8777999999999997,5.55177902,0.1369542804687498,"{12: 30, 27: 1, 6: 1, 8: 32}","[6, 8, 12, 27]",618321230271,Mg30Co1C1O32
Mg30ZnCO32,mp-1037463,2.8952999999999998,4.52949496,0.11887030548828204,"{12: 30, 30: 1, 6: 1, 8: 32}","[6, 8, 12, 30]",618321230301,Mg30Zn1C1O32
RbMg30CO32,mp-1039667,0.3978999999999999,5.86366606,0.20315030958007796,"{37: 1, 12: 30, 6: 1, 8: 32}","[6, 8, 12, 37]",618321230371,Rb1Mg30C1O32
SrMg30CO32,mp-1038644,3.0427,4.20003663,0.16257450484375013,"{38: 1, 12: 30, 6: 1, 8: 32}","[6, 8, 12, 38]",618321230381,Sr1Mg30C1O32
Mg30NbCO32,mp-1038575,0.0,7.40764238,0.17579084866797157,"{12: 30, 41: 1, 6: 1, 8: 32}","[6, 8, 12, 41]",618321230411,Mg30Nb1C1O32
Mg30CdCO32,mp-1038496,2.6238,4.76692812,0.13409089734375002,"{12: 30, 48: 1, 6: 1, 8: 32}","[6, 8, 12, 48]",618321230481,Mg30Cd1C1O32
Mg30SnCO32,mp-1095701,0.0,7.68715574,0.16261860878906287,"{12: 30, 50: 1, 6: 1, 8: 32}","[6, 8, 12, 50]",618321230501,Mg30Sn1C1O32
HfMg30CO32,mp-1038368,0.7456000000000005,7.29552287,0.17011382210937587,"{72: 1, 12: 30, 6: 1, 8: 32}","[6, 8, 12, 72]",618321230721,Hf1Mg30C1O32
Mg30BiCO32,mp-1038425,0.0,7.16999698,0.17927142312499988,"{12: 30, 83: 1, 6: 1, 8: 32}","[6, 8, 12, 83]",618321230831,Mg30Bi1C1O32
MnCO3,mp-18814,3.2291,2.29586006,0.0,"{25: 1, 6: 1, 8: 3}","[6, 8, 25]",6183251,Mn1C1O3
CoCO3,mp-21434,0.0,3.43145723,0.0,"{27: 1, 6: 1, 8: 3}","[6, 8, 27]",6183271,Co1C1O3
ZnCO3,mp-9812,3.5639,1.7508971,0.0,"{30: 1, 6: 1, 8: 3}","[6, 8, 30]",6183301,Zn1C1O3
Pb2CBr2O3,mp-510633,2.7849000000000004,2.12445487,0.004735867500000879,"{82: 2, 6: 1, 35: 2, 8: 3}","[6, 8, 35, 82]",6183352822,Pb2C1Br2O3
RbCO3,mp-31271,3.8719,-1.10573677,0.057538880499998335,"{37: 1, 6: 1, 8: 3}","[6, 8, 37]",6183371,Rb1C1O3
Rb2CO3,mp-4138,3.2867,0.18989602,0.0,"{37: 2, 6: 1, 8: 3}","[6, 8, 37]",6183372,Rb2C1O3
SrCO3,mp-3822,4.4416,1.1268441,0.0,"{38: 1, 6: 1, 8: 3}","[6, 8, 38]",6183381,Sr1C1O3
Si17CO34,mp-738361,0.0,-0.47219921,0.1734215551121796,"{14: 17, 6: 1, 8: 34}","[6, 8, 14]",618341417,Si17C1O34
AgCO3,mp-753176,0.0,0.93808798,0.004634585999996332,"{47: 1, 6: 1, 8: 3}","[6, 8, 47]",6183471,Ag1C1O3
Ag2CO3,mp-4691,0.47360000000000024,1.709619,0.0,"{47: 2, 6: 1, 8: 3}","[6, 8, 47]",6183472,Ag2C1O3
CdCO3,mp-4385,2.6226000000000003,0.99032799,0.0,"{48: 1, 6: 1, 8: 3}","[6, 8, 48]",6183481,Cd1C1O3
Cs2CO3,mp-616458,3.3306,1.010448,0.0,"{55: 2, 6: 1, 8: 3}","[6, 8, 55]",6183552,Cs2C1O3
EuCO3,mp-554518,0.42929999999999957,4.92373906,0.0,"{63: 1, 6: 1, 8: 3}","[6, 8, 63]",6183631,Eu1C1O3
TbCO3,mp-755605,3.8624,3.6184285,0.025706206499998885,"{65: 1, 6: 1, 8: 3}","[6, 8, 65]",6183651,Tb1C1O3
Tl2CO3,mp-543045,2.9095000000000004,1.74327222,0.0,"{81: 2, 6: 1, 8: 3}","[6, 8, 81]",6183812,Tl2C1O3
PbCO3,mp-19893,3.3293,2.63507892,0.0,"{82: 1, 6: 1, 8: 3}","[6, 8, 82]",6183821,Pb1C1O3
BiCO3,mp-1178485,1.4110999999999998,2.68487363,0.07999996737499604,"{83: 1, 6: 1, 8: 3}","[6, 8, 83]",6183831,Bi1C1O3
RbMgCO3F,mp-1190296,4.716,0.61583785,0.0,"{37: 1, 12: 1, 6: 1, 8: 3, 9: 1}","[6, 8, 9, 12, 37]",618391121371,Rb1Mg1C1O3F1
KCaCO3F,mp-6867,4.3552,0.47038234,0.0,"{19: 1, 20: 1, 6: 1, 8: 3, 9: 1}","[6, 8, 9, 19, 20]",618391191201,K1Ca1C1O3F1
KRb2CO3F,mp-1223355,3.6470000000000002,0.13340878,0.01603654374999941,"{19: 1, 37: 2, 6: 1, 8: 3, 9: 1}","[6, 8, 9, 19, 37]",618391191372,K1Rb2C1O3F1
KSrCO3F,mp-865427,4.1032,-0.01300866,0.0,"{19: 1, 38: 1, 6: 1, 8: 3, 9: 1}","[6, 8, 9, 19, 38]",618391191381,K1Sr1C1O3F1
K2RbCO3F,mp-1223949,3.8124000000000002,0.04651789,0.01501070171875174,"{19: 2, 37: 1, 6: 1, 8: 3, 9: 1}","[6, 8, 9, 19, 37]",618391192371,K2Rb1C1O3F1
K3CO3F,mp-8773,3.8463,-0.00527377,0.0069541153124985655,"{19: 3, 6: 1, 8: 3, 9: 1}","[6, 8, 9, 19]",618391193,K3C1O3F1
RbCaCO3F,mp-861440,4.2974,0.3604701,0.0,"{37: 1, 20: 1, 6: 1, 8: 3, 9: 1}","[6, 8, 9, 20, 37]",618391201371,Rb1Ca1C1O3F1
CsCaCO3F,mp-862701,4.5255,0.74963009,0.0,"{55: 1, 20: 1, 6: 1, 8: 3, 9: 1}","[6, 8, 9, 20, 55]",618391201551,Cs1Ca1C1O3F1
RbSrCO3F,mp-863745,4.1259,-0.02542798,0.0,"{37: 1, 38: 1, 6: 1, 8: 3, 9: 1}","[6, 8, 9, 37, 38]",618391371381,Rb1Sr1C1O3F1
Rb3CO3F,mp-8774,3.4607,0.12784595,0.00940490749999956,"{37: 3, 6: 1, 8: 3, 9: 1}","[6, 8, 9, 37]",618391373,Rb3C1O3F1
LaCO3F,mp-638731,3.9263,3.61855494,0.0,"{57: 1, 6: 1, 8: 3, 9: 1}","[6, 8, 9, 57]",618391571,La1C1O3F1
CeCO3F,mp-20288,0.07989999999999942,6.26977621,0.0,"{58: 1, 6: 1, 8: 3, 9: 1}","[6, 8, 9, 58]",618391581,Ce1C1O3F1
Tl3CO3F,mp-555013,2.4270000000000005,2.06951947,0.006783267812503269,"{81: 3, 6: 1, 8: 3, 9: 1}","[6, 8, 9, 81]",618391813,Tl3C1O3F1
KGdCO3F2,mp-554005,0.4727,0.70819011,0.0,"{19: 1, 64: 1, 6: 1, 8: 3, 9: 2}","[6, 8, 9, 19, 64]",618392191641,K1Gd1C1O3F2
Ca2CO3F2,mp-6246,4.944599999999999,1.24101899,0.028060514687505034,"{20: 2, 6: 1, 8: 3, 9: 2}","[6, 8, 9, 20]",618392202,Ca2C1O3F2
Pb2CO3F2,mp-555946,3.4764999999999997,3.05090315,0.002317971562500354,"{82: 2, 6: 1, 8: 3, 9: 2}","[6, 8, 9, 82]",618392822,Pb2C1O3F2
NaCS(OF)3,mp-695305,5.8787,-1.29035953,0.14662937680555643,"{11: 1, 6: 1, 16: 1, 8: 3, 9: 3}","[6, 8, 9, 11, 16]",618393111161,Na1C1S1O3F3
Na2EuC(OF)3,mp-556836,0.02460000000000001,0.21217786,0.0,"{11: 2, 63: 1, 6: 1, 8: 3, 9: 3}","[6, 8, 9, 11, 63]",618393112631,Na2Eu1C1O3F3
CSCl(OF)3,mp-558648,4.6094,-2.4733535,0.08018090111111853,"{6: 1, 16: 1, 17: 1, 8: 3, 9: 3}","[6, 8, 9, 16, 17]",618393161171,C1S1Cl1O3F3
KCS(OF)3,mp-559646,5.2646,-1.28028466,0.13351143561868373,"{19: 1, 6: 1, 16: 1, 8: 3, 9: 3}","[6, 8, 9, 16, 19]",618393161191,K1C1S1O3F3
RbCS(OF)3,mp-6858,5.7327,-1.4621955,0.13216880332070602,"{37: 1, 6: 1, 16: 1, 8: 3, 9: 3}","[6, 8, 9, 16, 37]",618393161371,Rb1C1S1O3F3
AgCS(OF)3,mp-1188917,2.7068,1.83166103,0.1527080397569458,"{47: 1, 6: 1, 16: 1, 8: 3, 9: 3}","[6, 8, 9, 16, 47]",618393161471,Ag1C1S1O3F3
CsCS(OF)3,mp-554592,5.6075,-1.05493842,0.1269072671212106,"{55: 1, 6: 1, 16: 1, 8: 3, 9: 3}","[6, 8, 9, 16, 55]",618393161551,Cs1C1S1O3F3
HgCS(OF)3,mp-560125,3.3625,-1.86974372,0.15940695124999937,"{80: 1, 6: 1, 16: 1, 8: 3, 9: 3}","[6, 8, 9, 16, 80]",618393161801,Hg1C1S1O3F3
Sr2AlCO3F5,mp-555467,5.2124,0.86890135,0.0,"{38: 2, 13: 1, 6: 1, 8: 3, 9: 5}","[6, 8, 9, 13, 38]",618395131382,Sr2Al1C1O3F5
Sr2VCO3F5,mp-759772,3.765,3.17485352,0.0,"{38: 2, 23: 1, 6: 1, 8: 3, 9: 5}","[6, 8, 9, 23, 38]",618395231382,Sr2V1C1O3F5
Sr2CrCO3F5,mp-766492,3.0801,3.65918954,0.0,"{38: 2, 24: 1, 6: 1, 8: 3, 9: 5}","[6, 8, 9, 24, 38]",618395241382,Sr2Cr1C1O3F5
Sr2MnCO3F5,mp-766465,1.2178,1.6237507,0.020652891631947945,"{38: 2, 25: 1, 6: 1, 8: 3, 9: 5}","[6, 8, 9, 25, 38]",618395251382,Sr2Mn1C1O3F5
Sr2CoCO3F5,mp-775735,0.712,1.19220155,0.06494573645833324,"{38: 2, 27: 1, 6: 1, 8: 3, 9: 5}","[6, 8, 9, 27, 38]",618395271382,Sr2Co1C1O3F5
NaCSCl3O4,mp-1210318,0.6567000000000001,-0.39949006,0.5838639742499989,"{11: 1, 6: 1, 16: 1, 17: 3, 8: 4}","[6, 8, 11, 16, 17]",6184111161173,Na1C1S1Cl3O4
Na4CO4,mp-13274,2.1989,1.28428188,0.12977240087962993,"{11: 4, 6: 1, 8: 4}","[6, 8, 11]",6184114,Na4C1O4
Mg3CO4,mp-1099248,1.3654000000000002,4.74945126,0.8565397176562506,"{12: 3, 6: 1, 8: 4}","[6, 8, 12]",6184123,Mg3C1O4
Al4CO4,mp-13703,3.8232999999999997,3.27698187,0.0,"{13: 4, 6: 1, 8: 4}","[6, 8, 13]",6184134,Al4C1O4
MnPCO4,mp-1181254,0.6500000000000001,1.27266139,0.5107395395535761,"{25: 1, 15: 1, 6: 1, 8: 4}","[6, 8, 15, 25]",6184151251,Mn1P1C1O4
Pb4C(Cl3O2)2,mp-1193725,0.019300000000000317,1.99288705,0.16500902997222333,"{82: 4, 6: 1, 17: 6, 8: 4}","[6, 8, 17, 82]",6184176824,Pb4C1Cl6O4
KLaCO4,mp-1223532,3.7241999999999997,2.74060351,0.06648400672618937,"{19: 1, 57: 1, 6: 1, 8: 4}","[6, 8, 19, 57]",6184191571,K1La1C1O4
K4CO4,mp-572537,2.9688,1.36998483,0.1609091213888858,"{19: 4, 6: 1, 8: 4}","[6, 8, 19]",6184194,K4C1O4
CaCO4,mp-1214358,0.44630000000000003,-0.79965266,0.31121102523147837,"{20: 1, 6: 1, 8: 4}","[6, 8, 20]",6184201,Ca1C1O4
Rb4CO4,mp-556527,1.6338,1.70562065,0.1956808627777784,"{37: 4, 6: 1, 8: 4}","[6, 8, 37]",6184374,Rb4C1O4
Th11(Ru2C3)6,mp-2868,0.0,7.90977094,0.0,"{90: 11, 44: 12, 6: 18}","[6, 44, 90]",61844129011,Th11Ru12C18
La9Sb5CO4,mp-1196632,0.0,6.98202107,0.012941024473690277,"{57: 9, 51: 5, 6: 1, 8: 4}","[6, 8, 51, 57]",6184515579,La9Sb5C1O4
Ho9Sb5CO4,mp-1195820,0.0,4.78368223,0.0,"{67: 9, 51: 5, 6: 1, 8: 4}","[6, 8, 51, 67]",6184515679,Ho9Sb5C1O4
Cs4CO4,mp-561834,1.1297000000000001,1.74811531,0.2102584913888892,"{55: 4, 6: 1, 8: 4}","[6, 8, 55]",6184554,Cs4C1O4
LaCO4,mp-1202759,0.04059999999999997,3.07637313,0.07484296960648251,"{57: 1, 6: 1, 8: 4}","[6, 8, 57]",6184571,La1C1O4
CeCO4,mp-1195398,1.2835,3.64626876,0.04708210425925863,"{58: 1, 6: 1, 8: 4}","[6, 8, 58]",6184581,Ce1C1O4
PrCO4,mp-1191029,0.0,1.22201625,0.0035387451041710705,"{59: 1, 6: 1, 8: 4}","[6, 8, 59]",6184591,Pr1C1O4
NdCO4,mp-1198371,0.0,1.17079591,0.0,"{60: 1, 6: 1, 8: 4}","[6, 8, 60]",6184601,Nd1C1O4
SmCO4,mp-1201399,0.0,1.11063161,0.0,"{62: 1, 6: 1, 8: 4}","[6, 8, 62]",6184621,Sm1C1O4
EuCO4,mp-1192396,0.0,0.43834967,0.1398805918750039,"{63: 1, 6: 1, 8: 4}","[6, 8, 63]",6184631,Eu1C1O4
GdCO4,mp-1199796,0.0,1.24373764,0.00791525534722659,"{64: 1, 6: 1, 8: 4}","[6, 8, 64]",6184641,Gd1C1O4
TbCO4,mp-1199683,9.999999999998899e-05,1.40228666,0.01318873927083608,"{65: 1, 6: 1, 8: 4}","[6, 8, 65]",6184651,Tb1C1O4
DyCO4,mp-1200026,0.10640000000000005,1.56304628,0.08745521465278294,"{66: 1, 6: 1, 8: 4}","[6, 8, 66]",6184661,Dy1C1O4
HoCO4,mp-1200004,0.1253000000000002,1.51700586,0.03670707473379764,"{67: 1, 6: 1, 8: 4}","[6, 8, 67]",6184671,Ho1C1O4
ErCO4,mp-1196391,0.1383000000000001,1.57116606,0.0488280193749997,"{68: 1, 6: 1, 8: 4}","[6, 8, 68]",6184681,Er1C1O4
TmCO4,mp-1200742,0.4881,-0.1181883,0.047909786458335546,"{69: 1, 6: 1, 8: 4}","[6, 8, 69]",6184691,Tm1C1O4
Pb2CO4,mp-505702,3.4158,2.68055924,0.0,"{82: 2, 6: 1, 8: 4}","[6, 8, 82]",6184822,Pb2C1O4