formula,material_id,band_gap,efermi,energy_above_hull,comp_atoms,sorted_keys_comp_atoms,comp_number,new_formula
Li2HfN2,mp-1097065,1.9346,5.43013074,0.0,"{3: 2, 72: 1, 7: 2}","[3, 7, 72]",3272721,Li2Hf1N2
Li2ReN2,mp-1246647,0.0,4.13739971,0.2683844985999979,"{3: 2, 75: 1, 7: 2}","[3, 7, 75]",3272751,Li2Re1N2
Li2OsN2,mp-1246179,0.0,5.49355272,0.3075938112727261,"{3: 2, 76: 1, 7: 2}","[3, 7, 76]",3272761,Li2Os1N2
Li2IrN2,mp-1246497,0.0,5.28830178,0.1837095031666678,"{3: 2, 77: 1, 7: 2}","[3, 7, 77]",3272771,Li2Ir1N2
Li2PbN2,mp-1245947,0.40640000000000054,5.19465591,0.33388434749999973,"{3: 2, 82: 1, 7: 2}","[3, 7, 82]",3272821,Li2Pb1N2
Li2ThN2,mp-27487,2.2243999999999993,4.19649089,0.0,"{3: 2, 90: 1, 7: 2}","[3, 7, 90]",3272901,Li2Th1N2
Li2UN2,mp-1206429,0.0,7.53347101,0.04397480433333456,"{3: 2, 92: 1, 7: 2}","[3, 7, 92]",3272921,Li2U1N2
SrLi2CrN3,mp-629430,0.6200999999999999,3.22329819,0.0,"{38: 1, 3: 2, 24: 1, 7: 3}","[3, 7, 24, 38]",3273241381,Sr1Li2Cr1N3
Li2Mn4N3,mp-1222676,0.0,5.18035185,0.03323263154761946,"{3: 2, 25: 4, 7: 3}","[3, 7, 25]",3273254,Li2Mn4N3
Li27As10,mp-676620,0.0,1.49880917,0.025484282483107634,"{3: 27, 33: 10}","[3, 33]",3273310,Li27As10
Li2Ca(SiN2)2,mp-1199122,3.4657999999999998,4.64486151,0.0,"{3: 2, 20: 1, 14: 2, 7: 4}","[3, 7, 14, 20]",3274142201,Li2Ca1Si2N4
SrLi2(SiN2)2,mp-978840,3.2439999999999998,4.29037223,0.0,"{38: 1, 3: 2, 14: 2, 7: 4}","[3, 7, 14, 38]",3274142381,Sr1Li2Si2N4
Li2Ca5N4,mp-1246584,0.0,1.7398906,0.06644941613636934,"{3: 2, 20: 5, 7: 4}","[3, 7, 20]",3274205,Li2Ca5N4
Li2Pd(N2O5)2,mp-1223209,0.0,-1.40672481,0.4231927715294068,"{3: 2, 46: 1, 7: 4, 8: 10}","[3, 7, 8, 46]",3274810461,Li2Pd1N4O10
Li27Sb10,mp-676024,0.0,2.73972334,0.021027031621622783,"{3: 27, 51: 10}","[3, 51]",3275110,Li27Sb10
Li2Ta3N5,mp-28523,0.0,6.20501039,0.0,"{3: 2, 73: 3, 7: 5}","[3, 7, 73]",3275733,Li2Ta3N5
Li2La(NO3)5,mp-1211252,3.7223,3.36941742,0.0,"{3: 2, 57: 1, 7: 5, 8: 15}","[3, 7, 8, 57]",3275815571,Li2La1N5O15
Li2Pr(NO3)5,mp-555979,3.6557,-0.88703518,0.0,"{3: 2, 59: 1, 7: 5, 8: 15}","[3, 7, 8, 59]",3275815591,Li2Pr1N5O15
Li2Nd(NO3)5,mp-1211215,3.6948,2.90247692,0.0,"{3: 2, 60: 1, 7: 5, 8: 15}","[3, 7, 8, 60]",3275815601,Li2Nd1N5O15
Li2Sm(NO3)5,mp-1211322,3.6957000000000004,2.94582064,0.0,"{3: 2, 62: 1, 7: 5, 8: 15}","[3, 7, 8, 62]",3275815621,Li2Sm1N5O15
Li2Ca3N6,mp-1196939,0.0,4.37015429,0.038340127045453976,"{3: 2, 20: 3, 7: 6}","[3, 7, 20]",3276203,Li2Ca3N6
Li2Pt,mp-2170,0.0,3.15388196,0.0,"{3: 2, 78: 1}","[3, 78]",32781,Li2Pt1
Li2PtAu,mp-1096417,2.5039,-4.59155311,1.5619529199999995,"{3: 2, 78: 1, 79: 1}","[3, 78, 79]",32781791,Li2Pt1Au1
Li2HgPt,mp-1093641,0.0,-3.070325,1.3886268549999983,"{3: 2, 80: 1, 78: 1}","[3, 78, 80]",32781801,Li2Hg1Pt1
Li2TlPt,mp-975608,0.0,4.86698199,0.020782237500000633,"{3: 2, 81: 1, 78: 1}","[3, 78, 81]",32781811,Li2Tl1Pt1
Li2PtPb,mp-1097279,0.0,-3.1394858,1.7847543849999998,"{3: 2, 78: 1, 82: 1}","[3, 78, 82]",32781821,Li2Pt1Pb1
Sr4Li2Ta2Al2N8O,mp-1203018,2.5814,2.83975392,0.006130481184210446,"{38: 4, 3: 2, 73: 2, 13: 2, 7: 8, 8: 1}","[3, 7, 8, 13, 38, 73]",327881132384732,Sr4Li2Ta2Al2N8O1
Sr4Li2Si4N8O,mp-1020592,2.1826999999999996,4.51797168,0.0,"{38: 4, 3: 2, 14: 4, 7: 8, 8: 1}","[3, 7, 8, 14, 38]",327881144384,Sr4Li2Si4N8O1
Sr6Li2Cr2N8O,mp-555994,1.8288000000000002,2.70487763,0.24741761274122887,"{38: 6, 3: 2, 24: 2, 7: 8, 8: 1}","[3, 7, 8, 24, 38]",327881242386,Sr6Li2Cr2N8O1
Li2HgAu,mp-865714,0.0,2.70789487,0.0,"{3: 2, 80: 1, 79: 1}","[3, 79, 80]",32791801,Li2Hg1Au1
Li2TlAu,mp-865711,0.0,4.23294002,0.0,"{3: 2, 81: 1, 79: 1}","[3, 79, 81]",32791811,Li2Tl1Au1
Li2PbAu,mp-30403,0.0,5.41964408,0.0042674800000011,"{3: 2, 82: 1, 79: 1}","[3, 79, 82]",32791821,Li2Pb1Au1
Li2BiAu,mp-567076,0.0,5.19822655,0.018676827500000215,"{3: 2, 83: 1, 79: 1}","[3, 79, 83]",32791831,Li2Bi1Au1
Li2TlHg,mp-1222616,0.0,3.53655153,0.0,"{3: 2, 81: 1, 80: 1}","[3, 80, 81]",32801811,Li2Tl1Hg1
Li2HgPb,mp-1096082,0.007400000000000073,-2.82211707,1.1292302824999993,"{3: 2, 80: 1, 82: 1}","[3, 80, 82]",32801821,Li2Hg1Pb1
Li2HgBi,mp-1184970,0.0,3.47964571,0.0,"{3: 2, 80: 1, 83: 1}","[3, 80, 83]",32801831,Li2Hg1Bi1
Li2O,mp-1960,4.8986,-0.00053712,0.0,"{3: 2, 8: 1}","[3, 8]",3281,Li2O1
Li2V2SiGeO10,mp-756174,1.7448000000000001,0.85174299,0.06244834729166815,"{3: 2, 23: 2, 14: 1, 32: 1, 8: 10}","[3, 8, 14, 23, 32]",32810141232321,Li2V2Si1Ge1O10
Li2V3Si3O10,mp-767778,1.9249999999999998,4.59338389,0.029973267847221763,"{3: 2, 23: 3, 14: 3, 8: 10}","[3, 8, 14, 23]",32810143233,Li2V3Si3O10
Li2Cr3Si3O10,mp-757421,1.9813999999999998,4.08753714,0.042824203981485454,"{3: 2, 24: 3, 14: 3, 8: 10}","[3, 8, 14, 24]",32810143243,Li2Cr3Si3O10
Li2Mn2Si3O10,mp-766544,0.9698,1.19036972,0.07222496341337425,"{3: 2, 25: 2, 14: 3, 8: 10}","[3, 8, 14, 25]",32810143252,Li2Mn2Si3O10
Li2Mn3Si3O10,mp-767709,2.5783,3.18599413,0.016499442453708824,"{3: 2, 25: 3, 14: 3, 8: 10}","[3, 8, 14, 25]",32810143253,Li2Mn3Si3O10
Li2Si3Ni3O10,mp-861061,3.7241000000000004,3.11110716,0.031880829583338155,"{3: 2, 14: 3, 28: 3, 8: 10}","[3, 8, 14, 28]",32810143283,Li2Si3Ni3O10
Li2V(Si2O5)2,mp-766408,1.282,5.40267622,0.07161731507353242,"{3: 2, 23: 1, 14: 4, 8: 10}","[3, 8, 14, 23]",32810144231,Li2V1Si4O10
Li2Cr(Si2O5)2,mp-758640,2.6140000000000003,3.12691168,0.04841522568627177,"{3: 2, 24: 1, 14: 4, 8: 10}","[3, 8, 14, 24]",32810144241,Li2Cr1Si4O10
Li2Mn(Si2O5)2,mp-849390,3.0364,2.49804109,0.0567838304411703,"{3: 2, 25: 1, 14: 4, 8: 10}","[3, 8, 14, 25]",32810144251,Li2Mn1Si4O10
Li2Co(Si2O5)2,mp-1264368,3.3703999999999996,0.67553296,0.05859676911764655,"{3: 2, 27: 1, 14: 4, 8: 10}","[3, 8, 14, 27]",32810144271,Li2Co1Si4O10
Li2Si4NiO10,mp-770701,3.4654,5.39238375,0.06520404941176672,"{3: 2, 14: 4, 28: 1, 8: 10}","[3, 8, 14, 28]",32810144281,Li2Si4Ni1O10
Li2Ti2AsPO10,mp-1222715,3.1390000000000002,4.3575219,0.003430575468750696,"{3: 2, 22: 2, 33: 1, 15: 1, 8: 10}","[3, 8, 15, 22, 33]",32810151222331,Li2Ti2As1P1O10
Li2NbV(PO5)2,mp-1246420,2.1366,3.10676562,0.07155381696616203,"{3: 2, 41: 1, 23: 1, 15: 2, 8: 10}","[3, 8, 15, 23, 41]",32810152231411,Li2Nb1V1P2O10
Li2TiP3O10,mp-757305,0.14110000000000023,2.98371053,0.10277365857738108,"{3: 2, 22: 1, 15: 3, 8: 10}","[3, 8, 15, 22]",32810153221,Li2Ti1P3O10
Li2VP3O10,mp-757972,2.1159,0.5455257,0.051739776979170315,"{3: 2, 23: 1, 15: 3, 8: 10}","[3, 8, 15, 23]",32810153231,Li2V1P3O10
Li2CrP3O10,mp-774964,3.2399,-0.19091592,0.05924090166666662,"{3: 2, 24: 1, 15: 3, 8: 10}","[3, 8, 15, 24]",32810153241,Li2Cr1P3O10
Li2MnP3O10,mp-782647,1.3778,-0.30558636,0.05473310697917455,"{3: 2, 25: 1, 15: 3, 8: 10}","[3, 8, 15, 25]",32810153251,Li2Mn1P3O10
Li2NiP3O10,mp-759146,0.0,1.26498017,0.08292666328127307,"{3: 2, 28: 1, 15: 3, 8: 10}","[3, 8, 15, 28]",32810153281,Li2Ni1P3O10
Li2SbP3O10,mp-759117,3.5521000000000003,0.44776351,0.07380189864583464,"{3: 2, 51: 1, 15: 3, 8: 10}","[3, 8, 15, 51]",32810153511,Li2Sb1P3O10
Li2BiP3O10,mp-759915,2.5981,0.65479513,0.07109122270833268,"{3: 2, 83: 1, 15: 3, 8: 10}","[3, 8, 15, 83]",32810153831,Li2Bi1P3O10
Li2Ca2Ta3O10,mp-15902,0.0,4.81631758,0.040174843258272475,"{3: 2, 20: 2, 73: 3, 8: 10}","[3, 8, 20, 73]",32810202733,Li2Ca2Ta3O10
Li2Ti2V3O10,mp-759328,0.21960000000000024,3.5530815,0.050588329264696696,"{3: 2, 22: 2, 23: 3, 8: 10}","[3, 8, 22, 23]",32810222233,Li2Ti2V3O10
Li2Ti2Mn3O10,mp-1273561,1.1323,1.95912305,0.057615828382349576,"{3: 2, 22: 2, 25: 3, 8: 10}","[3, 8, 22, 25]",32810222253,Li2Ti2Mn3O10
Li2La2Ti3O10,mp-9406,2.073899999999999,4.15128797,0.02043433161765229,"{3: 2, 57: 2, 22: 3, 8: 10}","[3, 8, 22, 57]",32810223572,Li2La2Ti3O10
Li2V5O10,mp-1297854,1.1581000000000001,2.53865396,0.06470630941176836,"{3: 2, 23: 5, 8: 10}","[3, 8, 23]",32810235,Li2V5O10
Li2Cr3O10,mp-772426,1.8001,-1.02499601,0.10194872513333664,"{3: 2, 24: 3, 8: 10}","[3, 8, 24]",32810243,Li2Cr3O10
Li2Mn5O10,mp-753105,0.0,2.6773656,0.09258562270588744,"{3: 2, 25: 5, 8: 10}","[3, 8, 25]",32810255,Li2Mn5O10
Li2(NiO2)5,mp-762387,0.0,2.0857089,0.06288675976715474,"{3: 2, 28: 5, 8: 10}","[3, 8, 28]",32810285,Li2Ni5O10
Sr2Li2Nb3O10,mp-756684,0.0,4.472425,0.006927576397069757,"{38: 2, 3: 2, 41: 3, 8: 10}","[3, 8, 38, 41]",32810382413,Sr2Li2Nb3O10
Li2U(MoO5)2,mp-560793,2.4115,-0.52758721,0.0,"{3: 2, 92: 1, 42: 2, 8: 10}","[3, 8, 42, 92]",32810422921,Li2U1Mo2O10
Li2U(WO5)2,mp-759350,1.2832,1.54300995,0.01759597141666802,"{3: 2, 92: 1, 74: 2, 8: 10}","[3, 8, 74, 92]",32810742921,Li2U1W2O10
KLi2AlSi4(O5F)2,mp-735824,0.8465000000000003,2.98730358,0.9216562717999999,"{19: 1, 3: 2, 13: 1, 14: 4, 8: 10, 9: 2}","[3, 8, 9, 13, 14, 19]",3281092131144191,K1Li2Al1Si4O10F2
Li2Tl,mp-1077191,0.0,3.47498453,0.0,"{3: 2, 81: 1}","[3, 81]",32811,Li2Tl1
Li2Mg2Si4O11,mp-561336,4.9276,1.97961679,0.015865032719300842,"{3: 2, 12: 2, 14: 4, 8: 11}","[3, 8, 12, 14]",32811122144,Li2Mg2Si4O11
Li2VSi4O11,mp-752694,1.9445,1.98931455,0.05586458527777882,"{3: 2, 23: 1, 14: 4, 8: 11}","[3, 8, 14, 23]",32811144231,Li2V1Si4O11
Li2V2Si4O11,mp-756730,0.020500000000000185,4.70127418,0.013355919078941625,"{3: 2, 23: 2, 14: 4, 8: 11}","[3, 8, 14, 23]",32811144232,Li2V2Si4O11
Li2CrSi4O11,mp-758359,0.5257999999999998,1.63723108,0.06803786037036819,"{3: 2, 24: 1, 14: 4, 8: 11}","[3, 8, 14, 24]",32811144241,Li2Cr1Si4O11
Li2Cr2Si4O11,mp-757623,2.5679000000000003,3.94594404,0.01881501605263125,"{3: 2, 24: 2, 14: 4, 8: 11}","[3, 8, 14, 24]",32811144242,Li2Cr2Si4O11
Li2MnSi4O11,mp-757188,0.06369999999999987,2.08249163,0.08344160648148424,"{3: 2, 25: 1, 14: 4, 8: 11}","[3, 8, 14, 25]",32811144251,Li2Mn1Si4O11
Li2Mn2Si4O11,mp-767711,3.1816999999999998,2.80084699,0.013352190087717375,"{3: 2, 25: 2, 14: 4, 8: 11}","[3, 8, 14, 25]",32811144252,Li2Mn2Si4O11
Li2Si4Ni2O11,mp-757344,0.0,7.61228856,0.02646281921052651,"{3: 2, 14: 4, 28: 2, 8: 11}","[3, 8, 14, 28]",32811144282,Li2Si4Ni2O11
Li2V2P2O11,mp-726294,2.0181,-0.85308248,0.03617215705881982,"{3: 2, 23: 2, 15: 2, 8: 11}","[3, 8, 15, 23]",32811152232,Li2V2P2O11
Li2Mo2P2O11,mp-1223051,0.0,2.22428323,0.31357993757354485,"{3: 2, 42: 2, 15: 2, 8: 11}","[3, 8, 15, 42]",32811152422,Li2Mo2P2O11
Li2Nb4O11,mp-772073,2.3476,0.93357654,0.043483336764698066,"{3: 2, 41: 4, 8: 11}","[3, 8, 41]",32811414,Li2Nb4O11
Li2TiS2O,mp-769287,1.9835000000000003,1.39321745,0.027613073564811685,"{3: 2, 22: 1, 16: 2, 8: 1}","[3, 8, 16, 22]",3281162221,Li2Ti1S2O1
Li2Ta4O11,mp-772938,3.4741000000000004,1.15874183,0.02995418911764247,"{3: 2, 73: 4, 8: 11}","[3, 8, 73]",32811734,Li2Ta4O11
Li2Re2O11,mp-1182734,0.8424,-2.17497878,0.5105671535833265,"{3: 2, 75: 2, 8: 11}","[3, 8, 75]",32811752,Li2Re2O11
Li2TlPb,mp-975609,0.0,4.86479991,9.979750000077559e-05,"{3: 2, 81: 1, 82: 1}","[3, 81, 82]",32811821,Li2Tl1Pb1
Li2TlBi,mp-865713,0.22930000000000028,4.23590303,0.0,"{3: 2, 81: 1, 83: 1}","[3, 81, 83]",32811831,Li2Tl1Bi1
Li2AcTl,mp-976333,0.0,4.65987167,0.0,"{3: 2, 89: 1, 81: 1}","[3, 81, 89]",32811891,Li2Ac1Tl1
NaLi2Al3(SiO4)3,mp-693857,2.955,-0.88643024,0.11381213224206377,"{11: 1, 3: 2, 13: 3, 14: 3, 8: 12}","[3, 8, 11, 13, 14]",32812111133143,Na1Li2Al3Si3O12
NaLi2(RuO2)6,mp-1201246,0.0,5.11776048,0.011802191011905272,"{11: 1, 3: 2, 44: 6, 8: 12}","[3, 8, 11, 44]",32812111446,Na1Li2Ru6O12
Na2Li2Al3Si3ClO12,mp-43030,4.6612,0.30045099,0.00554651971014497,"{11: 2, 3: 2, 13: 3, 14: 3, 17: 1, 8: 12}","[3, 8, 11, 13, 14, 17]",32812112133143171,Na2Li2Al3Si3Cl1O12
Li2MgSi5O12,mp-1222909,5.1591,4.35692927,0.10918726308333504,"{3: 2, 12: 1, 14: 5, 8: 12}","[3, 8, 12, 14]",32812121145,Li2Mg1Si5O12
Li2Mg2(SO4)3,mp-14646,5.6251999999999995,0.7735413,0.0,"{3: 2, 12: 2, 16: 3, 8: 12}","[3, 8, 12, 16]",32812122163,Li2Mg2S3O12
Li2Mg2(WO4)3,mp-774895,4.1589,0.56681456,0.05064425263158423,"{3: 2, 12: 2, 74: 3, 8: 12}","[3, 8, 12, 74]",32812122743,Li2Mg2W3O12
Li2Al2(SiO4)3,mp-1196415,0.5507,-0.13901314,0.22865221210526876,"{3: 2, 13: 2, 14: 3, 8: 12}","[3, 8, 13, 14]",32812132143,Li2Al2Si3O12
Li2Cr3(SiO3)4,mp-757728,2.3455,2.52694013,0.008909922301583606,"{3: 2, 24: 3, 14: 4, 8: 12}","[3, 8, 14, 24]",32812144243,Li2Cr3Si4O12
Li2Mn3(SiO3)4,mp-774444,0.9432,2.66445151,0.07975873777777842,"{3: 2, 25: 3, 14: 4, 8: 12}","[3, 8, 14, 25]",32812144253,Li2Mn3Si4O12
Li2Si4(NiO4)3,mp-849759,0.0,3.60262898,0.1248210078968297,"{3: 2, 14: 4, 28: 3, 8: 12}","[3, 8, 14, 28]",32812144283,Li2Si4Ni3O12
Li2TiCr(PO4)3,mp-1223017,2.3334,1.14723412,0.0,"{3: 2, 22: 1, 24: 1, 15: 3, 8: 12}","[3, 8, 15, 22, 24]",32812153221241,Li2Ti1Cr1P3O12
Li2Ti2(PO4)3,mp-1197890,0.039300000000000335,3.85811338,0.0023069271616469322,"{3: 2, 22: 2, 15: 3, 8: 12}","[3, 8, 15, 22]",32812153222,Li2Ti2P3O12
Li2MnV(PO4)3,mp-768547,1.0027999999999997,1.13216325,0.011455646184206358,"{3: 2, 25: 1, 23: 1, 15: 3, 8: 12}","[3, 8, 15, 23, 25]",32812153231251,Li2Mn1V1P3O12
Li2V2(PO4)3,mp-849317,0.0,1.94053051,0.0015366469956248352,"{3: 2, 23: 2, 15: 3, 8: 12}","[3, 8, 15, 23]",32812153232,Li2V2P3O12
Li2V2Cr(PO4)3,mp-1177840,0.6630999999999996,3.80477479,0.0655271364999983,"{3: 2, 23: 2, 24: 1, 15: 3, 8: 12}","[3, 8, 15, 23, 24]",32812153232241,Li2V2Cr1P3O12
Li2MnV2(PO4)3,mp-757262,0.0,5.11796834,0.06055674496472552,"{3: 2, 25: 1, 23: 2, 15: 3, 8: 12}","[3, 8, 15, 23, 25]",32812153232251,Li2Mn1V2P3O12
Li2V2Sn(PO4)3,mp-768559,0.0,4.13716781,0.06357102439583517,"{3: 2, 23: 2, 50: 1, 15: 3, 8: 12}","[3, 8, 15, 23, 50]",32812153232501,Li2V2Sn1P3O12
Li2V3(PO4)3,mp-772292,0.4490000000000003,3.93107432,0.05956482116025619,"{3: 2, 23: 3, 15: 3, 8: 12}","[3, 8, 15, 23]",32812153233,Li2V3P3O12
Li2Cr2(PO4)3,mp-850906,2.4368999999999996,0.94388019,0.028676832605264657,"{3: 2, 24: 2, 15: 3, 8: 12}","[3, 8, 15, 24]",32812153242,Li2Cr2P3O12
Li2Mn2(PO4)3,mp-759308,0.8459,0.94845832,0.014374211440060236,"{3: 2, 25: 2, 15: 3, 8: 12}","[3, 8, 15, 25]",32812153252,Li2Mn2P3O12
Li2Mn2Co(PO4)3,mp-757760,0.4900000000000002,2.24164841,0.07495152487498746,"{3: 2, 25: 2, 27: 1, 15: 3, 8: 12}","[3, 8, 15, 25, 27]",32812153252271,Li2Mn2Co1P3O12
Li2Mn2Ni(PO4)3,mp-774573,0.31689999999999996,2.84303326,0.07095707000000218,"{3: 2, 25: 2, 28: 1, 15: 3, 8: 12}","[3, 8, 15, 25, 28]",32812153252281,Li2Mn2Ni1P3O12
Li2Mn3(PO4)3,mp-778864,0.0,2.8764695,0.0391337615000138,"{3: 2, 25: 3, 15: 3, 8: 12}","[3, 8, 15, 25]",32812153253,Li2Mn3P3O12
Li2Zr2(PO4)3,mp-773052,0.0,5.02865823,0.09826736089849675,"{3: 2, 40: 2, 15: 3, 8: 12}","[3, 8, 15, 40]",32812153402,Li2Zr2P3O12
Li2Nb2(PO4)3,mp-776371,0.0,3.82008443,0.11201578306579485,"{3: 2, 41: 2, 15: 3, 8: 12}","[3, 8, 15, 41]",32812153412,Li2Nb2P3O12
Li2V(PO3)4,mp-697754,3.0199,3.53161059,0.02573509782832062,"{3: 2, 23: 1, 15: 4, 8: 12}","[3, 8, 15, 23]",32812154231,Li2V1P4O12
Li2Cr(PO3)4,mp-697850,2.8225999999999996,2.54124472,0.02820173796149028,"{3: 2, 24: 1, 15: 4, 8: 12}","[3, 8, 15, 24]",32812154241,Li2Cr1P4O12
Li2Mn(PO3)4,mp-26095,4.4509,1.68426139,0.006213659166665941,"{3: 2, 25: 1, 15: 4, 8: 12}","[3, 8, 15, 25]",32812154251,Li2Mn1P4O12
Li2Co(PO3)4,mp-26359,2.9976000000000003,1.05609169,0.013010990219297192,"{3: 2, 27: 1, 15: 4, 8: 12}","[3, 8, 15, 27]",32812154271,Li2Co1P4O12
Li2Ni(PO3)4,mp-26165,4.3565000000000005,0.59477547,0.012201016798246478,"{3: 2, 28: 1, 15: 4, 8: 12}","[3, 8, 15, 28]",32812154281,Li2Ni1P4O12
Li2Cd(PO3)4,mp-559715,4.5942,0.4583573,0.005514853399120945,"{3: 2, 48: 1, 15: 4, 8: 12}","[3, 8, 15, 48]",32812154481,Li2Cd1P4O12
Li2Sn(PO3)4,mp-26271,3.8013,2.0729962,0.02003624677631599,"{3: 2, 50: 1, 15: 4, 8: 12}","[3, 8, 15, 50]",32812154501,Li2Sn1P4O12
Li2Hg(PO3)4,mp-559070,2.9522,0.63175233,0.0050169205043850695,"{3: 2, 80: 1, 15: 4, 8: 12}","[3, 8, 15, 80]",32812154801,Li2Hg1P4O12
Li2V2(SO4)3,mp-770191,3.5936,3.29961976,0.04645513588643091,"{3: 2, 23: 2, 16: 3, 8: 12}","[3, 8, 16, 23]",32812163232,Li2V2S3O12
Li2Cr2(SO4)3,mp-770410,2.4379,1.65102224,0.0457676736654129,"{3: 2, 24: 2, 16: 3, 8: 12}","[3, 8, 16, 24]",32812163242,Li2Cr2S3O12
Li2Mn2(SO4)3,mp-777817,4.6747000000000005,0.79743683,0.004813057499997164,"{3: 2, 25: 2, 16: 3, 8: 12}","[3, 8, 16, 25]",32812163252,Li2Mn2S3O12
Li2Co2(SO4)3,mp-778578,2.8014,1.74511048,0.012899810657900801,"{3: 2, 27: 2, 16: 3, 8: 12}","[3, 8, 16, 27]",32812163272,Li2Co2S3O12
Li2Ni2(SO4)3,mp-768896,3.8594000000000004,1.72461397,0.008815751052631882,"{3: 2, 28: 2, 16: 3, 8: 12}","[3, 8, 16, 28]",32812163282,Li2Ni2S3O12
Li2Sn2(SO4)3,mp-777931,3.6139,1.4440464,0.03144186842105068,"{3: 2, 50: 2, 16: 3, 8: 12}","[3, 8, 16, 50]",32812163502,Li2Sn2S3O12
Li2Bi2(SO4)3,mp-777356,1.8644000000000003,2.49225818,0.10711700469078878,"{3: 2, 83: 2, 16: 3, 8: 12}","[3, 8, 16, 83]",32812163832,Li2Bi2S3O12
KLi2(RuO2)6,mp-1223542,0.0,4.85284383,0.035862196547634895,"{19: 1, 3: 2, 44: 6, 8: 12}","[3, 8, 19, 44]",32812191446,K1Li2Ru6O12
Li2TiV5O12,mp-1573040,1.0516999999999999,3.4161317,0.09022214062499856,"{3: 2, 22: 1, 23: 5, 8: 12}","[3, 8, 22, 23]",32812221235,Li2Ti1V5O12
Li2Ti(TeO4)3,mp-758894,1.4608999999999996,2.82787718,0.009614493888892461,"{3: 2, 22: 1, 52: 3, 8: 12}","[3, 8, 22, 52]",32812221523,Li2Ti1Te3O12
Li2Ti2V5O12,mp-758312,0.8546999999999998,3.96556871,0.1025279620238031,"{3: 2, 22: 2, 23: 5, 8: 12}","[3, 8, 22, 23]",32812222235,Li2Ti2V5O12
Li2Ti2Mn5O12,mp-758979,0.4996999999999998,2.75483635,0.09231429822918358,"{3: 2, 22: 2, 25: 5, 8: 12}","[3, 8, 22, 25]",32812222255,Li2Ti2Mn5O12
Li2Ti3V3O12,mp-753240,0.9737999999999998,2.74158235,0.09574461575003035,"{3: 2, 22: 3, 23: 3, 8: 12}","[3, 8, 22, 23]",32812223233,Li2Ti3V3O12
Li2Ti3(GaO4)3,mp-1222887,0.0,1.07343447,0.08797128175000246,"{3: 2, 22: 3, 31: 3, 8: 12}","[3, 8, 22, 31]",32812223313,Li2Ti3Ga3O12
Li2Ti3(BiO3)4,mp-630234,0.0,6.79889868,0.24782773964285276,"{3: 2, 22: 3, 83: 4, 8: 12}","[3, 8, 22, 83]",32812223834,Li2Ti3Bi4O12
Li2Ti2Sb2O,mp-1177857,0.0,5.74196452,0.0,"{3: 2, 22: 2, 51: 2, 8: 1}","[3, 8, 22, 51]",3281222512,Li2Ti2Sb2O1
Li2V3Cr2O12,mp-778232,0.0411,-0.23707847,0.02737988567616867,"{3: 2, 23: 3, 24: 2, 8: 12}","[3, 8, 23, 24]",32812233242,Li2V3Cr2O12
Li2Mn2V3O12,mp-1177949,0.056900000000000006,0.12822435,0.031912030986833706,"{3: 2, 25: 2, 23: 3, 8: 12}","[3, 8, 23, 25]",32812233252,Li2Mn2V3O12
Li2MnV4CoO12,mp-1177907,1.4335999999999998,1.61687106,0.10407561402205978,"{3: 2, 25: 1, 23: 4, 27: 1, 8: 12}","[3, 8, 23, 25, 27]",32812234251271,Li2Mn1V4Co1O12
Li2MnV4NiO12,mp-862462,0.8984000000000001,1.85090005,0.07628547025004462,"{3: 2, 25: 1, 23: 4, 28: 1, 8: 12}","[3, 8, 23, 25, 28]",32812234251281,Li2Mn1V4Ni1O12
Li2V5O12,mp-776130,0.0,0.80417412,0.03355151342105245,"{3: 2, 23: 5, 8: 12}","[3, 8, 23]",32812235,Li2V5O12
Li2V5Cr2O12,mp-782662,1.2826999999999997,3.35625405,0.09443458108630587,"{3: 2, 23: 5, 24: 2, 8: 12}","[3, 8, 23, 24]",32812235242,Li2V5Cr2O12
Li2MnV5O12,mp-776140,0.0,2.52787494,0.1116349124374949,"{3: 2, 25: 1, 23: 5, 8: 12}","[3, 8, 23, 25]",32812235251,Li2Mn1V5O12
Li2V5CoO12,mp-755221,0.0,2.77997364,0.1662574474999996,"{3: 2, 23: 5, 27: 1, 8: 12}","[3, 8, 23, 27]",32812235271,Li2V5Co1O12
Li2V5NiO12,mp-776323,0.30010000000000003,2.4820708,0.08710241899999893,"{3: 2, 23: 5, 28: 1, 8: 12}","[3, 8, 23, 28]",32812235281,Li2V5Ni1O12
Li2Mn2Cr3O12,mp-775291,1.7395999999999998,-0.48429253,0.07283124203069846,"{3: 2, 25: 2, 24: 3, 8: 12}","[3, 8, 24, 25]",32812243252,Li2Mn2Cr3O12
Li2Mn3Cr3O12,mp-850956,0.0927,1.58868861,0.12871898018750016,"{3: 2, 25: 3, 24: 3, 8: 12}","[3, 8, 24, 25]",32812243253,Li2Mn3Cr3O12
Li2Cr3(CoO6)2,mp-772115,1.7890000000000001,-0.53237919,0.002351124802629556,"{3: 2, 24: 3, 27: 2, 8: 12}","[3, 8, 24, 27]",32812243272,Li2Cr3Co2O12
Li2Cr3(CoO4)3,mp-753037,0.0,1.52722725,0.06205838302777611,"{3: 2, 24: 3, 27: 3, 8: 12}","[3, 8, 24, 27]",32812243273,Li2Cr3Co3O12
Li2Cr3(NiO6)2,mp-780190,2.4624,0.39412727,0.0045654473245662075,"{3: 2, 24: 3, 28: 2, 8: 12}","[3, 8, 24, 28]",32812243282,Li2Cr3Ni2O12
Li2Cr5O12,mp-772650,0.22850000000000004,0.71690369,0.07534122192982728,"{3: 2, 24: 5, 8: 12}","[3, 8, 24]",32812245,Li2Cr5O12
Li2Mn3(CoO4)3,mp-754774,0.7852999999999999,1.4956551,0.035989396791662465,"{3: 2, 25: 3, 27: 3, 8: 12}","[3, 8, 25, 27]",32812253273,Li2Mn3Co3O12
Li2Mn3(SeO3)4,mp-773051,2.3399,1.88008157,0.0,"{3: 2, 25: 3, 34: 4, 8: 12}","[3, 8, 25, 34]",32812253344,Li2Mn3Se4O12