formula,material_id,band_gap,efermi,energy_above_hull,comp_atoms,sorted_keys_comp_atoms,comp_number,new_formula
Li4Mn3Ni3(SbO8)2,mp-770685,0.0,3.97732147,0.04280803482142481,"{3: 4, 25: 3, 28: 3, 51: 2, 8: 16}","[3, 8, 25, 28, 51]",34816253283512,Li4Mn3Ni3Sb2O16
Li4Mn3Ni3(TeO8)2,mp-770951,0.09860000000000024,4.03419406,0.001312447996042465,"{3: 4, 25: 3, 28: 3, 52: 2, 8: 16}","[3, 8, 25, 28, 52]",34816253283522,Li4Mn3Ni3Te2O16
Li4Mn3Ni3(WO8)2,mp-752993,0.30969999999999986,3.38269562,0.029279784178583235,"{3: 4, 25: 3, 28: 3, 74: 2, 8: 16}","[3, 8, 25, 28, 74]",34816253283742,Li4Mn3Ni3W2O16
Li4Mn3Nb2Sn3O16,mp-758581,0.7199999999999998,4.84936149,0.0424376964285722,"{3: 4, 25: 3, 41: 2, 50: 3, 8: 16}","[3, 8, 25, 41, 50]",34816253412503,Li4Mn3Nb2Sn3O16
Li4Mn3Nb3(SnO8)2,mp-760145,0.0,4.06056708,0.09500747859374847,"{3: 4, 25: 3, 41: 3, 50: 2, 8: 16}","[3, 8, 25, 41, 50]",34816253413502,Li4Mn3Nb3Sn2O16
Li4Mn3Nb3(SbO8)2,mp-1664776,0.6898,3.71401022,0.07997986622767783,"{3: 4, 25: 3, 41: 3, 51: 2, 8: 16}","[3, 8, 25, 41, 51]",34816253413512,Li4Mn3Nb3Sb2O16
Li4Mn3Nb3(TeO8)2,mp-778817,0.45610000000000017,4.27263422,0.09155370369792948,"{3: 4, 25: 3, 41: 3, 52: 2, 8: 16}","[3, 8, 25, 41, 52]",34816253413522,Li4Mn3Nb3Te2O16
Li4Mn3Nb5O16,mp-772110,0.0,4.2100056,0.09286337950892332,"{3: 4, 25: 3, 41: 5, 8: 16}","[3, 8, 25, 41]",34816253415,Li4Mn3Nb5O16
Li4Mn3Sn2Sb3O16,mp-774787,0.0,5.27281864,0.06007594441963526,"{3: 4, 25: 3, 50: 2, 51: 3, 8: 16}","[3, 8, 25, 50, 51]",34816253502513,Li4Mn3Sn2Sb3O16
Li4Mn3Sn3(SbO8)2,mp-1177363,0.0,5.16261477,0.033284585446418546,"{3: 4, 25: 3, 50: 3, 51: 2, 8: 16}","[3, 8, 25, 50, 51]",34816253503512,Li4Mn3Sn3Sb2O16
Li4Mn3Sn3(TeO8)2,mp-774292,0.24270000000000014,4.73784297,0.05424364071427856,"{3: 4, 25: 3, 50: 3, 52: 2, 8: 16}","[3, 8, 25, 50, 52]",34816253503522,Li4Mn3Sn3Te2O16
Li4Mn3Sn5O16,mp-773180,0.0048000000000003595,4.91330783,0.00467364339284515,"{3: 4, 25: 3, 50: 5, 8: 16}","[3, 8, 25, 50]",34816253505,Li4Mn3Sn5O16
Li4Mn5Co3O16,mp-768354,0.0,3.18640537,0.03877758031248835,"{3: 4, 25: 5, 27: 3, 8: 16}","[3, 8, 25, 27]",34816255273,Li4Mn5Co3O16
Li4Mn5Ni3O16,mp-756534,0.0,2.6791528,0.05958607374999314,"{3: 4, 25: 5, 28: 3, 8: 16}","[3, 8, 25, 28]",34816255283,Li4Mn5Ni3O16
Li4Mn5Nb3O16,mp-772148,0.0,2.54036742,0.0833205257143046,"{3: 4, 25: 5, 41: 3, 8: 16}","[3, 8, 25, 41]",34816255413,Li4Mn5Nb3O16
Li4Mn5Sn3O16,mp-771907,0.0,3.70089994,0.056898716785704906,"{3: 4, 25: 5, 50: 3, 8: 16}","[3, 8, 25, 50]",34816255503,Li4Mn5Sn3O16
Li4Mn5Sb3O16,mp-756961,0.0,3.96669268,0.038143940178557934,"{3: 4, 25: 5, 51: 3, 8: 16}","[3, 8, 25, 51]",34816255513,Li4Mn5Sb3O16
Li4Mn5Te3O16,mp-773469,0.0,3.74046093,0.08338472303571898,"{3: 4, 25: 5, 52: 3, 8: 16}","[3, 8, 25, 52]",34816255523,Li4Mn5Te3O16
Li4Mn7O16,mp-757932,0.7791000000000001,1.67735442,0.0644626010493905,"{3: 4, 25: 7, 8: 16}","[3, 8, 25]",34816257,Li4Mn7O16
Li4Co3Ni2Sn3O16,mp-774657,0.3062,4.08590218,0.0576056860491061,"{3: 4, 27: 3, 28: 2, 50: 3, 8: 16}","[3, 8, 27, 28, 50]",34816273282503,Li4Co3Ni2Sn3O16
Li4Co3Ni2Sb3O16,mp-757795,0.0,4.25297828,0.08651864374999985,"{3: 4, 27: 3, 28: 2, 51: 3, 8: 16}","[3, 8, 27, 28, 51]",34816273282513,Li4Co3Ni2Sb3O16
Li4Nb2Co3Ni3O16,mp-762164,0.0,2.8859268,0.04843356352678274,"{3: 4, 41: 2, 27: 3, 28: 3, 8: 16}","[3, 8, 27, 28, 41]",34816273283412,Li4Nb2Co3Ni3O16
Li4Co3Ni3(SnO8)2,mp-849378,0.0,3.61410447,0.016745916785714243,"{3: 4, 27: 3, 28: 3, 50: 2, 8: 16}","[3, 8, 27, 28, 50]",34816273283502,Li4Co3Ni3Sn2O16
Li4Co3Ni3(SbO8)2,mp-757843,0.0,4.01621548,0.027194737812504144,"{3: 4, 27: 3, 28: 3, 51: 2, 8: 16}","[3, 8, 27, 28, 51]",34816273283512,Li4Co3Ni3Sb2O16
Li4Co3Ni3(TeO8)2,mp-757279,0.0,3.90713161,0.035525111294646194,"{3: 4, 27: 3, 28: 3, 52: 2, 8: 16}","[3, 8, 27, 28, 52]",34816273283522,Li4Co3Ni3Te2O16
Li4Co3Ni3(WO8)2,mp-761155,0.0019000000000000128,2.38026655,0.06139190959820784,"{3: 4, 27: 3, 28: 3, 74: 2, 8: 16}","[3, 8, 27, 28, 74]",34816273283742,Li4Co3Ni3W2O16
Li4Co3Ni5O16,mp-772319,0.3219000000000003,3.44767122,0.03004057941964078,"{3: 4, 27: 3, 28: 5, 8: 16}","[3, 8, 27, 28]",34816273285,Li4Co3Ni5O16
Li4Nb2Co3Sn3O16,mp-771059,1.3308999999999997,5.06009429,0.029386628214290944,"{3: 4, 41: 2, 27: 3, 50: 3, 8: 16}","[3, 8, 27, 41, 50]",34816273412503,Li4Nb2Co3Sn3O16
Li4Nb2Co3Sb3O16,mp-774912,0.0,5.17778902,0.10432732116071364,"{3: 4, 41: 2, 27: 3, 51: 3, 8: 16}","[3, 8, 27, 41, 51]",34816273412513,Li4Nb2Co3Sb3O16
Li4Nb3Co3(SnO8)2,mp-774896,0.5170999999999997,3.67141066,0.14085647473214813,"{3: 4, 41: 3, 27: 3, 50: 2, 8: 16}","[3, 8, 27, 41, 50]",34816273413502,Li4Nb3Co3Sn2O16
Li4Nb3Co3(TeO8)2,mp-774825,0.7834999999999996,3.79533437,0.08386511078571424,"{3: 4, 41: 3, 27: 3, 52: 2, 8: 16}","[3, 8, 27, 41, 52]",34816273413522,Li4Nb3Co3Te2O16
Li4Co3Sn2Sb3O16,mp-774605,0.0,5.69239179,0.047535375044645,"{3: 4, 27: 3, 50: 2, 51: 3, 8: 16}","[3, 8, 27, 50, 51]",34816273502513,Li4Co3Sn2Sb3O16
Li4Co3Sn3(SbO8)2,mp-776240,0.375,4.76224807,0.017651262678573865,"{3: 4, 27: 3, 50: 3, 51: 2, 8: 16}","[3, 8, 27, 50, 51]",34816273503512,Li4Co3Sn3Sb2O16
Li4Co3Sn5O16,mp-772511,0.5381,5.08389763,0.027447545000001128,"{3: 4, 27: 3, 50: 5, 8: 16}","[3, 8, 27, 50]",34816273505,Li4Co3Sn5O16
Li4Co3Sb5O16,mp-1661499,0.8189000000000002,5.14674042,0.050105458705356654,"{3: 4, 27: 3, 51: 5, 8: 16}","[3, 8, 27, 51]",34816273515,Li4Co3Sb5O16
Li4Co5Ni3O16,mp-772632,0.0,3.46606668,0.09545270924107108,"{3: 4, 27: 5, 28: 3, 8: 16}","[3, 8, 27, 28]",34816275283,Li4Co5Ni3O16
Li4Co5Sb3O16,mp-771118,0.0,3.77003211,0.07806635499998738,"{3: 4, 27: 5, 51: 3, 8: 16}","[3, 8, 27, 51]",34816275513,Li4Co5Sb3O16
Li4Co5Te3O16,mp-781593,0.0,3.77379974,0.09587140633928826,"{3: 4, 27: 5, 52: 3, 8: 16}","[3, 8, 27, 52]",34816275523,Li4Co5Te3O16
Li4Co7O16,mp-771197,0.03990000000000005,1.43008519,0.07255958163510101,"{3: 4, 27: 7, 8: 16}","[3, 8, 27]",34816277,Li4Co7O16
Li4Nb2Ni3Sn3O16,mp-760315,2.0723,3.63654607,0.021570460089284538,"{3: 4, 41: 2, 28: 3, 50: 3, 8: 16}","[3, 8, 28, 41, 50]",34816283412503,Li4Nb2Ni3Sn3O16
Li4Nb3Ni3(SnO8)2,mp-774703,0.31400000000000006,4.64339697,0.08696293825892898,"{3: 4, 41: 3, 28: 3, 50: 2, 8: 16}","[3, 8, 28, 41, 50]",34816283413502,Li4Nb3Ni3Sn2O16
Li4Nb3Ni3(SbO8)2,mp-764765,0.0,4.59368102,0.10602989732142287,"{3: 4, 41: 3, 28: 3, 51: 2, 8: 16}","[3, 8, 28, 41, 51]",34816283413512,Li4Nb3Ni3Sb2O16
Li4Nb3Ni3(TeO8)2,mp-1177365,0.31179999999999986,5.12507356,0.08567236681845092,"{3: 4, 41: 3, 28: 3, 52: 2, 8: 16}","[3, 8, 28, 41, 52]",34816283413522,Li4Nb3Ni3Te2O16
Li4Ni3Sn2Sb3O16,mp-776462,0.0,6.11044142,0.051729761938767105,"{3: 4, 28: 3, 50: 2, 51: 3, 8: 16}","[3, 8, 28, 50, 51]",34816283502513,Li4Ni3Sn2Sb3O16
Li4Ni3Sn3(SbO8)2,mp-777462,0.3006000000000002,5.57390547,0.024319338749992703,"{3: 4, 28: 3, 50: 3, 51: 2, 8: 16}","[3, 8, 28, 50, 51]",34816283503512,Li4Ni3Sn3Sb2O16
Li4Ni3Sn5O16,mp-768603,0.8671000000000006,4.15829608,0.031111429702381344,"{3: 4, 28: 3, 50: 5, 8: 16}","[3, 8, 28, 50]",34816283505,Li4Ni3Sn5O16
Li4Ni3Sb5O16,mp-1661518,0.7988,5.57299425,0.05816169471428978,"{3: 4, 28: 3, 51: 5, 8: 16}","[3, 8, 28, 51]",34816283515,Li4Ni3Sb5O16
Li4Ni5Sb3O16,mp-762510,0.0,3.6759106,0.055951783035710356,"{3: 4, 28: 5, 51: 3, 8: 16}","[3, 8, 28, 51]",34816285513,Li4Ni5Sb3O16
Li4P4O17,mp-1181255,0.6236999999999999,-1.39529838,0.4074141912666658,"{3: 4, 15: 4, 8: 17}","[3, 8, 15]",34817154,Li4P4O17
Li4Mo5O17,mp-541578,3.0662,0.42720597,0.01437016254807677,"{3: 4, 42: 5, 8: 17}","[3, 8, 42]",34817425,Li4Mo5O17
Li4Ga4P4O17F3,mp-1222599,0.08499999999999996,1.18919509,0.062193086853298496,"{3: 4, 31: 4, 15: 4, 8: 17, 9: 3}","[3, 8, 9, 15, 31]",3481793154314,Li4Ga4P4O17F3
Li4V(PO3)6,mp-758386,3.0291,3.32241293,0.07131499196796831,"{3: 4, 23: 1, 15: 6, 8: 18}","[3, 8, 15, 23]",34818156231,Li4V1P6O18
Li4Mn(PO3)6,mp-754890,4.2073,1.34507272,0.05887951775862099,"{3: 4, 25: 1, 15: 6, 8: 18}","[3, 8, 15, 25]",34818156251,Li4Mn1P6O18
Li4Ni(PO3)6,mp-859119,3.8620999999999994,0.7473048,0.05966246956896537,"{3: 4, 28: 1, 15: 6, 8: 18}","[3, 8, 15, 28]",34818156281,Li4Ni1P6O18
Li4Sn(PO3)6,mp-673092,4.4967,1.83063332,0.03908313964079735,"{3: 4, 50: 1, 15: 6, 8: 18}","[3, 8, 15, 50]",34818156501,Li4Sn1P6O18
Li4TiV4Cr4O18,mp-767927,1.318,2.64612772,0.08854815348790446,"{3: 4, 22: 1, 23: 4, 24: 4, 8: 18}","[3, 8, 22, 23, 24]",34818221234244,Li4Ti1V4Cr4O18
Li4TiV8O18,mp-769497,0.0,3.72325713,0.0864293725806391,"{3: 4, 22: 1, 23: 8, 8: 18}","[3, 8, 22, 23]",34818221238,Li4Ti1V8O18
Li4TiMn8O18,mp-769509,0.0,3.04755084,0.07283918137096013,"{3: 4, 22: 1, 25: 8, 8: 18}","[3, 8, 22, 25]",34818221258,Li4Ti1Mn8O18
Li4Ti(Co4O9)2,mp-774904,0.22750000000000004,2.53024455,0.08643347895160147,"{3: 4, 22: 1, 27: 8, 8: 18}","[3, 8, 22, 27]",34818221278,Li4Ti1Co8O18
Li4Ti2V3Cr4O18,mp-774596,1.5306000000000002,2.5338983,0.08767898528225615,"{3: 4, 22: 2, 23: 3, 24: 4, 8: 18}","[3, 8, 22, 23, 24]",34818222233244,Li4Ti2V3Cr4O18
Li4Ti2V7O18,mp-769491,0.0,3.41388181,0.08998213580645498,"{3: 4, 22: 2, 23: 7, 8: 18}","[3, 8, 22, 23]",34818222237,Li4Ti2V7O18
Li4Ti2Mn4Cr3O18,mp-774617,0.0,2.6649034,0.187873392553767,"{3: 4, 22: 2, 25: 4, 24: 3, 8: 18}","[3, 8, 22, 24, 25]",34818222243254,Li4Ti2Mn4Cr3O18
Li4Ti2Mn7O18,mp-769508,0.0,3.27246768,0.07374877749999609,"{3: 4, 22: 2, 25: 7, 8: 18}","[3, 8, 22, 25]",34818222257,Li4Ti2Mn7O18
Li4Ti2Co7O18,mp-774947,0.0,2.25524694,0.10631729665323952,"{3: 4, 22: 2, 27: 7, 8: 18}","[3, 8, 22, 27]",34818222277,Li4Ti2Co7O18
Li4Ti3V2Cr4O18,mp-774581,1.5461,2.54746897,0.09552908014113193,"{3: 4, 22: 3, 23: 2, 24: 4, 8: 18}","[3, 8, 22, 23, 24]",34818223232244,Li4Ti3V2Cr4O18
Li4Ti3V4Cr2O18,mp-774678,0.22379999999999978,3.55685435,0.09425448733870923,"{3: 4, 22: 3, 23: 4, 24: 2, 8: 18}","[3, 8, 22, 23, 24]",34818223234242,Li4Ti3V4Cr2O18
Li4Ti3V6O18,mp-1177271,1.028,3.22416505,0.08334586782258135,"{3: 4, 22: 3, 23: 6, 8: 18}","[3, 8, 22, 23]",34818223236,Li4Ti3V6O18
Li4Ti3Mn4Cr2O18,mp-768100,1.0001000000000002,3.34047843,0.14261094706990463,"{3: 4, 22: 3, 25: 4, 24: 2, 8: 18}","[3, 8, 22, 24, 25]",34818223242254,Li4Ti3Mn4Cr2O18
Li4Ti3Mn4(CoO9)2,mp-774525,0.7639999999999998,2.85778156,0.07615296169351904,"{3: 4, 22: 3, 25: 4, 27: 2, 8: 18}","[3, 8, 22, 25, 27]",34818223254272,Li4Ti3Mn4Co2O18
Li4Ti3Mn6O18,mp-769513,0.4981,3.4698775,0.06559480846774335,"{3: 4, 22: 3, 25: 6, 8: 18}","[3, 8, 22, 25]",34818223256,Li4Ti3Mn6O18
Li4Ti3(CoO3)6,mp-769541,0.0,2.67676682,0.12262302830646998,"{3: 4, 22: 3, 27: 6, 8: 18}","[3, 8, 22, 27]",34818223276,Li4Ti3Co6O18
Li4Ti4VCr4O18,mp-774577,1.4674,2.5368421,0.08845537516129731,"{3: 4, 22: 4, 23: 1, 24: 4, 8: 18}","[3, 8, 22, 23, 24]",34818224231244,Li4Ti4V1Cr4O18
Li4Ti4Mn4VO18,mp-766883,0.4872000000000001,3.33128769,0.08874182961693222,"{3: 4, 22: 4, 25: 4, 23: 1, 8: 18}","[3, 8, 22, 23, 25]",34818224231254,Li4Ti4Mn4V1O18
Li4Ti4V4CrO18,mp-884288,0.0,3.73856542,0.08739357774193834,"{3: 4, 22: 4, 23: 4, 24: 1, 8: 18}","[3, 8, 22, 23, 24]",34818224234241,Li4Ti4V4Cr1O18
Li4Ti4V4CoO18,mp-769478,0.8820000000000006,3.29033588,0.10029335774193626,"{3: 4, 22: 4, 23: 4, 27: 1, 8: 18}","[3, 8, 22, 23, 27]",34818224234271,Li4Ti4V4Co1O18
Li4Ti4V4NiO18,mp-767907,1.2060999999999997,3.1203071,0.07885164137096368,"{3: 4, 22: 4, 23: 4, 28: 1, 8: 18}","[3, 8, 22, 23, 28]",34818224234281,Li4Ti4V4Ni1O18
Li4Ti4V5O18,mp-769487,0.8845999999999998,4.20394782,0.08285514604840039,"{3: 4, 22: 4, 23: 5, 8: 18}","[3, 8, 22, 23]",34818224235,Li4Ti4V5O18
Li4Ti4Mn4CrO18,mp-769455,0.0,3.46710865,0.11023990212366286,"{3: 4, 22: 4, 25: 4, 24: 1, 8: 18}","[3, 8, 22, 24, 25]",34818224241254,Li4Ti4Mn4Cr1O18
Li4Ti4MnCr4O18,mp-767369,1.4871999999999996,3.28981699,0.12139710583034535,"{3: 4, 22: 4, 25: 1, 24: 4, 8: 18}","[3, 8, 22, 24, 25]",34818224244251,Li4Ti4Mn1Cr4O18
Li4Ti4Cr4NiO18,mp-1177433,0.0,2.55925121,0.09279188344981648,"{3: 4, 22: 4, 24: 4, 28: 1, 8: 18}","[3, 8, 22, 24, 28]",34818224244281,Li4Ti4Cr4Ni1O18
Li4Ti4Cr5O18,mp-861696,0.0,2.61325896,0.09777148894264975,"{3: 4, 22: 4, 24: 5, 8: 18}","[3, 8, 22, 24]",34818224245,Li4Ti4Cr5O18
Li4Ti4Mn(Co2O9)2,mp-767219,0.11970000000000036,3.37967865,0.08674456191531554,"{3: 4, 22: 4, 25: 1, 27: 4, 8: 18}","[3, 8, 22, 25, 27]",34818224251274,Li4Ti4Mn1Co4O18
Li4Ti4Mn4CoO18,mp-774293,0.9844999999999997,3.52896037,0.0788405783064583,"{3: 4, 22: 4, 25: 4, 27: 1, 8: 18}","[3, 8, 22, 25, 27]",34818224254271,Li4Ti4Mn4Co1O18
Li4Ti4Mn4NiO18,mp-767054,1.4788000000000001,3.60891122,0.070713657661301,"{3: 4, 22: 4, 25: 4, 28: 1, 8: 18}","[3, 8, 22, 25, 28]",34818224254281,Li4Ti4Mn4Ni1O18
Li4Ti4Mn5O18,mp-769512,0.2472000000000003,3.37500918,0.06284237830644557,"{3: 4, 22: 4, 25: 5, 8: 18}","[3, 8, 22, 25]",34818224255,Li4Ti4Mn5O18
Li4Ti4Co5O18,mp-774513,0.0,2.91309908,0.19000700560485662,"{3: 4, 22: 4, 27: 5, 8: 18}","[3, 8, 22, 27]",34818224275,Li4Ti4Co5O18
Li4Ti5Mn4O18,mp-766836,0.9673000000000003,3.58651043,0.06930494766129236,"{3: 4, 22: 5, 25: 4, 8: 18}","[3, 8, 22, 25]",34818225254,Li4Ti5Mn4O18
Li4V5Cr4O18,mp-1177172,1.3790999999999998,2.60894658,0.09086182201612658,"{3: 4, 23: 5, 24: 4, 8: 18}","[3, 8, 23, 24]",34818235244,Li4V5Cr4O18
Li4V9O18,mp-1177174,1.0621,3.02702847,0.08649459354839273,"{3: 4, 23: 9, 8: 18}","[3, 8, 23]",34818239,Li4V9O18
Li4Mn9O18,mp-1177463,0.0,2.88565316,0.07620793299462747,"{3: 4, 25: 9, 8: 18}","[3, 8, 25]",34818259,Li4Mn9O18
Li4(CoO2)9,mp-850020,0.0,2.38208149,0.11811854177418812,"{3: 4, 27: 9, 8: 18}","[3, 8, 27]",34818279,Li4Co9O18
Li4V3OF11,mp-765238,1.8126000000000002,0.72518788,0.039391552368415184,"{3: 4, 23: 3, 8: 1, 9: 11}","[3, 8, 9, 23]",3481911233,Li4V3O1F11
Li4Mn3OF11,mp-861557,1.0928,-0.38093439,0.045760688793862414,"{3: 4, 25: 3, 8: 1, 9: 11}","[3, 8, 9, 25]",3481911253,Li4Mn3O1F11
Li4Co3OF11,mp-754688,0.6954,-0.83524192,0.06331772197368135,"{3: 4, 27: 3, 8: 1, 9: 11}","[3, 8, 9, 27]",3481911273,Li4Co3O1F11
Li4MnOF4,mp-760393,2.4416,1.93144737,0.10799540974999822,"{3: 4, 25: 1, 8: 1, 9: 4}","[3, 8, 9, 25]",348194251,Li4Mn1O1F4
Li4CoOF4,mp-759652,0.017400000000000304,2.33409768,0.04940287799999865,"{3: 4, 27: 1, 8: 1, 9: 4}","[3, 8, 9, 27]",348194271,Li4Co1O1F4
Li4NiOF4,mp-753143,1.8989000000000003,2.70157406,0.04012423200000015,"{3: 4, 28: 1, 8: 1, 9: 4}","[3, 8, 9, 28]",348194281,Li4Ni1O1F4
Li4MnOF5,mp-759491,1.4989,-0.27276013,0.06797231564394135,"{3: 4, 25: 1, 8: 1, 9: 5}","[3, 8, 9, 25]",348195251,Li4Mn1O1F5
Li4CoOF5,mp-754887,0.0,0.0627981,0.059507230000000355,"{3: 4, 27: 1, 8: 1, 9: 5}","[3, 8, 9, 27]",348195271,Li4Co1O1F5
Li4V2OF7,mp-765046,0.9141999999999999,2.0960901,0.054792032410708735,"{3: 4, 23: 2, 8: 1, 9: 7}","[3, 8, 9, 23]",348197232,Li4V2O1F7
Li4Mn2OF7,mp-753323,0.9575,0.43220138,0.06231356729166304,"{3: 4, 25: 2, 8: 1, 9: 7}","[3, 8, 9, 25]",348197252,Li4Mn2O1F7
Li4Co2OF7,mp-1311449,1.4085999999999999,-0.35705088,0.03539988821428519,"{3: 4, 27: 2, 8: 1, 9: 7}","[3, 8, 9, 27]",348197272,Li4Co2O1F7
Li4Ni2OF7,mp-753213,0.31100000000000005,-0.39787289,0.07033110363093975,"{3: 4, 28: 2, 8: 1, 9: 7}","[3, 8, 9, 28]",348197282,Li4Ni2O1F7
Li4Mn3OF8,mp-849279,2.5141,2.31855766,0.07848623468750038,"{3: 4, 25: 3, 8: 1, 9: 8}","[3, 8, 9, 25]",348198253,Li4Mn3O1F8
Li4Co3OF8,mp-759351,1.6506999999999998,3.6020426,0.07212459421875028,"{3: 4, 27: 3, 8: 1, 9: 8}","[3, 8, 9, 27]",348198273,Li4Co3O1F8
Li4Ca3Nb6O20,mp-1222663,1.3259999999999998,1.26318653,0.13702607386364107,"{3: 4, 20: 3, 41: 6, 8: 20}","[3, 8, 20, 41]",34820203416,Li4Ca3Nb6O20
Li4Ti9O20,mp-772090,2.8633,0.88572836,0.0317401615909052,"{3: 4, 22: 9, 8: 20}","[3, 8, 22]",34820229,Li4Ti9O20
Li4Ge9O20,mp-28016,2.9382,0.66933923,0.0574192916666636,"{3: 4, 32: 9, 8: 20}","[3, 8, 32]",34820329,Li4Ge9O20
Sr3Li4Nb6O20,mp-766433,1.1984,1.66039812,0.030523541818176625,"{38: 3, 3: 4, 41: 6, 8: 20}","[3, 8, 38, 41]",34820383416,Sr3Li4Nb6O20
Sr2Li4MnS3O2,mp-1173260,2.0078,3.48386034,0.2561721829166652,"{38: 2, 3: 4, 25: 1, 16: 3, 8: 2}","[3, 8, 16, 25, 38]",3482163251382,Sr2Li4Mn1S3O2
Li4V5(P3O11)2,mp-758308,0.6559999999999997,5.46497613,0.048407794559941486,"{3: 4, 23: 5, 15: 6, 8: 22}","[3, 8, 15, 23]",34822156235,Li4V5P6O22
Li4Cr5(P3O11)2,mp-780109,1.9217,3.4232291,0.05546782018015062,"{3: 4, 24: 5, 15: 6, 8: 22}","[3, 8, 15, 24]",34822156245,Li4Cr5P6O22
Li4Mn5(P3O11)2,mp-25857,3.1011999999999995,2.76349587,0.034964707027042685,"{3: 4, 25: 5, 15: 6, 8: 22}","[3, 8, 15, 25]",34822156255,Li4Mn5P6O22
Li4Co5(P3O11)2,mp-26551,1.5374000000000003,4.5361378,0.05788124942567574,"{3: 4, 27: 5, 15: 6, 8: 22}","[3, 8, 15, 27]",34822156275,Li4Co5P6O22
Li4Ni5(P3O11)2,mp-26313,3.2929,2.74957579,0.02307268959458675,"{3: 4, 28: 5, 15: 6, 8: 22}","[3, 8, 15, 28]",34822156285,Li4Ni5P6O22
Li4V11O22,mp-758647,0.4516,2.52826553,0.09675743810811888,"{3: 4, 23: 11, 8: 22}","[3, 8, 23]",348222311,Li4V11O22
Li4(NiO2)11,mp-758676,0.32299999999999995,2.42296747,0.06085747407094644,"{3: 4, 28: 11, 8: 22}","[3, 8, 28]",348222811,Li4Ni11O22
Na2Li4Ti3Al(PO4)6,mp-769069,0.0,5.0023085,0.09015686977819204,"{11: 2, 3: 4, 22: 3, 13: 1, 15: 6, 8: 24}","[3, 8, 11, 13, 15, 22]",34824112131156223,Na2Li4Ti3Al1P6O24
Li4ScIn3(SiO3)8,mp-1222575,3.9221000000000004,2.43533825,0.01092150597916497,"{3: 4, 21: 1, 49: 3, 14: 8, 8: 24}","[3, 8, 14, 21, 49]",34824148211493,Li4Sc1In3Si8O24
Li4Sc3In(SiO3)8,mp-1222563,4.7465,2.13891604,0.006547872104166075,"{3: 4, 21: 3, 49: 1, 14: 8, 8: 24}","[3, 8, 14, 21, 49]",34824148213491,Li4Sc3In1Si8O24
Li4TiMn3Cr2(PO4)6,mp-778261,0.9432,2.6632856,0.08414291181251699,"{3: 4, 22: 1, 25: 3, 24: 2, 15: 6, 8: 24}","[3, 8, 15, 22, 24, 25]",34824156221242253,Li4Ti1Mn3Cr2P6O24
Li4TiCr2Ni3(PO4)6,mp-1177293,1.3658000000000001,2.91692348,0.09848617478124133,"{3: 4, 22: 1, 24: 2, 28: 3, 15: 6, 8: 24}","[3, 8, 15, 22, 24, 28]",34824156221242283,Li4Ti1Cr2Ni3P6O24
Li4TiMn2Ni3(PO4)6,mp-776756,2.2646,2.07469782,0.07262716734374575,"{3: 4, 22: 1, 25: 2, 28: 3, 15: 6, 8: 24}","[3, 8, 15, 22, 25, 28]",34824156221252283,Li4Ti1Mn2Ni3P6O24
Li4TiCo2Ni3(PO4)6,mp-778251,1.7799,2.08206834,0.13193309903125794,"{3: 4, 22: 1, 27: 2, 28: 3, 15: 6, 8: 24}","[3, 8, 15, 22, 27, 28]",34824156221272283,Li4Ti1Co2Ni3P6O24
Li4TiNi3Sn2(PO4)6,mp-778249,2.3485,2.26390901,0.038958109145831976,"{3: 4, 22: 1, 28: 3, 50: 2, 15: 6, 8: 24}","[3, 8, 15, 22, 28, 50]",34824156221283502,Li4Ti1Ni3Sn2P6O24
Li4TiNi5(PO4)6,mp-770943,2.1144999999999996,2.32968431,0.08066587990625695,"{3: 4, 22: 1, 28: 5, 15: 6, 8: 24}","[3, 8, 15, 22, 28]",34824156221285,Li4Ti1Ni5P6O24
Li4VCr2Ni3(PO4)6,mp-1177231,0.014499999999999957,3.12833913,0.10276925865624786,"{3: 4, 23: 1, 24: 2, 28: 3, 15: 6, 8: 24}","[3, 8, 15, 23, 24, 28]",34824156231242283,Li4V1Cr2Ni3P6O24
Li4Mn2VNi3(PO4)6,mp-770417,0.8949999999999996,2.07676158,0.07366760312501786,"{3: 4, 25: 2, 23: 1, 28: 3, 15: 6, 8: 24}","[3, 8, 15, 23, 25, 28]",34824156231252283,Li4Mn2V1Ni3P6O24
Li4Mn5V(PO4)6,mp-775798,0.24499999999999966,2.24650279,0.08127637425007173,"{3: 4, 25: 5, 23: 1, 15: 6, 8: 24}","[3, 8, 15, 23, 25]",34824156231255,Li4Mn5V1P6O24
Li4Mn3V2Cr(PO4)6,mp-1177396,0.5556000000000001,2.99167781,0.09089829378124925,"{3: 4, 25: 3, 23: 2, 24: 1, 15: 6, 8: 24}","[3, 8, 15, 23, 24, 25]",34824156232241253,Li4Mn3V2Cr1P6O24
Li4Mn3NbV2(PO4)6,mp-770640,3.524,4.17859947,0.09821481174198965,"{3: 4, 25: 3, 41: 1, 23: 2, 15: 6, 8: 24}","[3, 8, 15, 23, 25, 41]",34824156232253411,Li4Mn3Nb1V2P6O24
Li4V3Cr2Co(PO4)6,mp-771298,0.5522,3.86801977,0.08314803363748435,"{3: 4, 23: 3, 24: 2, 27: 1, 15: 6, 8: 24}","[3, 8, 15, 23, 24, 27]",34824156233242271,Li4V3Cr2Co1P6O24
Li4NbV3Cr2(PO4)6,mp-1177323,0.29899999999999993,3.86802438,0.10249680880382073,"{3: 4, 41: 1, 23: 3, 24: 2, 15: 6, 8: 24}","[3, 8, 15, 23, 24, 41]",34824156233242411,Li4Nb1V3Cr2P6O24
Li4V7(PO4)6,mp-758345,0.8134999999999994,5.69879941,0.08288418087399485,"{3: 4, 23: 7, 15: 6, 8: 24}","[3, 8, 15, 23]",34824156237,Li4V7P6O24
Li4Mn2CrNi3(PO4)6,mp-775171,3.5709,1.90627702,0.09209252614062002,"{3: 4, 25: 2, 24: 1, 28: 3, 15: 6, 8: 24}","[3, 8, 15, 24, 25, 28]",34824156241252283,Li4Mn2Cr1Ni3P6O24
Li4Mn3CrCo2(PO4)6,mp-758445,0.3939999999999997,2.41409161,0.0870415177777728,"{3: 4, 25: 3, 24: 1, 27: 2, 15: 6, 8: 24}","[3, 8, 15, 24, 25, 27]",34824156241253272,Li4Mn3Cr1Co2P6O24