formula,material_id,band_gap,efermi,energy_above_hull,comp_atoms,sorted_keys_comp_atoms,comp_number,new_formula
Li8MnNi7O16,mp-761013,0.0,3.43864854,0.009975564218750677,"{3: 8, 25: 1, 28: 7, 8: 16}","[3, 8, 25, 28]",38816251287,Li8Mn1Ni7O16
Li8Mn9O18,mp-759775,0.2562000000000002,3.33954315,0.02764859799998831,"{3: 8, 25: 9, 8: 18}","[3, 8, 25]",38818259,Li8Mn9O18
Li8CoNi9O20,mp-1176867,0.0,3.08021593,0.024493131600873852,"{3: 8, 27: 1, 28: 9, 8: 20}","[3, 8, 27, 28]",38820271289,Li8Co1Ni9O20
Li8V11O22,mp-768084,0.44869999999999965,3.39206781,0.04983377722560345,"{3: 8, 23: 11, 8: 22}","[3, 8, 23]",388222311,Li8V11O22
Li8(NiO2)11,mp-758772,0.1948000000000003,3.25499963,0.024090079705285206,"{3: 8, 28: 11, 8: 22}","[3, 8, 28]",388222811,Li8Ni11O22
Li8Pb3,mp-27587,0.0,3.76994483,0.0,"{3: 8, 82: 3}","[3, 82]",38823,Li8Pb3
Li8TiMn3(PO4)6,mp-768533,0.9361999999999999,2.15947617,0.042163047916662144,"{3: 8, 22: 1, 25: 3, 15: 6, 8: 24}","[3, 8, 15, 22, 25]",38824156221253,Li8Ti1Mn3P6O24
Li8Mn3V(PO4)6,mp-768534,4.106,1.97860972,0.03713034261904724,"{3: 8, 25: 3, 23: 1, 15: 6, 8: 24}","[3, 8, 15, 23, 25]",38824156231253,Li8Mn3V1P6O24
Li8VCo3(PO4)6,mp-760152,2.1978999999999997,2.41394356,0.27683605041666404,"{3: 8, 23: 1, 27: 3, 15: 6, 8: 24}","[3, 8, 15, 23, 27]",38824156231273,Li8V1Co3P6O24
Li8VNi3(PO4)6,mp-760785,1.5875000000000001,1.92396267,0.0702059722619115,"{3: 8, 23: 1, 28: 3, 15: 6, 8: 24}","[3, 8, 15, 23, 28]",38824156231283,Li8V1Ni3P6O24
Li8Mn3Cr(PO4)6,mp-768581,3.3873,1.99868466,0.03059305815081359,"{3: 8, 25: 3, 24: 1, 15: 6, 8: 24}","[3, 8, 15, 24, 25]",38824156241253,Li8Mn3Cr1P6O24
Li8NbNi3(PO4)6,mp-759457,0.2894999999999994,4.11894716,0.09713210752975776,"{3: 8, 41: 1, 28: 3, 15: 6, 8: 24}","[3, 8, 15, 28, 41]",38824156283411,Li8Nb1Ni3P6O24
Li8MgCo13O28,mp-777406,1.0704,1.1079351,0.06517940695001112,"{3: 8, 12: 1, 27: 13, 8: 28}","[3, 8, 12, 27]",388281212713,Li8Mg1Co13O28
Li8La4TiNb7O28,mp-782001,0.0,5.37251947,0.03603676794271671,"{3: 8, 57: 4, 22: 1, 41: 7, 8: 28}","[3, 8, 22, 41, 57]",38828221417574,Li8La4Ti1Nb7O28
Li8Bi2(MoO4)7,mp-559185,2.9688,0.55532753,0.0016113872777747673,"{3: 8, 83: 2, 42: 7, 8: 28}","[3, 8, 42, 83]",38828427832,Li8Bi2Mo7O28
Li8V3P8O29,mp-849522,1.0229000000000001,1.2861218,0.0,"{3: 8, 23: 3, 15: 8, 8: 29}","[3, 8, 15, 23]",38829158233,Li8V3P8O29
Li8Ti6Mn7O30,mp-772622,0.9131,2.15778372,0.0949301659804549,"{3: 8, 22: 6, 25: 7, 8: 30}","[3, 8, 22, 25]",38830226257,Li8Ti6Mn7O30
Li8Ti7Nb6O30,mp-772997,0.0,4.42072456,0.08520043764705676,"{3: 8, 22: 7, 41: 6, 8: 30}","[3, 8, 22, 41]",38830227416,Li8Ti7Nb6O30
Li8Mn12Ni4O31,mp-771196,0.8603000000000001,2.49728236,0.019442924272732753,"{3: 8, 25: 12, 28: 4, 8: 31}","[3, 8, 25, 28]",388312512284,Li8Mn12Ni4O31
Li8PO3,mp-1020029,0.0,1.05264257,0.2769724194791676,"{3: 8, 15: 1, 8: 3}","[3, 8, 15]",3883151,Li8P1O3
Li8Ti15O32,mp-759713,0.0,4.41230468,0.011685113090923238,"{3: 8, 22: 15, 8: 32}","[3, 8, 22]",388322215,Li8Ti15O32
Li8Mn15CrO32,mp-770529,0.3151999999999999,2.5970344,0.025731728020705447,"{3: 8, 25: 15, 24: 1, 8: 32}","[3, 8, 24, 25]",388322412515,Li8Mn15Cr1O32
Li8Mn13Cr3O32,mp-775158,0.0,2.9320298,0.04679653592857136,"{3: 8, 25: 13, 24: 3, 8: 32}","[3, 8, 24, 25]",388322432513,Li8Mn13Cr3O32
Li8Mn15NiO32,mp-772976,0.5663,2.65171402,0.004516685624999184,"{3: 8, 25: 15, 28: 1, 8: 32}","[3, 8, 25, 28]",388322515281,Li8Mn15Ni1O32
Li8AsO3,mp-1102163,0.0,0.89425198,0.2910306513020826,"{3: 8, 33: 1, 8: 3}","[3, 8, 33]",3883331,Li8As1O3
Li8SbO3,mp-1102716,0.0,1.6454749,0.41298208347222154,"{3: 8, 51: 1, 8: 3}","[3, 8, 51]",3883511,Li8Sb1O3
Li8BiO3,mp-1102865,0.0,1.6480683,0.44899273916666615,"{3: 8, 83: 1, 8: 3}","[3, 8, 83]",3883831,Li8Bi1O3
Na2Li8U11(WO22)2,mp-555626,0.0,2.62652941,0.015343887761183339,"{11: 2, 3: 8, 92: 11, 74: 2, 8: 44}","[3, 8, 11, 74, 92]",388441127429211,Na2Li8U11W2O44
Li8TiMn7(PO4)12,mp-776113,0.16609999999999991,1.36988005,0.013263492908441421,"{3: 8, 22: 1, 25: 7, 15: 12, 8: 48}","[3, 8, 15, 22, 25]",388481512221257,Li8Ti1Mn7P12O48
Li8Mn7V(PO4)12,mp-780716,0.0132000000000001,1.16528015,0.017366117494479916,"{3: 8, 25: 7, 23: 1, 15: 12, 8: 48}","[3, 8, 15, 23, 25]",388481512231257,Li8Mn7V1P12O48
Li8Mn7Cr(PO4)12,mp-776829,0.0,1.28205031,0.018576753775588983,"{3: 8, 25: 7, 24: 1, 15: 12, 8: 48}","[3, 8, 15, 24, 25]",388481512241257,Li8Mn7Cr1P12O48
Li8MnCo7(PO4)12,mp-758579,0.0,0.53901175,0.03914467607639249,"{3: 8, 25: 1, 27: 7, 15: 12, 8: 48}","[3, 8, 15, 25, 27]",388481512251277,Li8Mn1Co7P12O48
Li8MnNi7(PO4)12,mp-777316,0.0,0.38887183,0.0811653634831897,"{3: 8, 25: 1, 28: 7, 15: 12, 8: 48}","[3, 8, 15, 25, 28]",388481512251287,Li8Mn1Ni7P12O48
Li8Mn7Co(PO4)12,mp-758412,0.019600000000000062,1.37106321,0.024516787666310158,"{3: 8, 25: 7, 27: 1, 15: 12, 8: 48}","[3, 8, 15, 25, 27]",388481512257271,Li8Mn7Co1P12O48
Li8Mn7Ni(PO4)12,mp-776162,0.0,1.18300272,0.021337578461263718,"{3: 8, 25: 7, 28: 1, 15: 12, 8: 48}","[3, 8, 15, 25, 28]",388481512257281,Li8Mn7Ni1P12O48
Li8Mn7Nb(PO4)12,mp-780717,0.18379999999999996,1.09103152,0.013808068316948585,"{3: 8, 25: 7, 41: 1, 15: 12, 8: 48}","[3, 8, 15, 25, 41]",388481512257411,Li8Mn7Nb1P12O48
Li8Mn7Sn(PO4)12,mp-1176895,0.3447,1.16449775,0.014281063322373555,"{3: 8, 25: 7, 50: 1, 15: 12, 8: 48}","[3, 8, 15, 25, 50]",388481512257501,Li8Mn7Sn1P12O48
Li8Mn7Sb(PO4)12,mp-1176842,0.0,1.19427944,0.014893429468163077,"{3: 8, 25: 7, 51: 1, 15: 12, 8: 48}","[3, 8, 15, 25, 51]",388481512257511,Li8Mn7Sb1P12O48
Li8Mn(O2F)2,mp-763440,2.6852,1.52558675,0.071132153333334,"{3: 8, 25: 1, 8: 4, 9: 2}","[3, 8, 9, 25]",388492251,Li8Mn1O4F2
Li8Co(O2F)2,mp-759827,2.2193,1.07988379,0.08297974299999566,"{3: 8, 27: 1, 8: 4, 9: 2}","[3, 8, 9, 27]",388492271,Li8Co1O4F2
Li8Ni(O2F)2,mp-1176816,3.2285000000000004,1.00248262,0.07725531883333492,"{3: 8, 28: 1, 8: 4, 9: 2}","[3, 8, 9, 28]",388492281,Li8Ni1O4F2
Li8VO5F,mp-752889,2.1185,1.95530826,0.04911687450000013,"{3: 8, 23: 1, 8: 5, 9: 1}","[3, 8, 9, 23]",388591231,Li8V1O5F1
Li8MnO5F,mp-753625,1.7231,0.87564485,0.026982924166666145,"{3: 8, 25: 1, 8: 5, 9: 1}","[3, 8, 9, 25]",388591251,Li8Mn1O5F1
Li8CoO5F,mp-1176847,1.7086000000000001,1.9909796,0.029465703333336535,"{3: 8, 27: 1, 8: 5, 9: 1}","[3, 8, 9, 27]",388591271,Li8Co1O5F1
Li8NiO5F,mp-764727,1.8044000000000002,0.31208969,0.032073054222220954,"{3: 8, 28: 1, 8: 5, 9: 1}","[3, 8, 9, 28]",388591281,Li8Ni1O5F1
Li8SiO6,mp-28549,4.4497,0.7413921,0.0,"{3: 8, 14: 1, 8: 6}","[3, 8, 14]",3886141,Li8Si1O6
Li8TiO6,mp-772521,3.9915999999999996,0.25057482,0.0035244373333318535,"{3: 8, 22: 1, 8: 6}","[3, 8, 22]",3886221,Li8Ti1O6
Li8VO6,mp-756255,1.5407999999999997,1.66293374,0.02757651049999943,"{3: 8, 23: 1, 8: 6}","[3, 8, 23]",3886231,Li8V1O6
Li8CrO6,mp-780493,1.7651999999999997,0.56186518,0.003891898500000046,"{3: 8, 24: 1, 8: 6}","[3, 8, 24]",3886241,Li8Cr1O6
Li8MnO6,mp-755817,1.5049000000000001,0.91886,0.03001457999999868,"{3: 8, 25: 1, 8: 6}","[3, 8, 25]",3886251,Li8Mn1O6
Li8CoO6,mp-27920,1.0757999999999999,0.0287317,0.008495306333334618,"{3: 8, 27: 1, 8: 6}","[3, 8, 27]",3886271,Li8Co1O6
Li8GeO6,mp-28548,3.4877000000000002,0.273683,0.0006375609999969001,"{3: 8, 32: 1, 8: 6}","[3, 8, 32]",3886321,Li8Ge1O6
Li8ZrO6,mp-755225,4.5525,0.51468671,0.000657790999999186,"{3: 8, 40: 1, 8: 6}","[3, 8, 40]",3886401,Li8Zr1O6
Li8NbO6,mp-774697,0.0,4.11641487,0.06369841470832682,"{3: 8, 41: 1, 8: 6}","[3, 8, 41]",3886411,Li8Nb1O6
Li8SnO6,mp-4527,3.8134000000000006,1.46240505,0.0,"{3: 8, 50: 1, 8: 6}","[3, 8, 50]",3886501,Li8Sn1O6
Li8TeO6,mp-760690,2.3785999999999996,2.91819636,0.0938466404999998,"{3: 8, 52: 1, 8: 6}","[3, 8, 52]",3886521,Li8Te1O6
Li8CeO6,mp-8611,2.5162,1.10623427,0.0020737446666787562,"{3: 8, 58: 1, 8: 6}","[3, 8, 58]",3886581,Li8Ce1O6
Li8PrO6,mp-8424,0.0,-0.02448972,0.07157465762499982,"{3: 8, 59: 1, 8: 6}","[3, 8, 59]",3886591,Li8Pr1O6
Li8TbO6,mp-8425,0.0,-0.04694528,0.05069250866666586,"{3: 8, 65: 1, 8: 6}","[3, 8, 65]",3886651,Li8Tb1O6
Li8HfO6,mp-752922,4.9506,0.58124076,0.0027663176666674616,"{3: 8, 72: 1, 8: 6}","[3, 8, 72]",3886721,Li8Hf1O6
Li8WO6,mp-755616,2.7062999999999997,2.08204703,0.021195023555552694,"{3: 8, 74: 1, 8: 6}","[3, 8, 74]",3886741,Li8W1O6
Li8IrO6,mp-8469,0.0,2.57957238,0.005303040733334541,"{3: 8, 77: 1, 8: 6}","[3, 8, 77]",3886771,Li8Ir1O6
Li8PtO6,mp-8610,2.1611,1.77105021,0.0,"{3: 8, 78: 1, 8: 6}","[3, 8, 78]",3886781,Li8Pt1O6
Li8PbO6,mp-22538,2.3403,1.09596685,0.0010535976666634639,"{3: 8, 82: 1, 8: 6}","[3, 8, 82]",3886821,Li8Pb1O6
Li8BiO6,mp-754586,0.0,2.40385681,0.028812937083333878,"{3: 8, 83: 1, 8: 6}","[3, 8, 83]",3886831,Li8Bi1O6
Li8Ti2O7,mp-772920,0.7655000000000003,3.63900933,0.08782992773529319,"{3: 8, 22: 2, 8: 7}","[3, 8, 22]",3887222,Li8Ti2O7
Li8Mn2O7,mp-770513,0.9121999999999999,1.29806822,0.10633301544117657,"{3: 8, 25: 2, 8: 7}","[3, 8, 25]",3887252,Li8Mn2O7
Li8Co3NiO8,mp-761167,0.0,1.73459728,0.0875605916250013,"{3: 8, 27: 3, 28: 1, 8: 8}","[3, 8, 27, 28]",3888273281,Li8Co3Ni1O8
Li8Cr2O9,mp-770861,0.45829999999999993,2.14467798,0.07554991934209987,"{3: 8, 24: 2, 8: 9}","[3, 8, 24]",3889242,Li8Cr2O9
Li8Mn2O9,mp-773132,0.0,0.75946932,0.06717556947368486,"{3: 8, 25: 2, 8: 9}","[3, 8, 25]",3889252,Li8Mn2O9
Li8Nb2O9,mp-28030,3.2086,0.80734799,0.0,"{3: 8, 41: 2, 8: 9}","[3, 8, 41]",3889412,Li8Nb2O9
Li8Te2O9,mp-772619,1.9261000000000004,3.08250013,0.047746814868420806,"{3: 8, 52: 2, 8: 9}","[3, 8, 52]",3889522,Li8Te2O9
Li9Al4,mp-568404,0.0,2.41339951,0.0,"{3: 9, 13: 4}","[3, 13]",39134,Li9Al4
Li9Nd2(PS4)5,mp-1223032,2.6719,2.05484699,0.0,"{3: 9, 60: 2, 15: 5, 16: 20}","[3, 15, 16, 60]",391551620602,Li9Nd2P5S20
Li9Sb3S,mp-767516,0.0,2.86990067,0.09263451583333326,"{3: 9, 51: 3, 16: 1}","[3, 16, 51]",39161513,Li9Sb3S1
Li9(NbS2)14,mp-767218,0.0,4.67213015,0.0,"{3: 9, 41: 14, 16: 28}","[3, 16, 41]",3916284114,Li9Nb14S28
Li9Ge4,mp-2362521,0.0,1.67271661,0.0,"{3: 9, 32: 4}","[3, 32]",39324,Li9Ge4
Li9Ag4,mp-1222549,0.0,1.08643412,0.009478446153845965,"{3: 9, 47: 4}","[3, 47]",39474,Li9Ag4
Li95Mn16O64,mp-1185524,0.0,3.22862578,0.01289744428571371,"{3: 95, 25: 16, 8: 64}","[3, 8, 25]",3958642516,Li95Mn16O64
Li9Cr4(BO3)8,mp-759279,0.5138,0.67901095,0.09105069077314187,"{3: 9, 24: 4, 5: 8, 8: 24}","[3, 5, 8, 24]",3958824244,Li9Cr4B8O24
Li9Mn4(BO3)8,mp-759917,0.6737,1.45387083,0.07936454837777784,"{3: 9, 25: 4, 5: 8, 8: 24}","[3, 5, 8, 25]",3958824254,Li9Mn4B8O24
Li9Cr4P4(CO7)4,mp-1176987,0.3859999999999997,3.19994641,0.03566708676658159,"{3: 9, 24: 4, 15: 4, 6: 4, 8: 28}","[3, 6, 8, 15, 24]",3964828154244,Li9Cr4P4C4O28
Li9Mn2(CO3)8,mp-780774,0.0,0.33654,0.06522566829455734,"{3: 9, 25: 2, 6: 8, 8: 24}","[3, 6, 8, 25]",3968824252,Li9Mn2C8O24
Li9Cr4C8(SO16)2,mp-776454,0.014699999999999935,2.6553876,0.07912392450447658,"{3: 9, 24: 4, 6: 8, 16: 2, 8: 32}","[3, 6, 8, 16, 24]",3968832162244,Li9Cr4C8S2O32
Li9S3N,mp-557964,2.4272,1.7494379,0.003155943076922796,"{3: 9, 16: 3, 7: 1}","[3, 7, 16]",3971163,Li9S3N1
Li9Ta11N20,mp-676215,0.0,5.17554904,0.7087315589903866,"{3: 9, 73: 11, 7: 20}","[3, 7, 73]",397207311,Li9Ta11N20
Li9Mn3N4,mp-1222566,0.0,2.26575278,0.11283955796695366,"{3: 9, 25: 3, 7: 4}","[3, 7, 25]",3974253,Li9Mn3N4
Li9CrN5,mp-675918,1.0746000000000002,2.03292615,0.010000465999999264,"{3: 9, 24: 1, 7: 5}","[3, 7, 24]",3975241,Li9Cr1N5
Li9Mn(SiO5)2,mp-1176791,1.1311,0.96777698,0.0860524520454522,"{3: 9, 25: 1, 14: 2, 8: 10}","[3, 8, 14, 25]",39810142251,Li9Mn1Si2O10
Li9Si2NiO10,mp-1176868,0.0,0.27005259,0.09276646696969593,"{3: 9, 14: 2, 28: 1, 8: 10}","[3, 8, 14, 28]",39810142281,Li9Si2Ni1O10
Li9Cr5O12,mp-761270,1.1694999999999998,3.31773465,0.06579696038461691,"{3: 9, 24: 5, 8: 12}","[3, 8, 24]",39812245,Li9Cr5O12
Li9Mn5O12,mp-1176815,1.3548,1.94506426,0.07813993519230689,"{3: 9, 25: 5, 8: 12}","[3, 8, 25]",39812255,Li9Mn5O12
Li9Bi5O13,mp-779282,0.20630000000000015,2.51219668,0.07777169268518147,"{3: 9, 83: 5, 8: 13}","[3, 8, 83]",39813835,Li9Bi5O13
Li9Ti5(SiO8)2,mp-766170,0.0,6.4620481,0.07390663234373562,"{3: 9, 22: 5, 14: 2, 8: 16}","[3, 8, 14, 22]",39816142225,Li9Ti5Si2O16
Li9V5(SiO8)2,mp-767624,1.6405000000000003,4.20079204,0.05851864015625008,"{3: 9, 23: 5, 14: 2, 8: 16}","[3, 8, 14, 23]",39816142235,Li9V5Si2O16
Li9Cr5(SiO8)2,mp-756673,0.9802999999999997,5.00547507,0.06123485781250082,"{3: 9, 24: 5, 14: 2, 8: 16}","[3, 8, 14, 24]",39816142245,Li9Cr5Si2O16
Li9Mn5(SiO8)2,mp-859122,1.1513000000000004,3.37934101,0.07138917499999398,"{3: 9, 25: 5, 14: 2, 8: 16}","[3, 8, 14, 25]",39816142255,Li9Mn5Si2O16
Li9Si2Ni5O16,mp-859799,0.5962999999999998,4.03100583,0.04171056645833371,"{3: 9, 14: 2, 28: 5, 8: 16}","[3, 8, 14, 28]",39816142285,Li9Si2Ni5O16
K8Li9Cr4O16,mp-850924,0.7693000000000003,2.3028867,0.06867008748648651,"{19: 8, 3: 9, 24: 4, 8: 16}","[3, 8, 19, 24]",39816198244,K8Li9Cr4O16
K8Li9Mn4O16,mp-757769,0.43579999999999997,1.32011423,0.04617884925382043,"{19: 8, 3: 9, 25: 4, 8: 16}","[3, 8, 19, 25]",39816198254,K8Li9Mn4O16
Li9Mn2Co5O16,mp-1175684,0.0,3.61663447,0.04835629343749748,"{3: 9, 25: 2, 27: 5, 8: 16}","[3, 8, 25, 27]",39816252275,Li9Mn2Co5O16
Li9Mn7O16,mp-1100541,0.9314999999999998,2.71394468,0.022888975468738693,"{3: 9, 25: 7, 8: 16}","[3, 8, 25]",39816257,Li9Mn7O16
Li9Co7O16,mp-1175469,0.7064000000000004,2.81612593,0.007600354062502035,"{3: 9, 27: 7, 8: 16}","[3, 8, 27]",39816277,Li9Co7O16
Li9Mg3P4O16F3,mp-1203004,5.5656,1.22601564,0.009804537892854626,"{3: 9, 12: 3, 15: 4, 8: 16, 9: 3}","[3, 8, 9, 12, 15]",3981693123154,Li9Mg3P4O16F3
Li9Co9O17,mp-728514,0.7031999999999998,3.90655013,0.14732817461607262,"{3: 9, 27: 9, 8: 17}","[3, 8, 27]",39817279,Li9Co9O17
Li9Mn10O20,mp-780186,0.0,3.24885451,0.04464573628203983,"{3: 9, 25: 10, 8: 20}","[3, 8, 25]",398202510,Li9Mn10O20
Li9(NiO2)10,mp-769454,0.0,3.78100841,0.007697612446581736,"{3: 9, 28: 10, 8: 20}","[3, 8, 28]",398202810,Li9Ni10O20
Li9TiMn3(PO4)6,mp-768514,0.3675999999999995,3.93219171,0.07582889041528063,"{3: 9, 22: 1, 25: 3, 15: 6, 8: 24}","[3, 8, 15, 22, 25]",39824156221253,Li9Ti1Mn3P6O24
Li9V4(PO4)6,mp-760985,0.009199999999999875,3.38655693,0.04665908848838107,"{3: 9, 23: 4, 15: 6, 8: 24}","[3, 8, 15, 23]",39824156234,Li9V4P6O24
Li9Nd6Sb3TeO24,mp-690979,3.2617999999999996,5.7195969,0.021311449186049103,"{3: 9, 60: 6, 51: 3, 52: 1, 8: 24}","[3, 8, 51, 52, 60]",39824513521606,Li9Nd6Sb3Te1O24
Li9Mg(Ni6O13)2,mp-759044,0.38639999999999963,2.89946165,0.03208261026620818,"{3: 9, 12: 1, 28: 12, 8: 26}","[3, 8, 12, 28]",398261212812,Li9Mg1Ni12O26
Li9V3(WO4)7,mp-777624,1.5507,2.16678092,0.0934244552127712,"{3: 9, 23: 3, 74: 7, 8: 28}","[3, 8, 23, 74]",39828233747,Li9V3W7O28
Li9Cr3(WO4)7,mp-778229,0.0,2.45241223,0.10793779446808571,"{3: 9, 24: 3, 74: 7, 8: 28}","[3, 8, 24, 74]",39828243747,Li9Cr3W7O28
Li9Mn3(WO4)7,mp-777686,0.0,2.81744669,0.07140714007091908,"{3: 9, 25: 3, 74: 7, 8: 28}","[3, 8, 25, 74]",39828253747,Li9Mn3W7O28
Li9Co13O28,mp-758645,0.0484,2.61783004,0.03895447187159107,"{3: 9, 27: 13, 8: 28}","[3, 8, 27]",398282713,Li9Co13O28
Li9Co15O28,mp-758799,0.5489000000000002,2.24907306,0.12866674733173955,"{3: 9, 27: 15, 8: 28}","[3, 8, 27]",398282715,Li9Co15O28
Li9Ni15O28,mp-759153,0.0,3.61624426,0.03515825080128465,"{3: 9, 28: 15, 8: 28}","[3, 8, 28]",398282815,Li9Ni15O28
Li9Al3P8O29,mp-560209,5.3647,1.80265214,0.010622329778911421,"{3: 9, 13: 3, 15: 8, 8: 29}","[3, 8, 13, 15]",39829133158,Li9Al3P8O29
Li9V3P8O29,mp-27013,3.489,1.83341627,0.0001637682482957814,"{3: 9, 23: 3, 15: 8, 8: 29}","[3, 8, 15, 23]",39829158233,Li9V3P8O29
Li9Cr3P8O29,mp-26975,2.8701,1.16657136,0.0,"{3: 9, 24: 3, 15: 8, 8: 29}","[3, 8, 15, 24]",39829158243,Li9Cr3P8O29
Li9Mn3P8O29,mp-26035,1.4499000000000002,1.22978005,0.0,"{3: 9, 25: 3, 15: 8, 8: 29}","[3, 8, 15, 25]",39829158253,Li9Mn3P8O29
Li9Co3P8O29,mp-583985,0.8798000000000001,1.32594411,0.01482628947278819,"{3: 9, 27: 3, 15: 8, 8: 29}","[3, 8, 15, 27]",39829158273,Li9Co3P8O29
Li9Ga3P8O29,mp-560058,3.3283000000000005,1.10660147,0.012563674880953002,"{3: 9, 31: 3, 15: 8, 8: 29}","[3, 8, 15, 31]",39829158313,Li9Ga3P8O29
Li9Nb3P8O29,mp-778150,0.1548999999999996,4.02194672,0.10850298079628029,"{3: 9, 41: 3, 15: 8, 8: 29}","[3, 8, 15, 41]",39829158413,Li9Nb3P8O29
Li9Sn3P8O29,mp-779010,0.0,3.58293585,0.0801141351955783,"{3: 9, 50: 3, 15: 8, 8: 29}","[3, 8, 15, 50]",39829158503,Li9Sn3P8O29
Li9Sb3P8O29,mp-776589,3.8270000000000004,2.10392101,0.055663904268706155,"{3: 9, 51: 3, 15: 8, 8: 29}","[3, 8, 15, 51]",39829158513,Li9Sb3P8O29
Li9P8W3O29,mp-776590,4.3885000000000005,1.94793915,0.02419612009354921,"{3: 9, 15: 8, 74: 3, 8: 29}","[3, 8, 15, 74]",39829158743,Li9P8W3O29
Li9Bi3P8O29,mp-585305,4.1806,1.42444387,0.04966954263605583,"{3: 9, 83: 3, 15: 8, 8: 29}","[3, 8, 15, 83]",39829158833,Li9Bi3P8O29
Li9Ti12NbO30,mp-767490,0.0,4.79629893,0.021029991346150467,"{3: 9, 22: 12, 41: 1, 8: 30}","[3, 8, 22, 41]",398302212411,Li9Ti12Nb1O30
Li9Ti7Cr6O30,mp-759088,0.0,2.99870809,0.09394192571046567,"{3: 9, 22: 7, 24: 6, 8: 30}","[3, 8, 22, 24]",39830227246,Li9Ti7Cr6O30
Li9Ti7Nb5O30,mp-767497,0.0,4.06995453,0.05592795808823503,"{3: 9, 22: 7, 41: 5, 8: 30}","[3, 8, 22, 41]",39830227415,Li9Ti7Nb5O30
Li9(RuO3)10,mp-676252,0.0,1.39352654,0.06631701576530613,"{3: 9, 44: 10, 8: 30}","[3, 8, 44]",398304410,Li9Ru10O30
Li9V5(Si5O16)2,mp-863437,1.4964999999999993,4.41047711,0.09500964493304664,"{3: 9, 23: 5, 14: 10, 8: 32}","[3, 8, 14, 23]",398321410235,Li9V5Si10O32
Li9Mn12Ni3O32,mp-769460,0.0,2.07052426,0.0009540403988097523,"{3: 9, 25: 12, 28: 3, 8: 32}","[3, 8, 25, 28]",398322512283,Li9Mn12Ni3O32
Li9Mn14O32,mp-766830,0.2584000000000004,2.62572757,0.01672804733332356,"{3: 9, 25: 14, 8: 32}","[3, 8, 25]",398322514,Li9Mn14O32
Li9Mn15O32,mp-769450,0.5789,2.44661227,0.005941570803557283,"{3: 9, 25: 15, 8: 32}","[3, 8, 25]",398322515,Li9Mn15O32
Li9Ni23O32,mp-531942,0.0,4.41508208,0.024326365468750666,"{3: 9, 28: 23, 8: 32}","[3, 8, 28]",398322823,Li9Ni23O32
Li9V14O35,mp-779050,0.5067000000000002,1.83086077,0.07252442810345272,"{3: 9, 23: 14, 8: 35}","[3, 8, 23]",398352314,Li9V14O35
Li9V21O40,mp-766679,0.6539999999999999,3.16355717,0.015283853428572414,"{3: 9, 23: 21, 8: 40}","[3, 8, 23]",398402321,Li9V21O40
Li9Mn20O40,mp-690161,0.49960000000000004,2.45933636,0.010431950675115154,"{3: 9, 25: 20, 8: 40}","[3, 8, 25]",398402520,Li9Mn20O40
Li9Mn21O40,mp-776365,0.3656999999999999,3.0070753,0.005166711714278627,"{3: 9, 25: 21, 8: 40}","[3, 8, 25]",398402521,Li9Mn21O40
Li9Mn7(PO4)12,mp-778041,0.0,1.03574592,0.035578838037282345,"{3: 9, 25: 7, 15: 12, 8: 48}","[3, 8, 15, 25]",398481512257,Li9Mn7P12O48
Li9V12Cr7O48,mp-772575,0.015800000000000036,0.66482782,0.06516621094846187,"{3: 9, 23: 12, 24: 7, 8: 48}","[3, 8, 23, 24]",398482312247,Li9V12Cr7O48
Li9Mn7V12O48,mp-831248,0.37649999999999983,1.29966666,0.04008814907346103,"{3: 9, 25: 7, 23: 12, 8: 48}","[3, 8, 23, 25]",398482312257,Li9Mn7V12O48
Li9Nb7V12O48,mp-849386,1.3957000000000002,1.29460755,0.08588251469737074,"{3: 9, 41: 7, 23: 12, 8: 48}","[3, 8, 23, 41]",398482312417,Li9Nb7V12O48
Li9V12Te7O48,mp-780621,1.7585,1.76415241,0.06216066764802619,"{3: 9, 23: 12, 52: 7, 8: 48}","[3, 8, 23, 52]",398482312527,Li9V12Te7O48
Li9V19O48,mp-776279,1.2160999999999997,1.2094087,0.03332613269737372,"{3: 9, 23: 19, 8: 48}","[3, 8, 23]",398482319,Li9V19O48
Li9Mn7Cr12O48,mp-851099,0.22420000000000007,0.80126107,0.0956911084380474,"{3: 9, 25: 7, 24: 12, 8: 48}","[3, 8, 24, 25]",398482412257,Li9Mn7Cr12O48
Li9Cr12Co7O48,mp-772364,0.0,0.97675155,0.03959854459703305,"{3: 9, 24: 12, 27: 7, 8: 48}","[3, 8, 24, 27]",398482412277,Li9Cr12Co7O48
Li9Cr12Ni7O48,mp-1177063,0.0,0.24603479,0.03585661903070747,"{3: 9, 24: 12, 28: 7, 8: 48}","[3, 8, 24, 28]",398482412287,Li9Cr12Ni7O48
Li9Cr19O48,mp-851096,0.05259999999999998,1.42866466,0.06586282942984045,"{3: 9, 24: 19, 8: 48}","[3, 8, 24]",398482419,Li9Cr19O48
Li9Mn22O48,mp-530336,0.0,2.16695707,0.056039738818577156,"{3: 9, 25: 22, 8: 48}","[3, 8, 25]",398482522,Li9Mn22O48
Li9La12(SnO6)8,mp-1223174,0.002000000000000224,2.98529095,0.19329801974953575,"{3: 9, 57: 12, 50: 8, 8: 48}","[3, 8, 50, 57]",398485085712,Li9La12Sn8O48
Li9V6(P8O29)2,mp-1176978,0.248,0.7353111,0.04382339840824123,"{3: 9, 23: 6, 15: 16, 8: 58}","[3, 8, 15, 23]",398581516236,Li9V6P16O58