formula,material_id,band_gap,efermi,energy_above_hull,comp_atoms,sorted_keys_comp_atoms,comp_number,new_formula
Li2VNi(PO4)2,mp-752716,1.1854000000000005,4.54889233,0.04071283794642788,"{3: 2, 23: 1, 28: 1, 15: 2, 8: 8}","[3, 8, 15, 23, 28]",3288152231281,Li2V1Ni1P2O8
Li2VSn(PO4)2,mp-756985,2.3648999999999996,4.0018197,0.07190341068452799,"{3: 2, 23: 1, 50: 1, 15: 2, 8: 8}","[3, 8, 15, 23, 50]",3288152231501,Li2V1Sn1P2O8
Li2Cr(PO4)2,mp-779887,0.0363,0.83233273,0.05760615606227315,"{3: 2, 24: 1, 15: 2, 8: 8}","[3, 8, 15, 24]",3288152241,Li2Cr1P2O8
Li2MnCr(PO4)2,mp-757355,1.9013,3.68602678,0.0022829413839309254,"{3: 2, 25: 1, 24: 1, 15: 2, 8: 8}","[3, 8, 15, 24, 25]",3288152241251,Li2Mn1Cr1P2O8
Li2CrCo(PO4)2,mp-757895,0.6561999999999992,3.98194589,0.04492444857142708,"{3: 2, 24: 1, 27: 1, 15: 2, 8: 8}","[3, 8, 15, 24, 27]",3288152241271,Li2Cr1Co1P2O8
Li2CrNi(PO4)2,mp-757714,1.7405,4.46447453,0.03596327258929222,"{3: 2, 24: 1, 28: 1, 15: 2, 8: 8}","[3, 8, 15, 24, 28]",3288152241281,Li2Cr1Ni1P2O8
Li2CrSn(PO4)2,mp-752553,2.0591999999999997,3.67817385,0.06516472252381167,"{3: 2, 24: 1, 50: 1, 15: 2, 8: 8}","[3, 8, 15, 24, 50]",3288152241501,Li2Cr1Sn1P2O8
Li2Mn(PO4)2,mp-753291,0.7397999999999999,0.76453094,0.006089310811970172,"{3: 2, 25: 1, 15: 2, 8: 8}","[3, 8, 15, 25]",3288152251,Li2Mn1P2O8
Li2MnCo(PO4)2,mp-755452,2.4608999999999996,2.72306472,0.021353588392857503,"{3: 2, 25: 1, 27: 1, 15: 2, 8: 8}","[3, 8, 15, 25, 27]",3288152251271,Li2Mn1Co1P2O8
Li2MnNi(PO4)2,mp-778744,2.6904999999999997,3.27149267,0.004494667500000382,"{3: 2, 25: 1, 28: 1, 15: 2, 8: 8}","[3, 8, 15, 25, 28]",3288152251281,Li2Mn1Ni1P2O8
Li2MnSn(PO4)2,mp-860889,3.0925,3.46094806,0.05740511083333821,"{3: 2, 25: 1, 50: 1, 15: 2, 8: 8}","[3, 8, 15, 25, 50]",3288152251501,Li2Mn1Sn1P2O8
Li2Co(PO4)2,mp-583967,0.0,-0.59880871,0.06757822221153731,"{3: 2, 27: 1, 15: 2, 8: 8}","[3, 8, 15, 27]",3288152271,Li2Co1P2O8
Li2CoNi(PO4)2,mp-757611,2.0977,3.21232169,0.01538947589285744,"{3: 2, 27: 1, 28: 1, 15: 2, 8: 8}","[3, 8, 15, 27, 28]",3288152271281,Li2Co1Ni1P2O8
Li2CoSn(PO4)2,mp-1662777,2.3415,5.14970654,0.0743318676190503,"{3: 2, 27: 1, 50: 1, 15: 2, 8: 8}","[3, 8, 15, 27, 50]",3288152271501,Li2Co1Sn1P2O8
Li2Ni(PO4)2,mp-26692,0.0,1.7696233,0.11939110532051167,"{3: 2, 28: 1, 15: 2, 8: 8}","[3, 8, 15, 28]",3288152281,Li2Ni1P2O8
Li2NiSn(PO4)2,mp-770823,1.7729999999999997,4.00647861,0.07876822011904938,"{3: 2, 28: 1, 50: 1, 15: 2, 8: 8}","[3, 8, 15, 28, 50]",3288152281501,Li2Ni1Sn1P2O8
Li2Nb(PO4)2,mp-26721,0.09200000000000008,3.16797478,0.060918773865384246,"{3: 2, 41: 1, 15: 2, 8: 8}","[3, 8, 15, 41]",3288152411,Li2Nb1P2O8
Li2Mo(PO4)2,mp-583981,1.9317,1.3233865,0.027315475384603438,"{3: 2, 42: 1, 15: 2, 8: 8}","[3, 8, 15, 42]",3288152421,Li2Mo1P2O8
Li2In(PO4)2,mp-1210850,0.13559999999999994,1.1486223,0.061006640769231346,"{3: 2, 49: 1, 15: 2, 8: 8}","[3, 8, 15, 49]",3288152491,Li2In1P2O8
Li2P2WO8,mp-753190,2.7776000000000005,1.14283529,0.006334047692308609,"{3: 2, 15: 2, 74: 1, 8: 8}","[3, 8, 15, 74]",3288152741,Li2P2W1O8
Li2Bi(PO4)2,mp-25802,0.16720000000000002,1.424703,0.06621921451923196,"{3: 2, 83: 1, 15: 2, 8: 8}","[3, 8, 15, 83]",3288152831,Li2Bi1P2O8
Li2V(SO4)2,mp-759347,3.5671999999999997,3.03975298,0.03629283257085536,"{3: 2, 23: 1, 16: 2, 8: 8}","[3, 8, 16, 23]",3288162231,Li2V1S2O8
Li2Cr(SO4)2,mp-850862,2.2485999999999997,2.47035617,0.035952404697797036,"{3: 2, 24: 1, 16: 2, 8: 8}","[3, 8, 16, 24]",3288162241,Li2Cr1S2O8
Li2Mn(SO4)2,mp-1193172,3.5794000000000006,0.89647613,0.0,"{3: 2, 25: 1, 16: 2, 8: 8}","[3, 8, 16, 25]",3288162251,Li2Mn1S2O8
Li2Co(SO4)2,mp-1194281,3.2144000000000004,0.44922093,0.0,"{3: 2, 27: 1, 16: 2, 8: 8}","[3, 8, 16, 27]",3288162271,Li2Co1S2O8
Li2Ni(SO4)2,mp-560212,4.045400000000001,2.15837252,0.0018033458653841095,"{3: 2, 28: 1, 16: 2, 8: 8}","[3, 8, 16, 28]",3288162281,Li2Ni1S2O8
Li2Sn(SO4)2,mp-780576,3.7469,1.94057356,0.051549445384615034,"{3: 2, 50: 1, 16: 2, 8: 8}","[3, 8, 16, 50]",3288162501,Li2Sn1S2O8
Li2TiV3O8,mp-1304584,1.0657,2.92804621,0.0059588192857287225,"{3: 2, 22: 1, 23: 3, 8: 8}","[3, 8, 22, 23]",3288221233,Li2Ti1V3O8
Li2TiCr3O8,mp-1275461,0.8332999999999997,2.09189165,0.015421386765872569,"{3: 2, 22: 1, 24: 3, 8: 8}","[3, 8, 22, 24]",3288221243,Li2Ti1Cr3O8
Li2TiMn2NiO8,mp-1222732,0.7694000000000001,2.69683494,0.025739022202369455,"{3: 2, 22: 1, 25: 2, 28: 1, 8: 8}","[3, 8, 22, 25, 28]",3288221252281,Li2Ti1Mn2Ni1O8
Li2TiMn3O8,mp-775166,0.5058000000000002,2.57855882,0.015388668928576266,"{3: 2, 22: 1, 25: 3, 8: 8}","[3, 8, 22, 25]",3288221253,Li2Ti1Mn3O8
Li2TiCo3O8,mp-754682,0.0,3.46115146,0.028677523839284902,"{3: 2, 22: 1, 27: 3, 8: 8}","[3, 8, 22, 27]",3288221273,Li2Ti1Co3O8
Li2TiNi3O8,mp-775328,0.6650999999999998,2.84360559,0.040506672401863675,"{3: 2, 22: 1, 28: 3, 8: 8}","[3, 8, 22, 28]",3288221283,Li2Ti1Ni3O8
Li2TiNb3O8,mp-772710,0.0,4.34908332,0.10016466876373542,"{3: 2, 22: 1, 41: 3, 8: 8}","[3, 8, 22, 41]",3288221413,Li2Ti1Nb3O8
Li2Ti2MnNiO8,mp-1222689,1.0697,2.54762272,0.027664237619041465,"{3: 2, 22: 2, 25: 1, 28: 1, 8: 8}","[3, 8, 22, 25, 28]",3288222251281,Li2Ti2Mn1Ni1O8
Li2Ti3VO8,mp-775161,0.21060000000000034,3.85540706,0.000623174999995868,"{3: 2, 22: 3, 23: 1, 8: 8}","[3, 8, 22, 23]",3288223231,Li2Ti3V1O8
Li2Ti3CrO8,mp-756280,0.0,4.63580353,0.0027017785416632023,"{3: 2, 22: 3, 24: 1, 8: 8}","[3, 8, 22, 24]",3288223241,Li2Ti3Cr1O8
Li2Ti3MnO8,mp-775865,2.0685999999999996,2.47568501,0.0,"{3: 2, 22: 3, 25: 1, 8: 8}","[3, 8, 22, 25]",3288223251,Li2Ti3Mn1O8
Li2Ti3CoO8,mp-768110,2.1204,2.33104343,0.0,"{3: 2, 22: 3, 27: 1, 8: 8}","[3, 8, 22, 27]",3288223271,Li2Ti3Co1O8
Li2Ti3NiO8,mp-775326,2.3305,2.21679076,0.0,"{3: 2, 22: 3, 28: 1, 8: 8}","[3, 8, 22, 28]",3288223281,Li2Ti3Ni1O8
Li2Ti3ZnO8,mp-774797,3.1267999999999994,1.58489635,0.0,"{3: 2, 22: 3, 30: 1, 8: 8}","[3, 8, 22, 30]",3288223301,Li2Ti3Zn1O8
Li2Ti3NbO8,mp-776215,0.0,4.93277903,0.05960026535714391,"{3: 2, 22: 3, 41: 1, 8: 8}","[3, 8, 22, 41]",3288223411,Li2Ti3Nb1O8
Li2Ti3SnO8,mp-779116,1.2185999999999995,5.29903916,0.06615110857143236,"{3: 2, 22: 3, 50: 1, 8: 8}","[3, 8, 22, 50]",3288223501,Li2Ti3Sn1O8
Li2Ti3SbO8,mp-774449,0.0,5.48754908,0.09216778988095431,"{3: 2, 22: 3, 51: 1, 8: 8}","[3, 8, 22, 51]",3288223511,Li2Ti3Sb1O8
Li2Ti3BiO8,mp-754723,0.0,4.65780043,0.11620019839285778,"{3: 2, 22: 3, 83: 1, 8: 8}","[3, 8, 22, 83]",3288223831,Li2Ti3Bi1O8
Li2Ti4VO8,mp-753566,0.0,6.3019189,0.10414114999999491,"{3: 2, 22: 4, 23: 1, 8: 8}","[3, 8, 22, 23]",3288224231,Li2Ti4V1O8
Li2VCr3O8,mp-1177800,1.0533000000000001,2.384188,0.030650521473214454,"{3: 2, 23: 1, 24: 3, 8: 8}","[3, 8, 23, 24]",3288231243,Li2V1Cr3O8
Li2Mn3VO8,mp-1177922,1.0272000000000001,2.25083462,0.038910942615213884,"{3: 2, 25: 3, 23: 1, 8: 8}","[3, 8, 23, 25]",3288231253,Li2Mn3V1O8
Li2VCo3O8,mp-754294,0.0,3.22484492,0.0249732414158208,"{3: 2, 23: 1, 27: 3, 8: 8}","[3, 8, 23, 27]",3288231273,Li2V1Co3O8
Li2VGa3O8,mp-755571,1.9553,-0.20575293,0.07218823092857463,"{3: 2, 23: 1, 31: 3, 8: 8}","[3, 8, 23, 31]",3288231313,Li2V1Ga3O8
Li2V3O8,mp-773325,2.2077,1.38567867,0.04745094134615435,"{3: 2, 23: 3, 8: 8}","[3, 8, 23]",3288233,Li2V3O8
Li2V3CrO8,mp-1302892,1.1101999999999999,2.79399419,0.003510130312504245,"{3: 2, 23: 3, 24: 1, 8: 8}","[3, 8, 23, 24]",3288233241,Li2V3Cr1O8
Li2MnV3O8,mp-775327,1.2288999999999999,2.4434081,0.009004125982144728,"{3: 2, 25: 1, 23: 3, 8: 8}","[3, 8, 23, 25]",3288233251,Li2Mn1V3O8
Li2V3CoO8,mp-1291671,0.0,4.95421716,0.0,"{3: 2, 23: 3, 27: 1, 8: 8}","[3, 8, 23, 27]",3288233271,Li2V3Co1O8
Li2V3NiO8,mp-777896,1.6475999999999997,2.90041827,0.040592192857142884,"{3: 2, 23: 3, 28: 1, 8: 8}","[3, 8, 23, 28]",3288233281,Li2V3Ni1O8
Li2NbV3O8,mp-777682,1.1001999999999996,3.1671315,0.002893159732131778,"{3: 2, 41: 1, 23: 3, 8: 8}","[3, 8, 23, 41]",3288233411,Li2Nb1V3O8
Li2V3SnO8,mp-776870,0.8920999999999997,4.99167931,0.0,"{3: 2, 23: 3, 50: 1, 8: 8}","[3, 8, 23, 50]",3288233501,Li2V3Sn1O8
Li2V3SbO8,mp-756138,0.8720000000000003,3.8721057,0.0,"{3: 2, 23: 3, 51: 1, 8: 8}","[3, 8, 23, 51]",3288233511,Li2V3Sb1O8
Li2V3TeO8,mp-780808,0.0,3.97943562,0.05568940214286133,"{3: 2, 23: 3, 52: 1, 8: 8}","[3, 8, 23, 52]",3288233521,Li2V3Te1O8
Li2V3WO8,mp-1309047,1.6544999999999996,2.71432808,0.00031164964286034547,"{3: 2, 23: 3, 74: 1, 8: 8}","[3, 8, 23, 74]",3288233741,Li2V3W1O8
Li2V3BiO8,mp-771389,0.6582000000000003,3.41610231,0.0697760605625053,"{3: 2, 23: 3, 83: 1, 8: 8}","[3, 8, 23, 83]",3288233831,Li2V3Bi1O8
Li2Mn3CrO8,mp-775679,0.5217,2.75739074,0.06499131458730822,"{3: 2, 25: 3, 24: 1, 8: 8}","[3, 8, 24, 25]",3288241253,Li2Mn3Cr1O8
Li2CrCo3O8,mp-1178130,0.5611000000000002,2.18924318,0.014317999146826743,"{3: 2, 24: 1, 27: 3, 8: 8}","[3, 8, 24, 27]",3288241273,Li2Cr1Co3O8
Li2MnCr3O8,mp-1177916,0.9677999999999998,1.91850718,0.06704965259921458,"{3: 2, 25: 1, 24: 3, 8: 8}","[3, 8, 24, 25]",3288243251,Li2Mn1Cr3O8
Li2Cr3CoO8,mp-756414,0.0,2.01386974,0.05549232904761947,"{3: 2, 24: 3, 27: 1, 8: 8}","[3, 8, 24, 27]",3288243271,Li2Cr3Co1O8
Li2Cr3NiO8,mp-771776,0.0,2.35435321,0.045087192619049254,"{3: 2, 24: 3, 28: 1, 8: 8}","[3, 8, 24, 28]",3288243281,Li2Cr3Ni1O8
Li2NbCr3O8,mp-758202,1.5998999999999999,2.6166838,9.010857143110229e-05,"{3: 2, 41: 1, 24: 3, 8: 8}","[3, 8, 24, 41]",3288243411,Li2Nb1Cr3O8
Li2Cr3SnO8,mp-774276,0.7014999999999998,2.71211899,0.01250396605158599,"{3: 2, 24: 3, 50: 1, 8: 8}","[3, 8, 24, 50]",3288243501,Li2Cr3Sn1O8
Li2Cr3SbO8,mp-775393,2.4842999999999997,2.85571431,0.0,"{3: 2, 24: 3, 51: 1, 8: 8}","[3, 8, 24, 51]",3288243511,Li2Cr3Sb1O8
Li2Cr3TeO8,mp-778197,0.0,4.09877503,0.022933862053577947,"{3: 2, 24: 3, 52: 1, 8: 8}","[3, 8, 24, 52]",3288243521,Li2Cr3Te1O8
Li2Cr3WO8,mp-775271,1.8533999999999997,5.01753139,0.011040836428575673,"{3: 2, 24: 3, 74: 1, 8: 8}","[3, 8, 24, 74]",3288243741,Li2Cr3W1O8
Li2Cr3BiO8,mp-756154,0.0,2.58373172,0.015565609980154882,"{3: 2, 24: 3, 83: 1, 8: 8}","[3, 8, 24, 83]",3288243831,Li2Cr3Bi1O8
Li2MnCo3O8,mp-761940,0.0,3.09997092,0.0,"{3: 2, 25: 1, 27: 3, 8: 8}","[3, 8, 25, 27]",3288251273,Li2Mn1Co3O8
Li2MnNi3O8,mp-774906,0.20740000000000025,2.99859791,0.013012959910716049,"{3: 2, 25: 1, 28: 3, 8: 8}","[3, 8, 25, 28]",3288251283,Li2Mn1Ni3O8
Li2MnNb3O8,mp-752436,0.15270000000000028,3.78297063,0.10736108580356785,"{3: 2, 25: 1, 41: 3, 8: 8}","[3, 8, 25, 41]",3288251413,Li2Mn1Nb3O8
Li2MnSn3O8,mp-566593,1.1584999999999992,4.43331858,0.04591535494047605,"{3: 2, 25: 1, 50: 3, 8: 8}","[3, 8, 25, 50]",3288251503,Li2Mn1Sn3O8
Li2Mn2CoO8,mp-1222848,0.0032000000000000917,0.87065037,0.12670249301282066,"{3: 2, 25: 2, 27: 1, 8: 8}","[3, 8, 25, 27]",3288252271,Li2Mn2Co1O8
Li2Mn3CoO8,mp-1287701,0.3865000000000003,2.99106848,0.0,"{3: 2, 25: 3, 27: 1, 8: 8}","[3, 8, 25, 27]",3288253271,Li2Mn3Co1O8
Li2Mn3NiO8,mp-771112,0.9363000000000001,2.21629323,0.0,"{3: 2, 25: 3, 28: 1, 8: 8}","[3, 8, 25, 28]",3288253281,Li2Mn3Ni1O8
Li2Mn3ZnO8,mp-704943,1.2898999999999998,1.57007357,0.0,"{3: 2, 25: 3, 30: 1, 8: 8}","[3, 8, 25, 30]",3288253301,Li2Mn3Zn1O8
Li2Mn3GaO8,mp-1307659,0.5734000000000004,2.45904907,0.00086160535712132,"{3: 2, 25: 3, 31: 1, 8: 8}","[3, 8, 25, 31]",3288253311,Li2Mn3Ga1O8
Li2Mn3NbO8,mp-756486,0.5009000000000001,3.27286087,0.015383305357165256,"{3: 2, 25: 3, 41: 1, 8: 8}","[3, 8, 25, 41]",3288253411,Li2Mn3Nb1O8
Li2Mn3SnO8,mp-772578,0.5106000000000002,3.54905627,0.00364371678572617,"{3: 2, 25: 3, 50: 1, 8: 8}","[3, 8, 25, 50]",3288253501,Li2Mn3Sn1O8
Li2Mn3SbO8,mp-763186,1.0902000000000003,3.37962626,0.0,"{3: 2, 25: 3, 51: 1, 8: 8}","[3, 8, 25, 51]",3288253511,Li2Mn3Sb1O8
Li2Mn3TeO8,mp-753235,0.14029999999999987,3.95040828,0.003369354598206087,"{3: 2, 25: 3, 52: 1, 8: 8}","[3, 8, 25, 52]",3288253521,Li2Mn3Te1O8
Li2Mn3WO8,mp-771959,0.0,3.09052446,0.0486718432142883,"{3: 2, 25: 3, 74: 1, 8: 8}","[3, 8, 25, 74]",3288253741,Li2Mn3W1O8
Li2CoNi3O8,mp-1178037,0.0618000000000003,2.88383952,0.0026659550892862427,"{3: 2, 27: 1, 28: 3, 8: 8}","[3, 8, 27, 28]",3288271283,Li2Co1Ni3O8
Li2CoGe3O8,mp-769597,2.4709,4.79120726,0.013278495535712587,"{3: 2, 27: 1, 32: 3, 8: 8}","[3, 8, 27, 32]",3288271323,Li2Co1Ge3O8
Li2Co(WO4)2,mp-552307,2.6607,2.10825829,0.0002243188461452661,"{3: 2, 27: 1, 74: 2, 8: 8}","[3, 8, 27, 74]",3288271742,Li2Co1W2O8
Li2Co3NiO8,mp-756196,0.6307999999999998,2.33145446,0.004376688124996697,"{3: 2, 27: 3, 28: 1, 8: 8}","[3, 8, 27, 28]",3288273281,Li2Co3Ni1O8
Li2NbCo3O8,mp-757558,0.45920000000000005,3.28456228,0.021924155491074515,"{3: 2, 41: 1, 27: 3, 8: 8}","[3, 8, 27, 41]",3288273411,Li2Nb1Co3O8
Li2Co3SnO8,mp-757875,0.0,3.66464886,0.032955360089287566,"{3: 2, 27: 3, 50: 1, 8: 8}","[3, 8, 27, 50]",3288273501,Li2Co3Sn1O8
Li2Co3SbO8,mp-757613,0.45169999999999977,3.86922445,0.0,"{3: 2, 27: 3, 51: 1, 8: 8}","[3, 8, 27, 51]",3288273511,Li2Co3Sb1O8
Li2Co3TeO8,mp-1178026,0.4554,2.79242879,0.0605825662500008,"{3: 2, 27: 3, 52: 1, 8: 8}","[3, 8, 27, 52]",3288273521,Li2Co3Te1O8
Li2Co3WO8,mp-775180,0.22959999999999958,3.18292736,0.1116187714285708,"{3: 2, 27: 3, 74: 1, 8: 8}","[3, 8, 27, 74]",3288273741,Li2Co3W1O8
Li2Co3BiO8,mp-756423,1.1113,2.63007084,0.003028473803567522,"{3: 2, 27: 3, 83: 1, 8: 8}","[3, 8, 27, 83]",3288273831,Li2Co3Bi1O8
Li2NiGe3O8,mp-21650,3.0431,5.15184724,0.0,"{3: 2, 28: 1, 32: 3, 8: 8}","[3, 8, 28, 32]",3288281323,Li2Ni1Ge3O8
Li2Ni(WO4)2,mp-558765,3.0801,1.81046541,0.0016228657692263226,"{3: 2, 28: 1, 74: 2, 8: 8}","[3, 8, 28, 74]",3288281742,Li2Ni1W2O8
Li2NbNi3O8,mp-771953,0.0,2.52481415,0.04356199807143213,"{3: 2, 41: 1, 28: 3, 8: 8}","[3, 8, 28, 41]",3288283411,Li2Nb1Ni3O8
Li2Ni3SnO8,mp-760774,0.5037000000000003,3.53408282,0.018244565238096477,"{3: 2, 28: 3, 50: 1, 8: 8}","[3, 8, 28, 50]",3288283501,Li2Ni3Sn1O8
Li2Ni3SbO8,mp-1303958,0.6613000000000002,3.21124306,0.0007191771428551874,"{3: 2, 28: 3, 51: 1, 8: 8}","[3, 8, 28, 51]",3288283511,Li2Ni3Sb1O8
Li2Ni3TeO8,mp-1280510,0.20779999999999976,3.6158683,0.0,"{3: 2, 28: 3, 52: 1, 8: 8}","[3, 8, 28, 52]",3288283521,Li2Ni3Te1O8
Li2Ni3WO8,mp-771895,0.0,2.78011768,0.03255441821428651,"{3: 2, 28: 3, 74: 1, 8: 8}","[3, 8, 28, 74]",3288283741,Li2Ni3W1O8
Li2Ni3BiO8,mp-1275701,0.7894999999999999,2.69143627,0.004115003392854533,"{3: 2, 28: 3, 83: 1, 8: 8}","[3, 8, 28, 83]",3288283831,Li2Ni3Bi1O8
Li2ZnSn3O8,mp-555965,1.9407,5.36169647,0.0,"{3: 2, 30: 1, 50: 3, 8: 8}","[3, 8, 30, 50]",3288301503,Li2Zn1Sn3O8
Li2Ge3O8,mp-731867,0.0,-1.89719249,0.17813705976923178,"{3: 2, 32: 3, 8: 8}","[3, 8, 32]",3288323,Li2Ge3O8
Li2Th(AsO4)2,mp-1194965,3.9494000000000002,0.91853992,0.0,"{3: 2, 90: 1, 33: 2, 8: 8}","[3, 8, 33, 90]",3288332901,Li2Th1As2O8
Li2Eu5O8,mp-1098010,0.0,2.4942739,0.13767346133333902,"{3: 2, 63: 5, 8: 8}","[3, 8, 63]",3288635,Li2Eu5O8
Li2VCrP2(O4F)2,mp-760236,1.9782000000000002,2.01707549,0.0,"{3: 2, 23: 1, 24: 1, 15: 2, 8: 8, 9: 2}","[3, 8, 9, 15, 23, 24]",328892152231241,Li2V1Cr1P2O8F2
Li2MnVP2(O4F)2,mp-1177877,0.8944999999999999,1.72491742,0.0,"{3: 2, 25: 1, 23: 1, 15: 2, 8: 8, 9: 2}","[3, 8, 9, 15, 23, 25]",328892152231251,Li2Mn1V1P2O8F2
NaLi2V3O9,mp-775412,2.8431,-0.48412724,0.019691715166667123,"{11: 1, 3: 2, 23: 3, 8: 9}","[3, 8, 11, 23]",3289111233,Na1Li2V3O9
Li2V2Si2O9,mp-766119,1.3120000000000003,3.08139258,0.046901987611116525,"{3: 2, 23: 2, 14: 2, 8: 9}","[3, 8, 14, 23]",3289142232,Li2V2Si2O9
Li2Cr2Si2O9,mp-758712,0.0,3.95577689,0.08630920594444724,"{3: 2, 24: 2, 14: 2, 8: 9}","[3, 8, 14, 24]",3289142242,Li2Cr2Si2O9
Li2Mn2Si2O9,mp-779016,0.8885999999999998,3.52620542,0.0889162429444399,"{3: 2, 25: 2, 14: 2, 8: 9}","[3, 8, 14, 25]",3289142252,Li2Mn2Si2O9
Li2V(SiO3)3,mp-757471,2.1058999999999997,0.87406181,0.09739159155556187,"{3: 2, 23: 1, 14: 3, 8: 9}","[3, 8, 14, 23]",3289143231,Li2V1Si3O9
Li2V2(SiO3)3,mp-1267368,1.7510000000000003,6.30071861,0.059926999114590096,"{3: 2, 23: 2, 14: 3, 8: 9}","[3, 8, 14, 23]",3289143232,Li2V2Si3O9
Li2Mn2(SiO3)3,mp-772645,2.8280000000000003,5.63560821,0.05526802364583272,"{3: 2, 25: 2, 14: 3, 8: 9}","[3, 8, 14, 25]",3289143252,Li2Mn2Si3O9
Li2Co2(SiO3)3,mp-758212,0.47940000000000005,2.7381473,0.07110640458333428,"{3: 2, 27: 2, 14: 3, 8: 9}","[3, 8, 14, 27]",3289143272,Li2Co2Si3O9
Li2Si3Ni2O9,mp-1265127,3.7565,6.38919712,0.0677368825000002,"{3: 2, 14: 3, 28: 2, 8: 9}","[3, 8, 14, 28]",3289143282,Li2Si3Ni2O9
Li2V2P2O9,mp-758541,1.3212000000000002,2.26467548,0.08712195780554755,"{3: 2, 23: 2, 15: 2, 8: 9}","[3, 8, 15, 23]",3289152232,Li2V2P2O9
Li2Cr2P2O9,mp-757371,2.3611,1.72796801,0.07917000266666907,"{3: 2, 24: 2, 15: 2, 8: 9}","[3, 8, 15, 24]",3289152242,Li2Cr2P2O9
Li2Mn2P2O9,mp-867571,0.6033,1.65270209,0.07391578888887729,"{3: 2, 25: 2, 15: 2, 8: 9}","[3, 8, 15, 25]",3289152252,Li2Mn2P2O9
Li2Co2P2O9,mp-758067,0.8091000000000002,1.82149263,0.08170474916666315,"{3: 2, 27: 2, 15: 2, 8: 9}","[3, 8, 15, 27]",3289152272,Li2Co2P2O9
Li2Bi2P2O9,mp-759784,3.3073,1.95134893,0.09051468072223035,"{3: 2, 83: 2, 15: 2, 8: 9}","[3, 8, 15, 83]",3289152832,Li2Bi2P2O9
Li2Ti4O9,mp-772151,2.8924,2.11455175,0.013415855833333268,"{3: 2, 22: 4, 8: 9}","[3, 8, 22]",3289224,Li2Ti4O9
Li2Cr2O9,mp-1237680,0.9987999999999999,-0.55823136,0.41101700591025914,"{3: 2, 24: 2, 8: 9}","[3, 8, 24]",3289242,Li2Cr2O9
Li2Mn4O9,mp-770527,0.0,2.59303208,0.08288132275000049,"{3: 2, 25: 4, 8: 9}","[3, 8, 25]",3289254,Li2Mn4O9
Li2Ni5O9,mp-1177872,0.0,3.13210902,0.040655563281250195,"{3: 2, 28: 5, 8: 9}","[3, 8, 28]",3289285,Li2Ni5O9
Li2Zn2W2O9,mp-1210825,2.7668999999999997,3.93999373,0.03739511575000076,"{3: 2, 30: 2, 74: 2, 8: 9}","[3, 8, 30, 74]",3289302742,Li2Zn2W2O9
Li2Ge4O9,mp-1020012,2.7380999999999998,0.81617483,0.04561557033333319,"{3: 2, 32: 4, 8: 9}","[3, 8, 32]",3289324,Li2Ge4O9
RbLi2(IO3)3,mp-23626,3.7571000000000003,0.93236848,0.0,"{37: 1, 3: 2, 53: 3, 8: 9}","[3, 8, 37, 53]",3289371533,Rb1Li2I3O9
Li2Al2P2O9F,mp-1222822,0.3527,2.51928675,0.06816826297821876,"{3: 2, 13: 2, 15: 2, 8: 9, 9: 1}","[3, 8, 9, 13, 15]",328991132152,Li2Al2P2O9F1
K5Li2PrF10,mp-1196988,6.4766,4.0443746,0.0,"{19: 5, 3: 2, 59: 1, 9: 10}","[3, 9, 19, 59]",32910195591,K5Li2Pr1F10
K5Li2NdF10,mp-557798,6.4521999999999995,-2.29274491,0.0,"{19: 5, 3: 2, 60: 1, 9: 10}","[3, 9, 19, 60]",32910195601,K5Li2Nd1F10
K5Li2EuF10,mp-1203051,0.13260000000000005,-2.14537254,0.012534874305554666,"{19: 5, 3: 2, 63: 1, 9: 10}","[3, 9, 19, 63]",32910195631,K5Li2Eu1F10
Li2Mn3F10,mp-757143,0.0,-1.2908355,0.08200530766666692,"{3: 2, 25: 3, 9: 10}","[3, 9, 25]",32910253,Li2Mn3F10
Li2Mn7F16,mp-753570,2.6388,0.48911307,0.07898758519999838,"{3: 2, 25: 7, 9: 16}","[3, 9, 25]",32916257,Li2Mn7F16
Li2Mn5F17,mp-764892,0.18720000000000003,-1.47948395,0.09565339312499965,"{3: 2, 25: 5, 9: 17}","[3, 9, 25]",32917255,Li2Mn5F17
Li2Mn7F18,mp-753981,0.6911,-0.41781236,0.07301434425925812,"{3: 2, 25: 7, 9: 18}","[3, 9, 25]",32918257,Li2Mn7F18
Li2AgF3,mp-754466,2.0522,-0.68023362,0.03586472333333468,"{3: 2, 47: 1, 9: 3}","[3, 9, 47]",3293471,Li2Ag1F3
CsLi2F3,mp-606604,7.0403,-1.47904991,0.05768314250000017,"{55: 1, 3: 2, 9: 3}","[3, 9, 55]",3293551,Cs1Li2F3
Li2VF4,mp-775776,2.7537000000000003,1.73476679,0.016945264285711303,"{3: 2, 23: 1, 9: 4}","[3, 9, 23]",3294231,Li2V1F4
Li2CrF4,mp-764423,1.6057000000000001,0.99835298,0.06377404749999993,"{3: 2, 24: 1, 9: 4}","[3, 9, 24]",3294241,Li2Cr1F4
Li2MnF4,mp-777589,4.0319,-0.38444294,0.02147591535714266,"{3: 2, 25: 1, 9: 4}","[3, 9, 25]",3294251,Li2Mn1F4
Li2NiF4,mp-35759,4.6955,-0.95091703,0.0,"{3: 2, 28: 1, 9: 4}","[3, 9, 28]",3294281,Li2Ni1F4
Li2AgF4,mp-761269,0.3751000000000001,-1.14592857,0.03451352142857189,"{3: 2, 47: 1, 9: 4}","[3, 9, 47]",3294471,Li2Ag1F4
Li2VF5,mp-754000,2.4523,2.23597268,0.013137341875000708,"{3: 2, 23: 1, 9: 5}","[3, 9, 23]",3295231,Li2V1F5
Li2MnF5,mp-556229,1.8414,-0.9442579,0.0,"{3: 2, 25: 1, 9: 5}","[3, 9, 25]",3295251,Li2Mn1F5
Li2AgF5,mp-760778,0.4086000000000001,-1.87567284,0.038280718749995835,"{3: 2, 47: 1, 9: 5}","[3, 9, 47]",3295471,Li2Ag1F5
Cs3Li2F5,mp-558728,5.7273,4.27940674,0.04385767299999799,"{55: 3, 3: 2, 9: 5}","[3, 9, 55]",3295553,Cs3Li2F5
Li2BiF5,mp-760419,4.0571,-1.34069062,0.06290770874999652,"{3: 2, 83: 1, 9: 5}","[3, 9, 83]",3295831,Li2Bi1F5