formula,material_id,band_gap,efermi,energy_above_hull,comp_atoms,sorted_keys_comp_atoms,comp_number,new_formula
LiNi9S10,mp-676685,0.0,7.63866968,0.09619618037499933,"{3: 1, 28: 9, 16: 10}","[3, 16, 28]",311610289,Li1Ni9S10
KLiS,mp-8430,3.0571,0.70296883,0.0,"{19: 1, 3: 1, 16: 1}","[3, 16, 19]",31161191,K1Li1S1
RbLiS,mp-8751,2.745,0.96175389,0.0,"{37: 1, 3: 1, 16: 1}","[3, 16, 37]",31161371,Rb1Li1S1
LiSbS,mp-1176579,0.40020000000000033,4.31314496,0.0,"{3: 1, 51: 1, 16: 1}","[3, 16, 51]",31161511,Li1Sb1S1
LiAuS,mp-29829,1.5804,2.24890037,0.0,"{3: 1, 79: 1, 16: 1}","[3, 16, 79]",31161791,Li1Au1S1
KLiMnS2,mp-753940,0.5546000000000002,2.46052847,0.0,"{19: 1, 3: 1, 25: 1, 16: 2}","[3, 16, 19, 25]",31162191251,K1Li1Mn1S2
KLiZnS2,mp-774907,2.4361,1.17933555,0.0,"{19: 1, 3: 1, 30: 1, 16: 2}","[3, 16, 19, 30]",31162191301,K1Li1Zn1S2
K2LiS2,mp-1211991,0.0,-1.16848853,1.1562795150000014,"{19: 2, 3: 1, 16: 2}","[3, 16, 19]",31162192,K2Li1S2
LiScS2,mp-1001786,1.4856999999999996,3.73710391,0.0,"{3: 1, 21: 1, 16: 2}","[3, 16, 21]",31162211,Li1Sc1S2
LiTiS2,mp-9615,0.0,5.74106712,0.0,"{3: 1, 22: 1, 16: 2}","[3, 16, 22]",31162221,Li1Ti1S2
LiVS2,mp-7543,0.0,5.20281387,0.05358763535714495,"{3: 1, 23: 1, 16: 2}","[3, 16, 23]",31162231,Li1V1S2
LiCrS2,mp-4226,0.6463000000000001,4.45716663,0.0,"{3: 1, 24: 1, 16: 2}","[3, 16, 24]",31162241,Li1Cr1S2
RbLiMnS2,mp-1219572,0.0,3.83284694,0.09977676283333192,"{37: 1, 3: 1, 25: 1, 16: 2}","[3, 16, 25, 37]",31162251371,Rb1Li1Mn1S2
CsLiMnS2,mp-1225894,0.8092999999999999,3.5505405,0.0,"{55: 1, 3: 1, 25: 1, 16: 2}","[3, 16, 25, 55]",31162251551,Cs1Li1Mn1S2
LiCoS2,mp-753946,0.4485999999999999,4.93231134,0.0,"{3: 1, 27: 1, 16: 2}","[3, 16, 27]",31162271,Li1Co1S2
LiNiS2,mp-2365577,0.0,5.45305296,0.09063996625000037,"{3: 1, 28: 1, 16: 2}","[3, 16, 28]",31162281,Li1Ni1S2
Li(NiS)2,mp-769205,0.0,5.96742663,0.037074402500000936,"{3: 1, 28: 2, 16: 2}","[3, 16, 28]",31162282,Li1Ni2S2
RbLiZnS2,mp-1219554,2.5255,1.03850678,0.0,"{37: 1, 3: 1, 30: 1, 16: 2}","[3, 16, 30, 37]",31162301371,Rb1Li1Zn1S2
CsLiZnS2,mp-1225887,2.5019,3.95145796,0.0,"{55: 1, 3: 1, 30: 1, 16: 2}","[3, 16, 30, 55]",31162301551,Cs1Li1Zn1S2
LiGaS2,mp-3647,2.9608,1.23761354,0.0,"{3: 1, 31: 1, 16: 2}","[3, 16, 31]",31162311,Li1Ga1S2
LiAsS2,mp-555874,1.0664000000000002,2.81598696,0.0,"{3: 1, 33: 1, 16: 2}","[3, 16, 33]",31162331,Li1As1S2
LiMo6(Se3S)2,mp-1222388,0.0,4.79383604,0.057887513166662075,"{3: 1, 42: 6, 34: 6, 16: 2}","[3, 16, 34, 42]",31162346426,Li1Mo6Se6S2
Rb2LiS2,mp-1209490,0.0,-2.01463089,1.1407471523333337,"{37: 2, 3: 1, 16: 2}","[3, 16, 37]",31162372,Rb2Li1S2
LiZrS2,mp-1206759,0.0,5.09793255,0.0,"{3: 1, 40: 1, 16: 2}","[3, 16, 40]",31162401,Li1Zr1S2
LiNbS2,mp-7936,0.7134999999999998,5.91385699,0.0,"{3: 1, 41: 1, 16: 2}","[3, 16, 41]",31162411,Li1Nb1S2
LiMoS2,mp-30248,1.0286999999999997,6.0652173,0.022671608333332927,"{3: 1, 42: 1, 16: 2}","[3, 16, 42]",31162421,Li1Mo1S2
LiInS2,mp-1188392,2.2212,2.01076489,0.0,"{3: 1, 49: 1, 16: 2}","[3, 16, 49]",31162491,Li1In1S2
LiSnS2,mp-1001783,0.0,5.27235449,0.06139511890624938,"{3: 1, 50: 1, 16: 2}","[3, 16, 50]",31162501,Li1Sn1S2
LiSbS2,mp-1079885,0.09109999999999996,4.96239156,0.0,"{3: 1, 51: 1, 16: 2}","[3, 16, 51]",31162511,Li1Sb1S2
LiPrS2,mp-675419,1.8884,1.97819002,0.03416889437500359,"{3: 1, 59: 1, 16: 2}","[3, 16, 59]",31162591,Li1Pr1S2
LiNdS2,mp-36791,1.6009000000000002,2.17309445,0.02052852406250416,"{3: 1, 60: 1, 16: 2}","[3, 16, 60]",31162601,Li1Nd1S2
LiSmS2,mp-1222296,1.9482,2.2604998,0.0,"{3: 1, 62: 1, 16: 2}","[3, 16, 62]",31162621,Li1Sm1S2
LiEuS2,mp-1222312,0.0,1.94504309,0.11418231968749915,"{3: 1, 63: 1, 16: 2}","[3, 16, 63]",31162631,Li1Eu1S2
LiGdS2,mp-1222370,1.6532000000000004,2.45300634,0.0,"{3: 1, 64: 1, 16: 2}","[3, 16, 64]",31162641,Li1Gd1S2
LiTbS2,mp-1222297,2.0554000000000006,2.394956,0.0,"{3: 1, 65: 1, 16: 2}","[3, 16, 65]",31162651,Li1Tb1S2
LiDyS2,mp-15789,1.9346999999999999,2.78006983,0.0,"{3: 1, 66: 1, 16: 2}","[3, 16, 66]",31162661,Li1Dy1S2
LiHoS2,mp-15790,1.9863000000000004,2.83587916,0.0,"{3: 1, 67: 1, 16: 2}","[3, 16, 67]",31162671,Li1Ho1S2
LiErS2,mp-15791,2.0659,2.5034001,0.0,"{3: 1, 68: 1, 16: 2}","[3, 16, 68]",31162681,Li1Er1S2
LiHfS2,mp-1207212,0.0,5.69126808,0.014019902500002956,"{3: 1, 72: 1, 16: 2}","[3, 16, 72]",31162721,Li1Hf1S2
LiTaS2,mp-1206881,0.8540999999999999,7.22833211,0.0,"{3: 1, 73: 1, 16: 2}","[3, 16, 73]",31162731,Li1Ta1S2
LiBiS2,mp-1222404,1.4793000000000003,3.88222949,0.0,"{3: 1, 83: 1, 16: 2}","[3, 16, 83]",31162831,Li1Bi1S2
LiVS3,mp-1176510,0.039899999999999824,2.98307913,0.1029735005833361,"{3: 1, 23: 1, 16: 3}","[3, 16, 23]",31163231,Li1V1S3
LiEuAsS3,mp-1191481,0.05250000000000021,4.42046973,0.012888539166667101,"{3: 1, 63: 1, 33: 1, 16: 3}","[3, 16, 33, 63]",31163331631,Li1Eu1As1S3
LiS4,mp-995393,2.1584999999999996,-4.15086338,0.0,"{3: 1, 16: 4}","[3, 16]",31164,Li1S4
K2LiVS4,mp-767165,1.5185,0.68527513,0.0,"{19: 2, 3: 1, 23: 1, 16: 4}","[3, 16, 19, 23]",31164192231,K2Li1V1S4
Li(TiS2)2,mp-1223278,0.0,4.80883544,0.0,"{3: 1, 22: 2, 16: 4}","[3, 16, 22]",31164222,Li1Ti2S4
Rb2LiVS4,mp-558815,1.5836000000000001,0.36794846,0.0,"{37: 2, 3: 1, 23: 1, 16: 4}","[3, 16, 23, 37]",31164231372,Rb2Li1V1S4
Cs2LiVS4,mp-510338,1.5877999999999999,0.46980156,0.0,"{55: 2, 3: 1, 23: 1, 16: 4}","[3, 16, 23, 55]",31164231552,Cs2Li1V1S4
Li(VS2)2,mp-1045443,0.0,4.84715783,0.09408203428571849,"{3: 1, 23: 2, 16: 4}","[3, 16, 23]",31164232,Li1V2S4
Li(CrS2)2,mp-1238817,0.0,3.84343894,0.0,"{3: 1, 24: 2, 16: 4}","[3, 16, 24]",31164242,Li1Cr2S4
Li(MnS2)2,mp-1045401,0.0,4.57734401,0.0,"{3: 1, 25: 2, 16: 4}","[3, 16, 25]",31164252,Li1Mn2S4
Li(CoS2)2,mp-1097024,0.0,4.25982432,0.043388184285714004,"{3: 1, 27: 2, 16: 4}","[3, 16, 27]",31164272,Li1Co2S4
Li(NiS2)2,mp-1045397,0.0,5.20118392,0.06336585785714277,"{3: 1, 28: 2, 16: 4}","[3, 16, 28]",31164282,Li1Ni2S4
Rb2LiNbS4,mp-553962,2.306,0.39001591,0.0,"{37: 2, 3: 1, 41: 1, 16: 4}","[3, 16, 37, 41]",31164372411,Rb2Li1Nb1S4
Rb2LiTaS4,mp-556085,2.7182,0.40339118,0.0,"{37: 2, 3: 1, 73: 1, 16: 4}","[3, 16, 37, 73]",31164372731,Rb2Li1Ta1S4
Li(ZrS2)2,mp-1222722,0.0,4.46717827,0.0,"{3: 1, 40: 2, 16: 4}","[3, 16, 40]",31164402,Li1Zr2S4
Cs2LiNbS4,mp-573030,2.4582,0.50775897,0.0,"{55: 2, 3: 1, 41: 1, 16: 4}","[3, 16, 41, 55]",31164411552,Cs2Li1Nb1S4
Li(TaS2)2,mp-1222716,0.0,4.85665521,0.021094406071426874,"{3: 1, 73: 2, 16: 4}","[3, 16, 73]",31164732,Li1Ta2S4
Li(TiS2)3,mp-19755,0.0,3.11540706,0.014605897999995676,"{3: 1, 22: 3, 16: 6}","[3, 16, 22]",31166223,Li1Ti3S6
LiMo6(SeS3)2,mp-1222346,0.0,5.38595496,0.05285644916667209,"{3: 1, 42: 6, 34: 2, 16: 6}","[3, 16, 34, 42]",31166342426,Li1Mo6Se2S6
Li(HoS2)3,mp-1207296,0.0,-4.41913941,2.6870471040000012,"{3: 1, 67: 3, 16: 6}","[3, 16, 67]",31166673,Li1Ho3S6
LiCr4GaS8,mp-1211167,0.0,4.17340803,0.0,"{3: 1, 24: 4, 31: 1, 16: 8}","[3, 16, 24, 31]",31168244311,Li1Cr4Ga1S8
LiCr4InS8,mp-1211182,0.3692000000000002,4.40452044,0.0,"{3: 1, 24: 4, 49: 1, 16: 8}","[3, 16, 24, 49]",31168244491,Li1Cr4In1S8
Li(Mo3S4)2,mp-675711,0.0,5.35759686,0.033139482500001094,"{3: 1, 42: 6, 16: 8}","[3, 16, 42]",31168426,Li1Mo6S8
LiCl,mp-22905,6.25,0.11427338,0.0,"{3: 1, 17: 1}","[3, 17]",31171,Li1Cl1
KLiICl,mp-1021327,4.4304,-0.56521824,0.15982087624999997,"{19: 1, 3: 1, 53: 1, 17: 1}","[3, 17, 19, 53]",31171191531,K1Li1I1Cl1
LiMo6Cl13,mp-680167,2.3579999999999997,1.82480057,0.011277085250001484,"{3: 1, 42: 6, 17: 13}","[3, 17, 42]",311713426,Li1Mo6Cl13
CsLiICl,mp-1002080,3.3604000000000003,-0.64935123,0.2772314112500007,"{55: 1, 3: 1, 53: 1, 17: 1}","[3, 17, 53, 55]",31171531551,Cs1Li1I1Cl1
LiNb6Cl19,mp-29985,0.7273000000000001,1.44447214,0.0,"{3: 1, 41: 6, 17: 19}","[3, 17, 41]",311719416,Li1Nb6Cl19
RbLiCl2,mp-28243,5.1482,-1.4495017,0.004606494999999544,"{37: 1, 3: 1, 17: 2}","[3, 17, 37]",31172371,Rb1Li1Cl2
CsLiCl2,mp-1188344,5.1073,-1.15429195,0.0,"{55: 1, 3: 1, 17: 2}","[3, 17, 55]",31172551,Cs1Li1Cl2
LiTiCl3,mp-676210,0.0,2.41784991,0.09495560154166505,"{3: 1, 22: 1, 17: 3}","[3, 17, 22]",31173221,Li1Ti1Cl3
LiGaCl3,mp-29344,3.6888,0.01616946,0.0,"{3: 1, 31: 1, 17: 3}","[3, 17, 31]",31173311,Li1Ga1Cl3
LiSnCl3,mp-998591,3.4801,4.57274313,0.010201287999998865,"{3: 1, 50: 1, 17: 3}","[3, 17, 50]",31173501,Li1Sn1Cl3
Cs2LiCl3,mp-571390,5.13,-0.86598484,0.024859438750002738,"{55: 2, 3: 1, 17: 3}","[3, 17, 55]",31173552,Cs2Li1Cl3
LiGaCl4,mp-28341,4.4866,-1.53798054,0.0,"{3: 1, 31: 1, 17: 4}","[3, 17, 31]",31174311,Li1Ga1Cl4
Cs3LiCl4,mp-606711,4.6835,-1.05842384,0.05935256406249856,"{55: 3, 3: 1, 17: 4}","[3, 17, 55]",31174553,Cs3Li1Cl4
LiGdCl4,mp-28122,0.9064999999999999,0.25706154,0.0017374183333345172,"{3: 1, 64: 1, 17: 4}","[3, 17, 64]",31174641,Li1Gd1Cl4
Li11Ta37N48,mp-685440,0.0,8.04072553,0.04891428159723432,"{3: 11, 73: 37, 7: 48}","[3, 7, 73]",3117487337,Li11Ta37N48
LiDy2Cl5,mp-28068,0.1485000000000003,5.33628168,0.19057443416666686,"{3: 1, 66: 2, 17: 5}","[3, 17, 66]",31175662,Li1Dy2Cl5
LiTm2Cl5,mp-570542,0.15860000000000074,5.56256013,0.24552845965277825,"{3: 1, 69: 2, 17: 5}","[3, 17, 69]",31175692,Li1Tm2Cl5
K2LiScCl6,mp-1111932,3.7413999999999996,-0.45291667,0.008983275833331916,"{19: 2, 3: 1, 21: 1, 17: 6}","[3, 17, 19, 21]",31176192211,K2Li1Sc1Cl6
K2LiMoCl6,mp-1110855,1.4862,1.6675,0.03787721199999794,"{19: 2, 3: 1, 42: 1, 17: 6}","[3, 17, 19, 42]",31176192421,K2Li1Mo1Cl6
K2LiInCl6,mp-1111672,2.8649999999999998,-0.25291667,0.015773579333334453,"{19: 2, 3: 1, 49: 1, 17: 6}","[3, 17, 19, 49]",31176192491,K2Li1In1Cl6
K2LiSbCl6,mp-1110865,2.9339,0.53354167,0.03936521924999958,"{19: 2, 3: 1, 51: 1, 17: 6}","[3, 17, 19, 51]",31176192511,K2Li1Sb1Cl6
K2LiLaCl6,mp-1111257,4.554,-0.61097684,0.07188584874999826,"{19: 2, 3: 1, 57: 1, 17: 6}","[3, 17, 19, 57]",31176192571,K2Li1La1Cl6
K2LiCeCl6,mp-1111675,0.3230999999999997,2.63666667,0.057468140500004594,"{19: 2, 3: 1, 58: 1, 17: 6}","[3, 17, 19, 58]",31176192581,K2Li1Ce1Cl6
K2LiPrCl6,mp-1110866,4.8264,-1.04583333,0.06968638149999506,"{19: 2, 3: 1, 59: 1, 17: 6}","[3, 17, 19, 59]",31176192591,K2Li1Pr1Cl6
K2LiNdCl6,mp-1110867,4.8605,-1.02583333,0.06218109524999704,"{19: 2, 3: 1, 60: 1, 17: 6}","[3, 17, 19, 60]",31176192601,K2Li1Nd1Cl6
K2LiSmCl6,mp-1111244,4.9171,-0.97958333,0.04960930624999982,"{19: 2, 3: 1, 62: 1, 17: 6}","[3, 17, 19, 62]",31176192621,K2Li1Sm1Cl6
K2LiEuCl6,mp-1111273,0.0,-0.76950759,0.04787255650000066,"{19: 2, 3: 1, 63: 1, 17: 6}","[3, 17, 19, 63]",31176192631,K2Li1Eu1Cl6
K2LiGdCl6,mp-1111673,2.8434,-0.9525,0.036905917500000385,"{19: 2, 3: 1, 64: 1, 17: 6}","[3, 17, 19, 64]",31176192641,K2Li1Gd1Cl6
K2LiTbCl6,mp-1110864,4.9973,-0.86583333,0.032632476499999896,"{19: 2, 3: 1, 65: 1, 17: 6}","[3, 17, 19, 65]",31176192651,K2Li1Tb1Cl6
K2LiDyCl6,mp-1111259,5.0198,-0.83916667,0.02591994274999898,"{19: 2, 3: 1, 66: 1, 17: 6}","[3, 17, 19, 66]",31176192661,K2Li1Dy1Cl6
K2LiErCl6,mp-1111256,5.0496,-0.81291667,0.020663618949999574,"{19: 2, 3: 1, 68: 1, 17: 6}","[3, 17, 19, 68]",31176192681,K2Li1Er1Cl6
K2LiTmCl6,mp-1111657,5.0647,-0.80583333,0.015268235150005083,"{19: 2, 3: 1, 69: 1, 17: 6}","[3, 17, 19, 69]",31176192691,K2Li1Tm1Cl6
K2LiLuCl6,mp-1111126,5.0952,-0.76583333,0.0,"{19: 2, 3: 1, 71: 1, 17: 6}","[3, 17, 19, 71]",31176192711,K2Li1Lu1Cl6
K2LiTaCl6,mp-1112861,0.0,3.0738839,0.1508388616250027,"{19: 2, 3: 1, 73: 1, 17: 6}","[3, 17, 19, 73]",31176192731,K2Li1Ta1Cl6
K2LiAuCl6,mp-1111678,0.0,0.47538221,0.14120058400000035,"{19: 2, 3: 1, 79: 1, 17: 6}","[3, 17, 19, 79]",31176192791,K2Li1Au1Cl6
K2LiTlCl6,mp-1111660,1.5798,-0.50625,0.037704539500001744,"{19: 2, 3: 1, 81: 1, 17: 6}","[3, 17, 19, 81]",31176192811,K2Li1Tl1Cl6
K2LiBiCl6,mp-1110869,3.6182000000000003,-0.24645833,0.0,"{19: 2, 3: 1, 83: 1, 17: 6}","[3, 17, 19, 83]",31176192831,K2Li1Bi1Cl6
Rb2LiScCl6,mp-1113928,3.7539,-0.46583333,0.0,"{37: 2, 3: 1, 21: 1, 17: 6}","[3, 17, 21, 37]",31176211372,Rb2Li1Sc1Cl6
Cs2LiScCl6,mp-1189625,3.8154000000000003,-0.45405275,0.0,"{55: 2, 3: 1, 21: 1, 17: 6}","[3, 17, 21, 55]",31176211552,Cs2Li1Sc1Cl6
LiSc(TlCl3)2,mp-1205649,3.7702999999999998,0.60316887,0.0,"{3: 1, 21: 1, 81: 2, 17: 6}","[3, 17, 21, 81]",31176211812,Li1Sc1Tl2Cl6
Rb2LiVCl6,mp-1206399,0.0,1.21403894,0.0,"{37: 2, 3: 1, 23: 1, 17: 6}","[3, 17, 23, 37]",31176231372,Rb2Li1V1Cl6
Rb2LiMoCl6,mp-1110668,1.5379999999999998,1.6475,0.025341601500000976,"{37: 2, 3: 1, 42: 1, 17: 6}","[3, 17, 37, 42]",31176372421,Rb2Li1Mo1Cl6
Rb2LiRuCl6,mp-1206553,0.0,1.28520012,0.0,"{37: 2, 3: 1, 44: 1, 17: 6}","[3, 17, 37, 44]",31176372441,Rb2Li1Ru1Cl6
Rb2LiRhCl6,mp-1206187,1.6499000000000001,0.53791513,0.0,"{37: 2, 3: 1, 45: 1, 17: 6}","[3, 17, 37, 45]",31176372451,Rb2Li1Rh1Cl6
Rb2LiInCl6,mp-989583,2.4534000000000002,-0.17113713,0.0,"{37: 2, 3: 1, 49: 1, 17: 6}","[3, 17, 37, 49]",31176372491,Rb2Li1In1Cl6
Rb2LiSbCl6,mp-1110680,2.9411000000000005,0.50708333,0.0,"{37: 2, 3: 1, 51: 1, 17: 6}","[3, 17, 37, 51]",31176372511,Rb2Li1Sb1Cl6
Rb2LiLaCl6,mp-1113975,4.5047,-0.54625,0.04301051475000062,"{37: 2, 3: 1, 57: 1, 17: 6}","[3, 17, 37, 57]",31176372571,Rb2Li1La1Cl6
Rb2LiCeCl6,mp-1110683,0.3224,2.64333333,0.027984687750001846,"{37: 2, 3: 1, 58: 1, 17: 6}","[3, 17, 37, 58]",31176372581,Rb2Li1Ce1Cl6
Rb2LiPrCl6,mp-1110681,4.8241,-1.00583333,0.04082929900000032,"{37: 2, 3: 1, 59: 1, 17: 6}","[3, 17, 37, 59]",31176372591,Rb2Li1Pr1Cl6
Rb2LiNdCl6,mp-1110682,4.8504000000000005,-0.98583333,0.032891519000000535,"{37: 2, 3: 1, 60: 1, 17: 6}","[3, 17, 37, 60]",31176372601,Rb2Li1Nd1Cl6
Rb2LiSmCl6,mp-1113973,4.918699999999999,-0.94583333,0.02067699950000712,"{37: 2, 3: 1, 62: 1, 17: 6}","[3, 17, 37, 62]",31176372621,Rb2Li1Sm1Cl6
Rb2LiEuCl6,mp-1113978,0.0,-0.7202053,0.019414044500001282,"{37: 2, 3: 1, 63: 1, 17: 6}","[3, 17, 37, 63]",31176372631,Rb2Li1Eu1Cl6
Rb2LiGdCl6,mp-1113979,2.8184,-0.91291667,0.009414564500001,"{37: 2, 3: 1, 64: 1, 17: 6}","[3, 17, 37, 64]",31176372641,Rb2Li1Gd1Cl6
Rb2LiTbCl6,mp-1113974,5.0624,-0.8525,0.00641953144999885,"{37: 2, 3: 1, 65: 1, 17: 6}","[3, 17, 37, 65]",31176372651,Rb2Li1Tb1Cl6
Rb2LiDyCl6,mp-1113980,5.1062,-0.81958333,0.004542068149997469,"{37: 2, 3: 1, 66: 1, 17: 6}","[3, 17, 37, 66]",31176372661,Rb2Li1Dy1Cl6
Rb2LiHoCl6,mp-1205883,5.1901,-0.79709359,0.0029946021499966946,"{37: 2, 3: 1, 67: 1, 17: 6}","[3, 17, 37, 67]",31176372671,Rb2Li1Ho1Cl6
Rb2LiErCl6,mp-1113981,5.211499999999999,-0.81291667,0.0009147630499999337,"{37: 2, 3: 1, 68: 1, 17: 6}","[3, 17, 37, 68]",31176372681,Rb2Li1Er1Cl6
Rb2LiTmCl6,mp-1113971,5.2728,-0.77958333,0.0,"{37: 2, 3: 1, 69: 1, 17: 6}","[3, 17, 37, 69]",31176372691,Rb2Li1Tm1Cl6
Rb2LiLuCl6,mp-1113976,5.2953,-0.75291667,0.0,"{37: 2, 3: 1, 71: 1, 17: 6}","[3, 17, 37, 71]",31176372711,Rb2Li1Lu1Cl6
Rb2LiTaCl6,mp-1110667,0.0,3.07322259,0.12166398219999763,"{37: 2, 3: 1, 73: 1, 17: 6}","[3, 17, 37, 73]",31176372731,Rb2Li1Ta1Cl6
Rb2LiAuCl6,mp-1114414,0.0,0.43702313,0.12500378500000142,"{37: 2, 3: 1, 79: 1, 17: 6}","[3, 17, 37, 79]",31176372791,Rb2Li1Au1Cl6
Rb2LiTlCl6,mp-989579,1.5623,-0.42090379,0.016308627500000394,"{37: 2, 3: 1, 81: 1, 17: 6}","[3, 17, 37, 81]",31176372811,Rb2Li1Tl1Cl6
Rb2LiBiCl6,mp-1110684,3.6153999999999997,-0.24625,0.0,"{37: 2, 3: 1, 83: 1, 17: 6}","[3, 17, 37, 83]",31176372831,Rb2Li1Bi1Cl6
Cs2LiMoCl6,mp-1110989,1.5978,1.8475,0.03343741012498569,"{55: 2, 3: 1, 42: 1, 17: 6}","[3, 17, 42, 55]",31176421552,Cs2Li1Mo1Cl6
Cs2LiInCl6,mp-571527,3.2276,-0.10503753,0.0,"{55: 2, 3: 1, 49: 1, 17: 6}","[3, 17, 49, 55]",31176491552,Cs2Li1In1Cl6
LiTl2InCl6,mp-989512,2.8728000000000002,0.8850209,0.0,"{3: 1, 81: 2, 49: 1, 17: 6}","[3, 17, 49, 81]",31176491812,Li1Tl2In1Cl6
Cs2LiSbCl6,mp-1111439,2.9507999999999996,0.71375,0.018715155874995837,"{55: 2, 3: 1, 51: 1, 17: 6}","[3, 17, 51, 55]",31176511552,Cs2Li1Sb1Cl6
Cs2LiLaCl6,mp-1112681,4.4927,-0.3093725,0.016952530499994012,"{55: 2, 3: 1, 57: 1, 17: 6}","[3, 17, 55, 57]",31176552571,Cs2Li1La1Cl6
Cs2LiCeCl6,mp-1113020,0.3208000000000002,2.87,0.0,"{55: 2, 3: 1, 58: 1, 17: 6}","[3, 17, 55, 58]",31176552581,Cs2Li1Ce1Cl6
Cs2LiPrCl6,mp-1111836,4.7971,-0.71916667,0.014560850750007681,"{55: 2, 3: 1, 59: 1, 17: 6}","[3, 17, 55, 59]",31176552591,Cs2Li1Pr1Cl6
Cs2LiNdCl6,mp-1111841,4.8227,-0.69958333,0.0001550201666669082,"{55: 2, 3: 1, 60: 1, 17: 6}","[3, 17, 55, 60]",31176552601,Cs2Li1Nd1Cl6
Cs2LiSmCl6,mp-1112671,4.9508,-0.69621446,0.0,"{55: 2, 3: 1, 62: 1, 17: 6}","[3, 17, 55, 62]",31176552621,Cs2Li1Sm1Cl6
Cs2LiEuCl6,mp-1113199,0.0,-0.46620285,0.430685553,"{55: 2, 3: 1, 63: 1, 17: 6}","[3, 17, 55, 63]",31176552631,Cs2Li1Eu1Cl6
Cs2LiGdCl6,mp-1112624,2.782,-0.64583333,0.0,"{55: 2, 3: 1, 64: 1, 17: 6}","[3, 17, 55, 64]",31176552641,Cs2Li1Gd1Cl6
Cs2LiTbCl6,mp-1112669,5.0434,-0.58583333,0.0,"{55: 2, 3: 1, 65: 1, 17: 6}","[3, 17, 55, 65]",31176552651,Cs2Li1Tb1Cl6
Cs2LiDyCl6,mp-1113018,5.0917,-0.55958333,0.0,"{55: 2, 3: 1, 66: 1, 17: 6}","[3, 17, 55, 66]",31176552661,Cs2Li1Dy1Cl6
Cs2LiErCl6,mp-1111446,5.1941,-0.53958333,0.0,"{55: 2, 3: 1, 68: 1, 17: 6}","[3, 17, 55, 68]",31176552681,Cs2Li1Er1Cl6
Cs2LiTmCl6,mp-1112998,5.2527,-0.53916667,0.0,"{55: 2, 3: 1, 69: 1, 17: 6}","[3, 17, 55, 69]",31176552691,Cs2Li1Tm1Cl6
Cs2LiLuCl6,mp-570379,5.3389,-0.40409811,0.0,"{55: 2, 3: 1, 71: 1, 17: 6}","[3, 17, 55, 71]",31176552711,Cs2Li1Lu1Cl6
Cs2LiTaCl6,mp-1110988,0.0,3.30662536,0.12018416116666941,"{55: 2, 3: 1, 73: 1, 17: 6}","[3, 17, 55, 73]",31176552731,Cs2Li1Ta1Cl6
Cs2LiAuCl6,mp-1113026,0.0,0.56704296,0.12624868424999924,"{55: 2, 3: 1, 79: 1, 17: 6}","[3, 17, 55, 79]",31176552791,Cs2Li1Au1Cl6
Cs2LiTlCl6,mp-1112999,1.5236,-0.25916667,0.018131119000003082,"{55: 2, 3: 1, 81: 1, 17: 6}","[3, 17, 55, 81]",31176552811,Cs2Li1Tl1Cl6
Cs2LiBiCl6,mp-1111851,3.6075,-0.00583333,0.009754943833332863,"{55: 2, 3: 1, 83: 1, 17: 6}","[3, 17, 55, 83]",31176552831,Cs2Li1Bi1Cl6
LiWCl6,mp-570512,0.0,0.91053489,0.0,"{3: 1, 74: 1, 17: 6}","[3, 17, 74]",31176741,Li1W1Cl6
LiNb3Cl8,mp-28463,0.8827000000000003,3.05653547,0.0,"{3: 1, 41: 3, 17: 8}","[3, 17, 41]",31178413,Li1Nb3Cl8
LiNb3InCl9,mp-570869,0.9365999999999999,2.85496709,0.0,"{3: 1, 41: 3, 49: 1, 17: 9}","[3, 17, 41, 49]",31179413491,Li1Nb3In1Cl9
Li11Mn6O16,mp-779771,0.0,3.02474279,0.05005560954544297,"{3: 11, 25: 6, 8: 16}","[3, 8, 25]",311816256,Li11Mn6O16
Li11(NiO2)12,mp-38676,0.0,0.53825167,0.015090391959224903,"{3: 11, 28: 12, 8: 24}","[3, 8, 28]",3118242812,Li11Ni12O24
Li11Ni13O24,mp-758517,0.0,3.89019296,0.0156727715972238,"{3: 11, 28: 13, 8: 24}","[3, 8, 28]",3118242813,Li11Ni13O24
Li11Nb4(Ni3O8)3,mp-769524,1.2260999999999997,4.91247377,0.06470788653645787,"{3: 11, 41: 4, 28: 9, 8: 24}","[3, 8, 28, 41]",311824289414,Li11Nb4Ni9O24
Li11(MoO2)12,mp-1223041,0.41439999999999966,4.3980821,0.052463413218082344,"{3: 11, 42: 12, 8: 24}","[3, 8, 42]",3118244212,Li11Mo12O24
Li11(RuO3)8,mp-757395,0.0,3.05529319,0.05018324285852849,"{3: 11, 44: 8, 8: 24}","[3, 8, 44]",311824448,Li11Ru8O24
Li11V12(OF)24,mp-776317,0.0,-0.94968955,0.05689544700704641,"{3: 11, 23: 12, 8: 24, 9: 24}","[3, 8, 9, 23]",3118249242312,Li11V12O24F24
Li11Mn11O26,mp-674422,0.0,2.84934579,0.2497625985069245,"{3: 11, 25: 11, 8: 26}","[3, 8, 25]",3118262511,Li11Mn11O26
Li11Ti12(NiO8)4,mp-760001,0.03310000000000013,5.0865249,0.07674034483049663,"{3: 11, 22: 12, 28: 4, 8: 32}","[3, 8, 22, 28]",3118322212284,Li11Ti12Ni4O32
Li11Ti4Mn12O32,mp-760216,0.0,2.85537022,0.053790121864410345,"{3: 11, 22: 4, 25: 12, 8: 32}","[3, 8, 22, 25]",3118322242512,Li11Ti4Mn12O32
Li11V12(CoO8)4,mp-761141,0.6860999999999997,3.25539545,0.151719728813557,"{3: 11, 23: 12, 27: 4, 8: 32}","[3, 8, 23, 27]",3118322312274,Li11V12Co4O32
Li11V16O32,mp-758440,0.6774,3.1205985,0.03751230218219703,"{3: 11, 23: 16, 8: 32}","[3, 8, 23]",3118322316,Li11V16O32
Li11Mn13O32,mp-531021,0.0,1.51179383,0.01194123530951341,"{3: 11, 25: 13, 8: 32}","[3, 8, 25]",3118322513,Li11Mn13O32
Li11Nb12O36,mp-676591,0.0,0.83917578,0.04221618353813916,"{3: 11, 41: 12, 8: 36}","[3, 8, 41]",3118364112,Li11Nb12O36
Li11U4(WO5)8,mp-772943,0.0,3.68350552,0.027289010112440337,"{3: 11, 92: 4, 74: 8, 8: 40}","[3, 8, 74, 92]",311840748924,Li11U4W8O40
Li11Sc7Ti(PO4)12,mp-695286,2.5181999999999998,2.30180373,0.6283936271360728,"{3: 11, 21: 7, 22: 1, 15: 12, 8: 48}","[3, 8, 15, 21, 22]",3118481512217221,Li11Sc7Ti1P12O48