formula,material_id,band_gap,efermi,energy_above_hull,comp_atoms,sorted_keys_comp_atoms,comp_number,new_formula
LiMn5O10,mp-759136,0.26249999999999973,2.18770234,0.09839613802603431,"{3: 1, 25: 5, 8: 10}","[3, 8, 25]",31810255,Li1Mn5O10
LiMn9CdO10,mp-1235825,0.0,3.75827844,0.23129845547619254,"{3: 1, 25: 9, 48: 1, 8: 10}","[3, 8, 25, 48]",31810259481,Li1Mn9Cd1O10
Li(NiO2)5,mp-1222991,0.0,2.2782788,0.10326846339844042,"{3: 1, 28: 5, 8: 10}","[3, 8, 28]",31810285,Li1Ni5O10
LiNi9O10,mp-775737,0.0,5.27808491,0.012352228666667742,"{3: 1, 28: 9, 8: 10}","[3, 8, 28]",31810289,Li1Ni9O10
LiGaO10,mp-1226095,0.058099999999999985,-0.45420412,0.5520901258333364,"{3: 1, 31: 1, 8: 10}","[3, 8, 31]",31810311,Li1Ga1O10
LiBi2As2(PbO5)2,mp-1235033,0.0,5.35922852,0.11103858446323489,"{3: 1, 83: 2, 33: 2, 82: 2, 8: 10}","[3, 8, 33, 82, 83]",31810332822832,Li1Bi2As2Pb2O10
Sr2LiNb3O10,mp-756854,2.0804,1.38246981,0.04279021390623683,"{38: 2, 3: 1, 41: 3, 8: 10}","[3, 8, 38, 41]",31810382413,Sr2Li1Nb3O10
LiNb8O10,mp-772215,0.0,4.44299532,0.07927140986842218,"{3: 1, 41: 8, 8: 10}","[3, 8, 41]",31810418,Li1Nb8O10
Li(Mo4O5)2,mp-29324,0.0,4.82297887,0.5127748141447324,"{3: 1, 42: 8, 8: 10}","[3, 8, 42]",31810428,Li1Mo8O10
KLiAl2Si4(O5F)2,mp-1211355,0.0,7.82445887,0.281853076489587,"{19: 1, 3: 1, 13: 2, 14: 4, 8: 10, 9: 2}","[3, 8, 9, 13, 14, 19]",3181092132144191,K1Li1Al2Si4O10F2
LiTl,mp-934,0.0,5.52485838,0.0,"{3: 1, 81: 1}","[3, 81]",31811,Li1Tl1
NaLiO,mp-755144,2.879,0.84412772,0.06930344666666688,"{11: 1, 3: 1, 8: 1}","[3, 8, 11]",3181111,Na1Li1O1
LiMg3P3O11,mp-1020109,5.3095,1.72293192,0.0,"{3: 1, 12: 3, 15: 3, 8: 11}","[3, 8, 12, 15]",31811123153,Li1Mg3P3O11
LiMoP2WO11,mp-1222468,2.469,1.36217735,0.011562568619781999,"{3: 1, 42: 1, 15: 2, 74: 1, 8: 11}","[3, 8, 15, 42, 74]",31811152421741,Li1Mo1P2W1O11
LiMo2P2O11,mp-26009,1.0137999999999998,1.54246531,0.011801746210958974,"{3: 1, 42: 2, 15: 2, 8: 11}","[3, 8, 15, 42]",31811152422,Li1Mo2P2O11
LiTi2P3O11,mp-762500,0.06820000000000004,4.91674594,0.1113519815083901,"{3: 1, 22: 2, 15: 3, 8: 11}","[3, 8, 15, 22]",31811153222,Li1Ti2P3O11
LiV2P3O11,mp-32516,1.5572999999999997,2.57351795,0.03823776897058373,"{3: 1, 23: 2, 15: 3, 8: 11}","[3, 8, 15, 23]",31811153232,Li1V2P3O11
LiV3P3O11,mp-757627,2.4475000000000002,3.86904598,0.08144535021723343,"{3: 1, 23: 3, 15: 3, 8: 11}","[3, 8, 15, 23]",31811153233,Li1V3P3O11
LiCr2P3O11,mp-25817,1.0380000000000003,3.40631831,0.04965973411764146,"{3: 1, 24: 2, 15: 3, 8: 11}","[3, 8, 15, 24]",31811153242,Li1Cr2P3O11
LiMn2P3O11,mp-25829,1.0122999999999998,1.48214667,0.040928020441192814,"{3: 1, 25: 2, 15: 3, 8: 11}","[3, 8, 15, 25]",31811153252,Li1Mn2P3O11
LiMn3P3O11,mp-780780,3.2093000000000003,2.07486735,0.05709861819445905,"{3: 1, 25: 3, 15: 3, 8: 11}","[3, 8, 15, 25]",31811153253,Li1Mn3P3O11
LiCo3P3O11,mp-584239,2.2134000000000005,1.98710927,0.17162809902778964,"{3: 1, 27: 3, 15: 3, 8: 11}","[3, 8, 15, 27]",31811153273,Li1Co3P3O11
LiNi2P3O11,mp-32389,0.0,1.37483227,0.09405265985294164,"{3: 1, 28: 2, 15: 3, 8: 11}","[3, 8, 15, 28]",31811153282,Li1Ni2P3O11
LiNi3P3O11,mp-25879,3.335,2.460793,0.027191791527775067,"{3: 1, 28: 3, 15: 3, 8: 11}","[3, 8, 15, 28]",31811153283,Li1Ni3P3O11
LiMo2P3O11,mp-25827,3.1174999999999997,3.11965437,0.028421134460799635,"{3: 1, 42: 2, 15: 3, 8: 11}","[3, 8, 15, 42]",31811153422,Li1Mo2P3O11
LiSb2P3O11,mp-759444,3.1453,2.88358851,0.07890131700981229,"{3: 1, 51: 2, 15: 3, 8: 11}","[3, 8, 15, 51]",31811153512,Li1Sb2P3O11
LiBi2P3O11,mp-758810,3.3756,2.03271486,0.0786623828921531,"{3: 1, 83: 2, 15: 3, 8: 11}","[3, 8, 15, 83]",31811153832,Li1Bi2P3O11
SrLiTi3Cr2O11,mp-1208707,0.20610000000000017,3.02456314,0.03501005626541698,"{38: 1, 3: 1, 22: 3, 24: 2, 8: 11}","[3, 8, 22, 24, 38]",31811223242381,Sr1Li1Ti3Cr2O11
SrLiTi4CrO11,mp-1173174,2.2734000000000005,4.91952929,0.007640083055555635,"{38: 1, 3: 1, 22: 4, 24: 1, 8: 11}","[3, 8, 22, 24, 38]",31811224241381,Sr1Li1Ti4Cr1O11
Na2Li18Ge17,mp-1195224,0.15010000000000012,3.11310676,0.0018591849166664787,"{11: 2, 3: 18, 32: 17}","[3, 11, 32]",3181123217,Na2Li18Ge17
LiCr6O11,mp-772581,0.0,3.35446114,0.08074966699074615,"{3: 1, 24: 6, 8: 11}","[3, 8, 24]",31811246,Li1Cr6O11
Sr4LiMn2Ga2O11,mp-1235278,0.0,2.7859092,0.1408917130249696,"{38: 4, 3: 1, 25: 2, 31: 2, 8: 11}","[3, 8, 25, 31, 38]",31811252312384,Sr4Li1Mn2Ga2O11
LiLaSO,mp-1147554,3.1672000000000002,7.60495791,0.008456593750000074,"{3: 1, 57: 1, 16: 1, 8: 1}","[3, 8, 16, 57]",3181161571,Li1La1S1O1
LiTiS2O,mp-1210859,0.0,3.24784986,0.7131249144444425,"{3: 1, 22: 1, 16: 2, 8: 1}","[3, 8, 16, 22]",3181162221,Li1Ti1S2O1
LiNb2Te4Cl10O,mp-1236135,0.0,1.59686954,0.028805252505788026,"{3: 1, 41: 2, 52: 4, 17: 10, 8: 1}","[3, 8, 17, 41, 52]",31811710412524,Li1Nb2Te4Cl10O1
LiAc2Tl,mp-1185293,0.0,5.29755114,0.0,"{3: 1, 89: 2, 81: 1}","[3, 81, 89]",31811892,Li1Ac2Tl1
KLiO,mp-559612,2.3803,0.17670564,0.012296178333333074,"{19: 1, 3: 1, 8: 1}","[3, 8, 19]",3181191,K1Li1O1
LiV6O11F,mp-1235260,0.8497000000000003,2.72690505,0.10921046743421137,"{3: 1, 23: 6, 8: 11, 9: 1}","[3, 8, 9, 23]",3181191236,Li1V6O11F1
LiGa3P2O11F3,mp-1222855,0.0,-0.62494174,0.29331024324305677,"{3: 1, 31: 3, 15: 2, 8: 11, 9: 3}","[3, 8, 9, 15, 31]",3181193152313,Li1Ga3P2O11F3
NaLiTiAl(PO4)3,mp-776520,2.5748999999999995,1.60261355,0.026538070878943998,"{11: 1, 3: 1, 22: 1, 13: 1, 15: 3, 8: 12}","[3, 8, 11, 13, 15, 22]",31812111131153221,Na1Li1Ti1Al1P3O12
NaLiAl4(SiO6)2,mp-1221039,3.1323000000000003,2.15239194,0.1852668373373021,"{11: 1, 3: 1, 13: 4, 14: 2, 8: 12}","[3, 8, 11, 13, 14]",31812111134142,Na1Li1Al4Si2O12
NaLiGa2(SiO3)4,mp-1220982,4.2668,2.39051024,0.03777779691666794,"{11: 1, 3: 1, 31: 2, 14: 4, 8: 12}","[3, 8, 11, 14, 31]",31812111144312,Na1Li1Ga2Si4O12
NaLiLa2Ti4O12,mp-677430,1.9969000000000001,4.02538894,0.03085299225009308,"{11: 1, 3: 1, 57: 2, 22: 4, 8: 12}","[3, 8, 11, 22, 57]",31812111224572,Na1Li1La2Ti4O12
NaLiV4O12,mp-1519923,0.0,1.06811581,0.20072594180554937,"{11: 1, 3: 1, 23: 4, 8: 12}","[3, 8, 11, 23]",31812111234,Na1Li1V4O12
NaLiNb4O12,mp-1516511,0.0,0.30646045,0.11670306930555086,"{11: 1, 3: 1, 41: 4, 8: 12}","[3, 8, 11, 41]",31812111414,Na1Li1Nb4O12
NaLi(WO3)4,mp-1517013,0.0,3.54992911,0.04053454821967861,"{11: 1, 3: 1, 74: 4, 8: 12}","[3, 8, 11, 74]",31812111744,Na1Li1W4O12
Na3LiV4O12,mp-1221217,3.157,-0.5163678,0.01219683624999579,"{11: 3, 3: 1, 23: 4, 8: 12}","[3, 8, 11, 23]",31812113234,Na3Li1V4O12
LiMgAl(MoO4)3,mp-1222672,3.5881000000000003,0.02587071,0.0,"{3: 1, 12: 1, 13: 1, 42: 3, 8: 12}","[3, 8, 12, 13, 42]",31812121131423,Li1Mg1Al1Mo3O12
LiMgIn(MoO4)3,mp-558897,3.1865,0.0944227,0.0,"{3: 1, 12: 1, 49: 1, 42: 3, 8: 12}","[3, 8, 12, 42, 49]",31812121423491,Li1Mg1In1Mo3O12
LiMg3(WO4)3,mp-1211749,0.0,3.8686284,0.11995663776315624,"{3: 1, 12: 3, 74: 3, 8: 12}","[3, 8, 12, 74]",31812123743,Li1Mg3W3O12
LiMg4V3O12,mp-559155,3.0354,1.17385218,0.00223884224998816,"{3: 1, 12: 4, 23: 3, 8: 12}","[3, 8, 12, 23]",31812124233,Li1Mg4V3O12
LiAl(PO3)4,mp-559987,5.7440999999999995,0.18243238,0.0024191545370442213,"{3: 1, 13: 1, 15: 4, 8: 12}","[3, 8, 13, 15]",31812131154,Li1Al1P4O12
LiAl4Tl4O12,mp-1235771,0.0,6.48227945,0.21351368755771816,"{3: 1, 13: 4, 81: 4, 8: 12}","[3, 8, 13, 81]",31812134814,Li1Al4Tl4O12
KLiMn2(SiO3)4,mp-1189006,2.041,2.90689889,0.0006313264627193504,"{19: 1, 3: 1, 25: 2, 14: 4, 8: 12}","[3, 8, 14, 19, 25]",31812144191252,K1Li1Mn2Si4O12
Li(SiO2)6,mp-1235283,0.0,6.41403614,0.13912873054824004,"{3: 1, 14: 6, 8: 12}","[3, 8, 14]",31812146,Li1Si6O12
LiMn6PO12,mp-26065,0.7654000000000001,3.25234069,0.0129395155208325,"{3: 1, 25: 6, 15: 1, 8: 12}","[3, 8, 15, 25]",31812151256,Li1Mn6P1O12
LiTiSn(PO4)3,mp-1222491,2.5122,1.44681669,0.0074962237499995865,"{3: 1, 22: 1, 50: 1, 15: 3, 8: 12}","[3, 8, 15, 22, 50]",31812153221501,Li1Ti1Sn1P3O12
LiTi2(PO4)3,mp-18640,2.4404,1.0977706,0.0,"{3: 1, 22: 2, 15: 3, 8: 12}","[3, 8, 15, 22]",31812153222,Li1Ti2P3O12
LiMnV(PO4)3,mp-768544,0.48750000000000004,0.81745936,0.03706632569444057,"{3: 1, 25: 1, 23: 1, 15: 3, 8: 12}","[3, 8, 15, 23, 25]",31812153231251,Li1Mn1V1P3O12
LiV2(PO4)3,mp-1101601,1.3092,1.2836494,0.0,"{3: 1, 23: 2, 15: 3, 8: 12}","[3, 8, 15, 23]",31812153232,Li1V2P3O12
LiV4(PO4)3,mp-758417,1.7855999999999996,5.09278046,0.05202318432051989,"{3: 1, 23: 4, 15: 3, 8: 12}","[3, 8, 15, 23]",31812153234,Li1V4P3O12
LiCr2(PO4)3,mp-1101532,0.1005999999999998,1.03555984,0.03310825430555209,"{3: 1, 24: 2, 15: 3, 8: 12}","[3, 8, 15, 24]",31812153242,Li1Cr2P3O12
LiCr4(PO4)3,mp-26967,2.4213,3.15791624,0.0,"{3: 1, 24: 4, 15: 3, 8: 12}","[3, 8, 15, 24]",31812153244,Li1Cr4P3O12
LiMn2(PO4)3,mp-26061,0.7510999999999999,0.79247081,0.009331440277793313,"{3: 1, 25: 2, 15: 3, 8: 12}","[3, 8, 15, 25]",31812153252,Li1Mn2P3O12
LiMn3(PO4)3,mp-768446,0.0,2.14900962,0.012295291447378176,"{3: 1, 25: 3, 15: 3, 8: 12}","[3, 8, 15, 25]",31812153253,Li1Mn3P3O12
LiMn4(PO4)3,mp-26393,3.3657000000000004,2.75409076,0.028742484624990183,"{3: 1, 25: 4, 15: 3, 8: 12}","[3, 8, 15, 25]",31812153254,Li1Mn4P3O12
LiCo2(PO4)3,mp-863391,0.0,0.22895716,0.0912323075925876,"{3: 1, 27: 2, 15: 3, 8: 12}","[3, 8, 15, 27]",31812153272,Li1Co2P3O12
LiNi2(PO4)3,mp-26438,0.0,1.67554094,0.1401783476388907,"{3: 1, 28: 2, 15: 3, 8: 12}","[3, 8, 15, 28]",31812153282,Li1Ni2P3O12
LiNi4(PO4)3,mp-26511,3.4272,3.88361448,0.027251347375011115,"{3: 1, 28: 4, 15: 3, 8: 12}","[3, 8, 15, 28]",31812153284,Li1Ni4P3O12
LiGe2(PO4)3,mp-541272,3.385,1.62013215,0.009428664953699872,"{3: 1, 32: 2, 15: 3, 8: 12}","[3, 8, 15, 32]",31812153322,Li1Ge2P3O12
LiZr2(PO4)3,mp-10499,4.2387999999999995,0.14626463,0.0,"{3: 1, 40: 2, 15: 3, 8: 12}","[3, 8, 15, 40]",31812153402,Li1Zr2P3O12
LiNb2(PO4)3,mp-26389,0.0,3.66303761,0.04789189762399815,"{3: 1, 41: 2, 15: 3, 8: 12}","[3, 8, 15, 41]",31812153412,Li1Nb2P3O12
LiMo2(PO4)3,mp-585265,1.3906000000000003,1.54954767,0.0,"{3: 1, 42: 2, 15: 3, 8: 12}","[3, 8, 15, 42]",31812153422,Li1Mo2P3O12
LiSn2(PO4)3,mp-554917,3.4851,1.3719204,0.0,"{3: 1, 50: 2, 15: 3, 8: 12}","[3, 8, 15, 50]",31812153502,Li1Sn2P3O12
LiSn4(PO4)3,mp-673024,3.7885,1.92942723,0.029959857583345517,"{3: 1, 50: 4, 15: 3, 8: 12}","[3, 8, 15, 50]",31812153504,Li1Sn4P3O12
LiSb2(PO4)3,mp-684508,1.8474,2.08968132,0.033993194398156845,"{3: 1, 51: 2, 15: 3, 8: 12}","[3, 8, 15, 51]",31812153512,Li1Sb2P3O12
LiP3(WO6)2,mp-758098,2.3861,1.44255286,0.0,"{3: 1, 15: 3, 74: 2, 8: 12}","[3, 8, 15, 74]",31812153742,Li1P3W2O12
LiBi2(PO4)3,mp-504151,0.5567000000000001,0.66480181,0.061029039814813224,"{3: 1, 83: 2, 15: 3, 8: 12}","[3, 8, 15, 83]",31812153832,Li1Bi2P3O12
LiTi(PO3)4,mp-26113,0.28690000000000015,3.53468687,0.021740019679894473,"{3: 1, 22: 1, 15: 4, 8: 12}","[3, 8, 15, 22]",31812154221,Li1Ti1P4O12
LiV(PO3)4,mp-26955,2.1576,1.18152416,0.0,"{3: 1, 23: 1, 15: 4, 8: 12}","[3, 8, 15, 23]",31812154231,Li1V1P4O12
LiCr(PO3)4,mp-25985,3.548,0.12190384,0.0013790621759266486,"{3: 1, 24: 1, 15: 4, 8: 12}","[3, 8, 15, 24]",31812154241,Li1Cr1P4O12
LiMn(PO3)4,mp-26983,1.3434,0.23417857,0.0,"{3: 1, 25: 1, 15: 4, 8: 12}","[3, 8, 15, 25]",31812154251,Li1Mn1P4O12
LiCo(PO3)4,mp-26997,1.3617,-0.35448436,0.0,"{3: 1, 27: 1, 15: 4, 8: 12}","[3, 8, 15, 27]",31812154271,Li1Co1P4O12
LiNi(PO3)4,mp-26141,0.6868000000000001,1.32404953,0.03549590407406811,"{3: 1, 28: 1, 15: 4, 8: 12}","[3, 8, 15, 28]",31812154281,Li1Ni1P4O12
LiGa(PO3)4,mp-1211020,5.0646,-0.30316446,0.0,"{3: 1, 31: 1, 15: 4, 8: 12}","[3, 8, 15, 31]",31812154311,Li1Ga1P4O12
LiNb(PO3)4,mp-26549,0.0665,3.25961421,0.06455551815409954,"{3: 1, 41: 1, 15: 4, 8: 12}","[3, 8, 15, 41]",31812154411,Li1Nb1P4O12
LiMo(PO3)4,mp-25987,4.4002,0.99339268,0.004660257777775456,"{3: 1, 42: 1, 15: 4, 8: 12}","[3, 8, 15, 42]",31812154421,Li1Mo1P4O12
LiAg4(PO3)4,mp-1236396,0.0,1.77037808,0.10527768119048364,"{3: 1, 47: 4, 15: 4, 8: 12}","[3, 8, 15, 47]",31812154474,Li1Ag4P4O12
LiSn(PO3)4,mp-25907,0.0,2.45954618,0.04237768918980844,"{3: 1, 50: 1, 15: 4, 8: 12}","[3, 8, 15, 50]",31812154501,Li1Sn1P4O12
LiSb(PO3)4,mp-504353,4.357,1.59452583,0.0,"{3: 1, 51: 1, 15: 4, 8: 12}","[3, 8, 15, 51]",31812154511,Li1Sb1P4O12
LiLa(PO3)4,mp-560866,4.9957,1.02561636,0.0,"{3: 1, 57: 1, 15: 4, 8: 12}","[3, 8, 15, 57]",31812154571,Li1La1P4O12
LiCe(PO3)4,mp-1205078,0.3603000000000005,4.82956872,0.0,"{3: 1, 58: 1, 15: 4, 8: 12}","[3, 8, 15, 58]",31812154581,Li1Ce1P4O12
LiNd(PO3)4,mp-18711,5.9792000000000005,0.3347443,0.0,"{3: 1, 60: 1, 15: 4, 8: 12}","[3, 8, 15, 60]",31812154601,Li1Nd1P4O12
LiSm(PO3)4,mp-1199215,6.0068,6.42204321,0.0,"{3: 1, 62: 1, 15: 4, 8: 12}","[3, 8, 15, 62]",31812154621,Li1Sm1P4O12
LiEu(PO3)4,mp-555486,0.0,0.70110818,0.010461636620365589,"{3: 1, 63: 1, 15: 4, 8: 12}","[3, 8, 15, 63]",31812154631,Li1Eu1P4O12
LiGd(PO3)4,mp-6248,3.4298,0.44150796,0.0,"{3: 1, 64: 1, 15: 4, 8: 12}","[3, 8, 15, 64]",31812154641,Li1Gd1P4O12
LiTb(PO3)4,mp-18194,6.021999999999999,0.56925426,0.0,"{3: 1, 65: 1, 15: 4, 8: 12}","[3, 8, 15, 65]",31812154651,Li1Tb1P4O12
LiDy(PO3)4,mp-6413,5.6359,0.55644801,0.0029157762037108625,"{3: 1, 66: 1, 15: 4, 8: 12}","[3, 8, 15, 66]",31812154661,Li1Dy1P4O12
LiHo(PO3)4,mp-555366,6.3105,0.67335942,0.0027478143518528952,"{3: 1, 67: 1, 15: 4, 8: 12}","[3, 8, 15, 67]",31812154671,Li1Ho1P4O12
LiEr(PO3)4,mp-555065,5.9275,0.61922935,0.008097708425939487,"{3: 1, 68: 1, 15: 4, 8: 12}","[3, 8, 15, 68]",31812154681,Li1Er1P4O12
LiP4WO12,mp-757973,3.7759,0.90037922,0.0,"{3: 1, 15: 4, 74: 1, 8: 12}","[3, 8, 15, 74]",31812154741,Li1P4W1O12
LiBi(PO3)4,mp-504354,5.0024,1.07880296,0.0,"{3: 1, 83: 1, 15: 4, 8: 12}","[3, 8, 15, 83]",31812154831,Li1Bi1P4O12
LiV(SO4)3,mp-772428,1.2947,-0.77760048,0.0251358272549016,"{3: 1, 23: 1, 16: 3, 8: 12}","[3, 8, 16, 23]",31812163231,Li1V1S3O12
LiV2(SO4)3,mp-1176597,0.5052000000000003,2.44566682,0.025960532412279136,"{3: 1, 23: 2, 16: 3, 8: 12}","[3, 8, 16, 23]",31812163232,Li1V2S3O12
LiCr2(SO4)3,mp-770490,0.7267000000000001,2.46114902,0.0358285844345243,"{3: 1, 24: 2, 16: 3, 8: 12}","[3, 8, 16, 24]",31812163242,Li1Cr2S3O12
LiMn2(SO4)3,mp-768898,0.0,0.81109743,0.0036077222222292704,"{3: 1, 25: 2, 16: 3, 8: 12}","[3, 8, 16, 25]",31812163252,Li1Mn2S3O12
LiCo2(SO4)3,mp-769110,0.21799999999999997,0.87068631,0.012251146527775703,"{3: 1, 27: 2, 16: 3, 8: 12}","[3, 8, 16, 27]",31812163272,Li1Co2S3O12
LiNi2(SO4)3,mp-768614,0.0,0.48082098,0.026716726527776125,"{3: 1, 28: 2, 16: 3, 8: 12}","[3, 8, 16, 28]",31812163282,Li1Ni2S3O12
LiSn2(SO4)3,mp-768678,4.228,2.3774324,0.0629147614583303,"{3: 1, 50: 2, 16: 3, 8: 12}","[3, 8, 16, 50]",31812163502,Li1Sn2S3O12
LiBi2(SO4)3,mp-768754,0.6097000000000001,3.93747811,0.11089127594792014,"{3: 1, 83: 2, 16: 3, 8: 12}","[3, 8, 16, 83]",31812163832,Li1Bi2S3O12
LiAu4Se4(ClO3)4,mp-1236013,0.13219999999999998,0.56814763,0.044455231233334835,"{3: 1, 79: 4, 34: 4, 17: 4, 8: 12}","[3, 8, 17, 34, 79]",31812174344794,Li1Au4Se4Cl4O12
KLiNb4O12,mp-1522963,0.0,0.07084895,0.1434744706944393,"{19: 1, 3: 1, 41: 4, 8: 12}","[3, 8, 19, 41]",31812191414,K1Li1Nb4O12
KLi(WO3)4,mp-1521873,0.0,3.08320227,0.08011987690358957,"{19: 1, 3: 1, 74: 4, 8: 12}","[3, 8, 19, 74]",31812191744,K1Li1W4O12
K2LiNd4Nb2O12,mp-1235034,0.0,4.87976645,0.06091817053571269,"{19: 2, 3: 1, 60: 4, 41: 2, 8: 12}","[3, 8, 19, 41, 60]",31812192412604,K2Li1Nd4Nb2O12
K2LiIn(MoO4)3,mp-1197982,3.7750999999999997,-0.84371825,0.0,"{19: 2, 3: 1, 49: 1, 42: 3, 8: 12}","[3, 8, 19, 42, 49]",31812192423491,K2Li1In1Mo3O12
LiCa3Zr3TaO12,mp-677136,3.7016999999999998,1.73570004,0.0052496643333377335,"{3: 1, 20: 3, 40: 3, 73: 1, 8: 12}","[3, 8, 20, 40, 73]",31812203403731,Li1Ca3Zr3Ta1O12
LiTiSe2O,mp-1211008,0.0,2.38525026,0.6172238773489589,"{3: 1, 22: 1, 34: 2, 8: 1}","[3, 8, 22, 34]",3181221342,Li1Ti1Se2O1
LiTi2V3O12,mp-764774,2.3032,-0.51456506,0.00744385999999686,"{3: 1, 22: 2, 23: 3, 8: 12}","[3, 8, 22, 23]",31812222233,Li1Ti2V3O12
LiSm4Ti2Mn2O12,mp-1232994,0.0,5.95894335,0.13529429525759085,"{3: 1, 62: 4, 22: 2, 25: 2, 8: 12}","[3, 8, 22, 25, 62]",31812222252624,Li1Sm4Ti2Mn2O12
LiLa3Ti3CrO12,mp-755440,0.0,7.65281832,0.05787844102083284,"{3: 1, 57: 3, 22: 3, 24: 1, 8: 12}","[3, 8, 22, 24, 57]",31812223241573,Li1La3Ti3Cr1O12
LiLa4Ti3O12,mp-756861,0.0,8.35320644,0.030648867000008906,"{3: 1, 57: 4, 22: 3, 8: 12}","[3, 8, 22, 57]",31812223574,Li1La4Ti3O12
Sr2LiLaTi4O12,mp-1218768,1.8370999999999995,3.68605823,0.058240624640623295,"{38: 2, 3: 1, 57: 1, 22: 4, 8: 12}","[3, 8, 22, 38, 57]",31812224382571,Sr2Li1La1Ti4O12
LiLaTi4O12,mp-1523191,0.0,1.64488278,0.20299419664814877,"{3: 1, 57: 1, 22: 4, 8: 12}","[3, 8, 22, 57]",31812224571,Li1La1Ti4O12
LiLa3Ti4O12,mp-752433,0.0,7.79753703,0.028725357562505494,"{3: 1, 57: 3, 22: 4, 8: 12}","[3, 8, 22, 57]",31812224573,Li1La3Ti4O12
LiCeTi4O12,mp-1520768,0.0,1.82829835,0.18475582894444642,"{3: 1, 58: 1, 22: 4, 8: 12}","[3, 8, 22, 58]",31812224581,Li1Ce1Ti4O12
LiNdTi4O12,mp-1519505,0.0,0.94716255,0.21824790005092787,"{3: 1, 60: 1, 22: 4, 8: 12}","[3, 8, 22, 60]",31812224601,Li1Nd1Ti4O12
LiTi6O12,mp-757527,0.0,4.87808119,0.039829020263164594,"{3: 1, 22: 6, 8: 12}","[3, 8, 22]",31812226,Li1Ti6O12
LiVTe(WO6)2,mp-753012,1.6739,1.86046058,0.05030554477941074,"{3: 1, 23: 1, 52: 1, 74: 2, 8: 12}","[3, 8, 23, 52, 74]",31812231521742,Li1V1Te1W2O12
LiVTe2WO12,mp-756572,1.2441,2.71868659,0.06495749088235314,"{3: 1, 23: 1, 52: 2, 74: 1, 8: 12}","[3, 8, 23, 52, 74]",31812231522741,Li1V1Te2W1O12
LiV(TeO4)3,mp-764607,1.4647000000000001,2.66079802,0.026324398750003475,"{3: 1, 23: 1, 52: 3, 8: 12}","[3, 8, 23, 52]",31812231523,Li1V1Te3O12
LiV3(CoO6)2,mp-761188,0.2202,0.07885304,0.10593032558332904,"{3: 1, 23: 3, 27: 2, 8: 12}","[3, 8, 23, 27]",31812233272,Li1V3Co2O12
LiV3(TeO6)2,mp-559938,1.8777999999999997,2.06195658,0.0,"{3: 1, 23: 3, 52: 2, 8: 12}","[3, 8, 23, 52]",31812233522,Li1V3Te2O12
LiV4(NiO6)2,mp-1235775,0.11109999999999998,2.32851344,0.16806697671052984,"{3: 1, 23: 4, 28: 2, 8: 12}","[3, 8, 23, 28]",31812234282,Li1V4Ni2O12
LiLaV4O12,mp-1520845,1.0423999999999998,2.13433589,0.13961011861110784,"{3: 1, 57: 1, 23: 4, 8: 12}","[3, 8, 23, 57]",31812234571,Li1La1V4O12
LiSm4V4O12,mp-1236252,0.9364999999999997,4.93625576,0.09097751869047954,"{3: 1, 62: 4, 23: 4, 8: 12}","[3, 8, 23, 62]",31812234624,Li1Sm4V4O12
LiCr2(MoO4)3,mp-1211202,0.7350000000000001,2.63212801,0.055005986666667894,"{3: 1, 24: 2, 42: 3, 8: 12}","[3, 8, 24, 42]",31812242423,Li1Cr2Mo3O12
LiCr4O12,mp-773174,0.0,-0.49949457,0.10220406197057841,"{3: 1, 24: 4, 8: 12}","[3, 8, 24]",31812244,Li1Cr4O12
LiCr4In4O12,mp-1236597,0.0,6.48246437,0.187030808783069,"{3: 1, 24: 4, 49: 4, 8: 12}","[3, 8, 24, 49]",31812244494,Li1Cr4In4O12
LiMn4(CoO6)2,mp-1235264,0.0,1.05395785,0.12638738859648946,"{3: 1, 25: 4, 27: 2, 8: 12}","[3, 8, 25, 27]",31812254272,Li1Mn4Co2O12
LiLaMn4O12,mp-1523240,0.0,1.62399292,0.36381829687269374,"{3: 1, 57: 1, 25: 4, 8: 12}","[3, 8, 25, 57]",31812254571,Li1La1Mn4O12
LiPrMn4O12,mp-1520473,0.0,0.96769602,0.34202828482639,"{3: 1, 59: 1, 25: 4, 8: 12}","[3, 8, 25, 59]",31812254591,Li1Pr1Mn4O12
LiNdMn4O12,mp-1517398,0.0,0.96504273,0.34364570510417547,"{3: 1, 60: 1, 25: 4, 8: 12}","[3, 8, 25, 60]",31812254601,Li1Nd1Mn4O12
LiMn6O12,mp-1176651,0.37529999999999974,2.38461415,0.045452731276315994,"{3: 1, 25: 6, 8: 12}","[3, 8, 25]",31812256,Li1Mn6O12
LiMn7O12,mp-770641,0.0,2.95962831,0.054135420566666426,"{3: 1, 25: 7, 8: 12}","[3, 8, 25]",31812257,Li1Mn7O12
LiLa2Co2Sb2(PbO6)2,mp-1235261,0.0,7.11129795,0.15438494238982603,"{3: 1, 57: 2, 27: 2, 51: 2, 82: 2, 8: 12}","[3, 8, 27, 51, 57, 82]",31812272512572822,Li1La2Co2Sb2Pb2O12
LiLu4(CoO3)4,mp-1235074,0.0,3.4880335,0.17433160011904647,"{3: 1, 71: 4, 27: 4, 8: 12}","[3, 8, 27, 71]",31812274714,Li1Lu4Co4O12
LiLa4Ni3WO12,mp-1235780,0.9354000000000005,7.79904558,0.3005006181250005,"{3: 1, 57: 4, 28: 3, 74: 1, 8: 12}","[3, 8, 28, 57, 74]",31812283574741,Li1La4Ni3W1O12
LiTl4(NiO3)4,mp-1232975,0.07929999999999993,4.7278335,0.1712172932738083,"{3: 1, 81: 4, 28: 4, 8: 12}","[3, 8, 28, 81]",31812284814,Li1Tl4Ni4O12
LiGa4(WO6)2,mp-1236043,2.3932999999999995,2.68856967,0.07728718390789524,"{3: 1, 31: 4, 74: 2, 8: 12}","[3, 8, 31, 74]",31812314742,Li1Ga4W2O12