formula,material_id,band_gap,efermi,energy_above_hull,comp_atoms,sorted_keys_comp_atoms,comp_number,new_formula
NaLiP2(H4O5)2,mp-723426,5.129099999999999,-1.09955046,0.03386146007575341,"{11: 1, 3: 1, 15: 2, 1: 8, 8: 10}","[1, 3, 8, 11, 15]",1831810111152,Na1Li1P2H8O10
LiUP(H4O5)2,mp-560246,2.5244,-0.48361361,0.0,"{3: 1, 92: 1, 15: 1, 1: 8, 8: 10}","[1, 3, 8, 15, 92]",1831810151921,Li1U1P1H8O10
LiUAs(H4O5)2,mp-1180608,2.5412,1.62362875,0.000538554999999441,"{3: 1, 92: 1, 33: 1, 1: 8, 8: 10}","[1, 3, 8, 33, 92]",1831810331921,Li1U1As1H8O10
LiMnH8(SO6)2,mp-831237,1.1821000000000002,0.30334122,0.036560762454233675,"{3: 1, 25: 1, 1: 8, 16: 2, 8: 12}","[1, 3, 8, 16, 25]",1831812162251,Li1Mn1H8S2O12
LiCoH8(SO6)2,mp-780159,1.0009,-0.61381784,0.05099435039062161,"{3: 1, 27: 1, 1: 8, 16: 2, 8: 12}","[1, 3, 8, 16, 27]",1831812162271,Li1Co1H8S2O12
Na2LiP3H8O13,mp-740710,5.0012,-0.78884648,0.03332314101852063,"{11: 2, 3: 1, 15: 3, 1: 8, 8: 13}","[1, 3, 8, 11, 15]",1831813112153,Na2Li1P3H8O13
LiCaP3H8O13,mp-721067,5.2237,-0.42054,0.03563486346153688,"{3: 1, 20: 1, 15: 3, 1: 8, 8: 13}","[1, 3, 8, 15, 20]",1831813153201,Li1Ca1P3H8O13
LiVP3H8O13,mp-780522,2.7241,2.23075036,0.05475975872534189,"{3: 1, 23: 1, 15: 3, 1: 8, 8: 13}","[1, 3, 8, 15, 23]",1831813153231,Li1V1P3H8O13
LiCrP3H8O13,mp-849450,2.5294,1.76810929,0.04945507956731099,"{3: 1, 24: 1, 15: 3, 1: 8, 8: 13}","[1, 3, 8, 15, 24]",1831813153241,Li1Cr1P3H8O13
LiMnP3H8O13,mp-780729,4.3195,0.49311697,0.04567171612178633,"{3: 1, 25: 1, 15: 3, 1: 8, 8: 13}","[1, 3, 8, 15, 25]",1831813153251,Li1Mn1P3H8O13
Sr2Li(H4O3)2,mp-1236393,0.0,2.17727356,0.12918468933823313,"{38: 2, 3: 1, 1: 8, 8: 6}","[1, 3, 8, 38]",183186382,Sr2Li1H8O6
Li2CoH8(CO5)2,mp-770598,3.0362,-0.0084451,0.025367861956524074,"{3: 2, 27: 1, 1: 8, 6: 2, 8: 10}","[1, 3, 6, 8, 27]",183262810271,Li2Co1H8C2O10
Li2NiH8(CO5)2,mp-771916,4.1396999999999995,0.09634361,0.05219195717391223,"{3: 2, 28: 1, 1: 8, 6: 2, 8: 10}","[1, 3, 6, 8, 28]",183262810281,Li2Ni1H8C2O10
Li2MnH8(SO6)2,mp-779330,3.9071000000000002,3.93497784,0.05855763509999434,"{3: 2, 25: 1, 1: 8, 16: 2, 8: 12}","[1, 3, 8, 16, 25]",1832812162251,Li2Mn1H8S2O12
Li2CoH8(SO6)2,mp-770611,3.2881,0.48117788,0.07413622969999967,"{3: 2, 27: 1, 1: 8, 16: 2, 8: 12}","[1, 3, 8, 16, 27]",1832812162271,Li2Co1H8S2O12
Li2VP4(HO2)8,mp-778891,2.3981,2.29667818,0.05218453566307968,"{3: 2, 23: 1, 15: 4, 1: 8, 8: 16}","[1, 3, 8, 15, 23]",1832816154231,Li2V1P4H8O16
Li2CrH8Cl5O4,mp-770676,3.1859,-1.77758744,0.0416933125833312,"{3: 2, 24: 1, 1: 8, 17: 5, 8: 4}","[1, 3, 8, 17, 24]",183284175241,Li2Cr1H8Cl5O4
NaLi3(H2N)4,mp-505381,2.5675999999999997,-0.73734953,0.0,"{11: 1, 3: 3, 1: 8, 7: 4}","[1, 3, 7, 11]",183374111,Na1Li3H8N4
Li3BiH8O7,mp-769868,4.0181,0.42647264,0.044922964736837656,"{3: 3, 83: 1, 1: 8, 8: 7}","[1, 3, 8, 83]",183387831,Li3Bi1H8O7
Li4VP6(H4O11)2,mp-780492,2.4366,3.04847581,0.060994965733889295,"{3: 4, 23: 1, 15: 6, 1: 8, 8: 22}","[1, 3, 8, 15, 23]",1834822156231,Li4V1P6H8O22
Li4CrP6(H4O11)2,mp-775207,2.7359999999999998,2.52069262,0.061319225986219195,"{3: 4, 24: 1, 15: 6, 1: 8, 8: 22}","[1, 3, 8, 15, 24]",1834822156241,Li4Cr1P6H8O22
Li4MnP6(H4O11)2,mp-779351,4.2129,1.19291704,0.05683740321138675,"{3: 4, 25: 1, 15: 6, 1: 8, 8: 22}","[1, 3, 8, 15, 25]",1834822156251,Li4Mn1P6H8O22
Li4CrH8SO7,mp-770612,2.5716,1.57428999,0.03610671174106983,"{3: 4, 24: 1, 1: 8, 16: 1, 8: 7}","[1, 3, 8, 16, 24]",183487161241,Li4Cr1H8S1O7
Li6P6H8O23,mp-1224499,0.5490999999999999,-1.32518118,0.1064956704844926,"{3: 6, 15: 6, 1: 8, 8: 23}","[1, 3, 8, 15]",1836823156,Li6P6H8O23
LiB(H3N)3,mp-1194702,4.086399999999999,2.8377013,0.17950202255952252,"{3: 1, 5: 1, 1: 9, 7: 3}","[1, 3, 5, 7]",19315173,Li1B1H9N3
Li15H9N8,mp-1201065,2.6967000000000003,0.29794883,0.005666109609374637,"{3: 15, 1: 9, 7: 8}","[1, 3, 7]",1931578,Li15H9N8
LiMn2P2H9O13,mp-850441,1.0564,0.55851765,0.05809837749614388,"{3: 1, 25: 2, 15: 2, 1: 9, 8: 13}","[1, 3, 8, 15, 25]",1931813152252,Li1Mn2P2H9O13
Li2B2H9N,mp-1200773,4.6523,2.79243824,0.10262529869047388,"{3: 2, 5: 2, 1: 9, 7: 1}","[1, 3, 5, 7]",19325271,Li2B2H9N1
Li5H9Pt2,mp-643656,0.0,1.61872396,0.0,"{3: 5, 1: 9, 78: 2}","[1, 3, 78]",1935782,Li5H9Pt2
Li,mp-1018134,0.0,0.58312251,0.0,{3: 1},[3],31,Li1
Li10Mg7Cl24,mp-530738,4.438599999999999,0.44825887,0.01082544560975407,"{3: 10, 12: 7, 17: 24}","[3, 12, 17]",3101271724,Li10Mg7Cl24
Li10Si(PS6)2,mp-720509,2.5638,1.51191709,0.006719742999998779,"{3: 10, 14: 1, 15: 2, 16: 12}","[3, 14, 15, 16]",3101411521612,Li10Si1P2S12
Li10Si(PSe6)2,mp-721253,1.4633,1.05695247,0.0,"{3: 10, 14: 1, 15: 2, 34: 12}","[3, 14, 15, 34]",3101411523412,Li10Si1P2Se12
Li10Ge(PS6)2,mp-696138,2.3653,1.40917906,0.01876053389999921,"{3: 10, 32: 1, 15: 2, 16: 12}","[3, 15, 16, 32]",3101521612321,Li10Ge1P2S12
Li10Sn(PS6)2,mp-721236,2.339,1.43805395,0.023375087500001612,"{3: 10, 50: 1, 15: 2, 16: 12}","[3, 15, 16, 50]",3101521612501,Li10Sn1P2S12
Li10Ge(PSe6)2,mp-721239,1.3131000000000002,0.96448974,0.0,"{3: 10, 32: 1, 15: 2, 34: 12}","[3, 15, 32, 34]",3101523213412,Li10Ge1P2Se12
Li10Sn(PSe6)2,mp-721252,1.3659000000000001,1.06044858,0.0,"{3: 10, 50: 1, 15: 2, 34: 12}","[3, 15, 34, 50]",3101523412501,Li10Sn1P2Se12
Li10Zn(PS4)4,mp-1147695,2.7251,4.18241129,0.005069962822578766,"{3: 10, 30: 1, 15: 4, 16: 16}","[3, 15, 16, 30]",3101541616301,Li10Zn1P4S16
Li10Zn7(PS4)8,mp-1147627,2.6681,4.27101418,0.0051426498684215005,"{3: 10, 30: 7, 15: 8, 16: 32}","[3, 15, 16, 30]",3101581632307,Li10Zn7P8S32
Li10B14Cl2O25,mp-23122,6.4018999999999995,0.84404014,0.002686594583328983,"{3: 10, 5: 14, 17: 2, 8: 25}","[3, 5, 8, 17]",310514825172,Li10B14Cl2O25
Li10BrN3,mp-28989,1.3667,0.36508959,0.0,"{3: 10, 35: 1, 7: 3}","[3, 7, 35]",31073351,Li10Br1N3
Li10V(SiO5)2,mp-765779,0.8535999999999997,3.42598947,0.09099887202897872,"{3: 10, 23: 1, 14: 2, 8: 10}","[3, 8, 14, 23]",310810142231,Li10V1Si2O10
Li10Cr(SiO5)2,mp-1263657,0.6955,2.22251651,0.09361443376811174,"{3: 10, 24: 1, 14: 2, 8: 10}","[3, 8, 14, 24]",310810142241,Li10Cr1Si2O10
Li10Mn(SiO5)2,mp-780653,0.9481999999999999,1.28292782,0.057021651413037944,"{3: 10, 25: 1, 14: 2, 8: 10}","[3, 8, 14, 25]",310810142251,Li10Mn1Si2O10
Li10Co(SiO5)2,mp-763575,1.9617,1.00641136,0.05105839991847905,"{3: 10, 27: 1, 14: 2, 8: 10}","[3, 8, 14, 27]",310810142271,Li10Co1Si2O10
Li10Si2NiO10,mp-767066,2.3662,0.76273401,0.0543481211956518,"{3: 10, 14: 2, 28: 1, 8: 10}","[3, 8, 14, 28]",310810142281,Li10Si2Ni1O10
Li10Si2PbO10,mp-553950,2.9602999999999997,1.7260201,0.0036918968070640545,"{3: 10, 14: 2, 82: 1, 8: 10}","[3, 8, 14, 82]",310810142821,Li10Si2Pb1O10
Li10Si(PO6)2,mp-721255,5.1063,0.61024302,0.09191597239999894,"{3: 10, 14: 1, 15: 2, 8: 12}","[3, 8, 14, 15]",310812141152,Li10Si1P2O12
Li10Ge(PO6)2,mp-632815,4.4932,0.45814008,0.06988341079999838,"{3: 10, 32: 1, 15: 2, 8: 12}","[3, 8, 15, 32]",310812152321,Li10Ge1P2O12
Li10Sn(PO6)2,mp-721238,3.2725999999999997,0.74225157,0.09935146113333548,"{3: 10, 50: 1, 15: 2, 8: 12}","[3, 8, 15, 50]",310812152501,Li10Sn1P2O12
Li10Ti4O13,mp-772260,3.9595,-0.1471307,0.08404758000000623,"{3: 10, 22: 4, 8: 13}","[3, 8, 22]",310813224,Li10Ti4O13
Li10Ti2Mn3Co3O16,mp-779764,0.0,3.87116387,0.12384684040441662,"{3: 10, 22: 2, 25: 3, 27: 3, 8: 16}","[3, 8, 22, 25, 27]",310816222253273,Li10Ti2Mn3Co3O16
Li10Ti2Mn3Ni3O16,mp-777402,0.3022,4.16840237,0.09679557919118054,"{3: 10, 22: 2, 25: 3, 28: 3, 8: 16}","[3, 8, 22, 25, 28]",310816222253283,Li10Ti2Mn3Ni3O16
Li10Ti3Mn5O16,mp-761137,0.8626999999999998,3.60959414,0.11943631352941164,"{3: 10, 22: 3, 25: 5, 8: 16}","[3, 8, 22, 25]",310816223255,Li10Ti3Mn5O16
Li10Ti3Co3(NiO8)2,mp-774315,0.5989000000000004,4.40941859,0.10323512904411825,"{3: 10, 22: 3, 27: 3, 28: 2, 8: 16}","[3, 8, 22, 27, 28]",310816223273282,Li10Ti3Co3Ni2O16
Li10Mn2V3Cr3O16,mp-760787,1.8132999999999995,3.62281651,0.06242073102941337,"{3: 10, 25: 2, 23: 3, 24: 3, 8: 16}","[3, 8, 23, 24, 25]",310816233243252,Li10Mn2V3Cr3O16
Li10V3Cr5O16,mp-761047,0.22939999999999916,4.89636233,0.09993498220588304,"{3: 10, 23: 3, 24: 5, 8: 16}","[3, 8, 23, 24]",310816233245,Li10V3Cr5O16
Li10V5Cr3O16,mp-760983,0.6901000000000002,5.51543652,0.08072898750000057,"{3: 10, 23: 5, 24: 3, 8: 16}","[3, 8, 23, 24]",310816235243,Li10V5Cr3O16
Li10Mn3V5O16,mp-764265,0.0,3.94395684,0.09173935713235437,"{3: 10, 25: 3, 23: 5, 8: 16}","[3, 8, 23, 25]",310816235253,Li10Mn3V5O16
Li10Mn3Cr2Ni3O16,mp-778885,0.37219999999999986,3.85204476,0.10702009181372674,"{3: 10, 25: 3, 24: 2, 28: 3, 8: 16}","[3, 8, 24, 25, 28]",310816242253283,Li10Mn3Cr2Ni3O16
Li10Mn3Cr3(CoO8)2,mp-780494,0.9534000000000002,3.25843453,0.11906380095588176,"{3: 10, 25: 3, 24: 3, 27: 2, 8: 16}","[3, 8, 24, 25, 27]",310816243253272,Li10Mn3Cr3Co2O16
Li10Mn3Cr3(NiO8)2,mp-774408,0.6225,4.48132397,0.11453833279411807,"{3: 10, 25: 3, 24: 3, 28: 2, 8: 16}","[3, 8, 24, 25, 28]",310816243253282,Li10Mn3Cr3Ni2O16
Li10Cr3Co2Ni3O16,mp-777762,0.0,3.36317582,0.10660392698529542,"{3: 10, 24: 3, 27: 2, 28: 3, 8: 16}","[3, 8, 24, 27, 28]",310816243272283,Li10Cr3Co2Ni3O16
Li10Mn3Cr5O16,mp-760073,0.0,3.98894393,0.09624592070588545,"{3: 10, 25: 3, 24: 5, 8: 16}","[3, 8, 24, 25]",310816245253,Li10Mn3Cr5O16
Li10Mn3Co2Ni3O16,mp-778315,0.0,3.27801174,0.09370722676470589,"{3: 10, 25: 3, 27: 2, 28: 3, 8: 16}","[3, 8, 25, 27, 28]",310816253272283,Li10Mn3Co2Ni3O16
Li10Zn3(GeO4)4,mp-768947,3.1107,0.17988337,0.013148021212119332,"{3: 10, 30: 3, 32: 4, 8: 16}","[3, 8, 30, 32]",310816303324,Li10Zn3Ge4O16
Li10CoNi9O20,mp-759912,0.0,3.87620262,0.00669504066666704,"{3: 10, 27: 1, 28: 9, 8: 20}","[3, 8, 27, 28]",310820271289,Li10Co1Ni9O20
Li10Co3Ni7O20,mp-769555,0.0,3.84946997,0.01644697933333461,"{3: 10, 27: 3, 28: 7, 8: 20}","[3, 8, 27, 28]",310820273287,Li10Co3Ni7O20
Li10Co11O21,mp-530277,0.5341000000000005,4.98643546,0.026078770297618625,"{3: 10, 27: 11, 8: 21}","[3, 8, 27]",3108212711,Li10Co11O21
Li10Pb3,mp-504760,0.0,2.56693611,0.09865894050000223,"{3: 10, 82: 3}","[3, 82]",310823,Li10Pb3
Li10Cr3P6(O4F)6,mp-760793,0.0,0.01521174,0.08472274803693036,"{3: 10, 24: 3, 15: 6, 8: 24, 9: 6}","[3, 8, 9, 15, 24]",31082496156243,Li10Cr3P6O24F6
Li10Ti11Cr9O40,mp-769567,0.0,4.4113684,0.0006287222440413132,"{3: 10, 22: 11, 24: 9, 8: 40}","[3, 8, 22, 24]",3108402211249,Li10Ti11Cr9O40
Li10Ti11Nb6O42,mp-767498,1.8834999999999997,1.78746239,0.03606042163043455,"{3: 10, 22: 11, 41: 6, 8: 42}","[3, 8, 22, 41]",3108422211416,Li10Ti11Nb6O42
Li10Mn21O48,mp-530628,0.0,1.95015269,0.06206744592299707,"{3: 10, 25: 21, 8: 48}","[3, 8, 25]",3108482521,Li10Mn21O48
Li10Mn23O48,mp-531323,0.0,2.24825827,0.07396759351336968,"{3: 10, 25: 23, 8: 48}","[3, 8, 25]",3108482523,Li10Mn23O48
Li10Co4O9,mp-1185179,1.4774000000000003,2.19182519,0.031534399660325896,"{3: 10, 27: 4, 8: 9}","[3, 8, 27]",31089274,Li10Co4O9
Li10Ni4O9,mp-1185196,0.0,2.79959003,0.10150985130434798,"{3: 10, 28: 4, 8: 9}","[3, 8, 28]",31089284,Li10Ni4O9
Li10Zn4O9,mp-3297,2.329,0.31932731,0.0,"{3: 10, 30: 4, 8: 9}","[3, 8, 30]",31089304,Li10Zn4O9
Li10Mn3F16,mp-777562,3.3565,0.23102662,0.05068571793103516,"{3: 10, 25: 3, 9: 16}","[3, 9, 25]",310916253,Li10Mn3F16
NaLiMg14,mp-1026841,0.0,2.91804431,0.053258909903017404,"{11: 1, 3: 1, 12: 14}","[3, 11, 12]",311111214,Na1Li1Mg14
NaLiMg6,mp-1021282,0.0,2.57988935,0.07574275022270083,"{11: 1, 3: 1, 12: 6}","[3, 11, 12]",31111126,Na1Li1Mg6
NaLiS,mp-8452,2.2642,1.39127935,0.0,"{11: 1, 3: 1, 16: 1}","[3, 11, 16]",31111161,Na1Li1S1
NaLiMnS2,mp-1220987,0.0,4.21865804,0.12442773753333114,"{11: 1, 3: 1, 25: 1, 16: 2}","[3, 11, 16, 25]",31111162251,Na1Li1Mn1S2
NaLiZnS2,mp-1220972,1.8297999999999999,3.35318957,0.0,"{11: 1, 3: 1, 30: 1, 16: 2}","[3, 11, 16, 30]",31111162301,Na1Li1Zn1S2
NaLiCdS2,mp-1220967,1.6168999999999998,2.6993877,0.0,"{11: 1, 3: 1, 48: 1, 16: 2}","[3, 11, 16, 48]",31111162481,Na1Li1Cd1S2
NaLi(AsS2)2,mp-1220728,1.5983999999999998,3.73787802,0.008584379687500032,"{11: 1, 3: 1, 33: 2, 16: 4}","[3, 11, 16, 33]",31111164332,Na1Li1As2S4
NaLiICl,mp-1002069,4.1874,0.83091994,0.09545798625000002,"{11: 1, 3: 1, 53: 1, 17: 1}","[3, 11, 17, 53]",31111171531,Na1Li1I1Cl1
NaLiSe,mp-28603,2.4375,0.99159548,0.0,"{11: 1, 3: 1, 34: 1}","[3, 11, 34]",31111341,Na1Li1Se1
NaSr2Li,mp-1097519,0.1171000000000002,-2.03876747,1.001647854285854,"{11: 1, 38: 2, 3: 1}","[3, 11, 38]",31111382,Na1Sr2Li1
NaLiTe,mp-8754,2.2840000000000003,2.24830202,0.0,"{11: 1, 3: 1, 52: 1}","[3, 11, 52]",31111521,Na1Li1Te1
NaLiPt,mp-961703,0.5526,0.5090167,0.6286753444827582,"{11: 1, 3: 1, 78: 1}","[3, 11, 78]",31111781,Na1Li1Pt1
NaLiHg2,mp-1096338,0.12699999999999978,-2.15070935,0.7496563143749988,"{11: 1, 3: 1, 80: 2}","[3, 11, 80]",31111802,Na1Li1Hg2
NaLiTl2,mp-1096278,0.0472999999999999,-2.06490457,1.0816026162500023,"{11: 1, 3: 1, 81: 2}","[3, 11, 81]",31111812,Na1Li1Tl2
Na2LiAlP2,mp-9719,1.8853000000000004,3.04693469,0.0,"{11: 2, 3: 1, 13: 1, 15: 2}","[3, 11, 13, 15]",31112131152,Na2Li1Al1P2
Na2LiS2,mp-1210528,0.0,-2.8863364,1.2686595485000014,"{11: 2, 3: 1, 16: 2}","[3, 11, 16]",31112162,Na2Li1S2
Na2LiScCl6,mp-1111475,3.7427,-0.2325,0.10326976325000015,"{11: 2, 3: 1, 21: 1, 17: 6}","[3, 11, 17, 21]",31112176211,Na2Li1Sc1Cl6
Na2LiInCl6,mp-1111477,2.9328,-0.03291667,0.12007188033333094,"{11: 2, 3: 1, 49: 1, 17: 6}","[3, 11, 17, 49]",31112176491,Na2Li1In1Cl6
Na2LiSbCl6,mp-1111476,2.9225000000000003,0.78010417,0.1452925204999982,"{11: 2, 3: 1, 51: 1, 17: 6}","[3, 11, 17, 51]",31112176511,Na2Li1Sb1Cl6
Na2LiLaCl6,mp-1113840,3.9591,-0.48186528,0.17680023599999828,"{11: 2, 3: 1, 57: 1, 17: 6}","[3, 11, 17, 57]",31112176571,Na2Li1La1Cl6
Na2LiCeCl6,mp-1113920,0.4811000000000001,2.61816227,0.1560167754999977,"{11: 2, 3: 1, 58: 1, 17: 6}","[3, 11, 17, 58]",31112176581,Na2Li1Ce1Cl6
Na2LiPrCl6,mp-1113740,3.9814999999999996,-0.94325076,0.17017780250000136,"{11: 2, 3: 1, 59: 1, 17: 6}","[3, 11, 17, 59]",31112176591,Na2Li1Pr1Cl6
Na2LiNdCl6,mp-1113739,4.0094,-0.92081882,0.15828975450000016,"{11: 2, 3: 1, 60: 1, 17: 6}","[3, 11, 17, 60]",31112176601,Na2Li1Nd1Cl6
Na2LiSmCl6,mp-1113741,4.0550999999999995,-0.87038436,0.15665538275000124,"{11: 2, 3: 1, 62: 1, 17: 6}","[3, 11, 17, 62]",31112176621,Na2Li1Sm1Cl6
Na2LiEuCl6,mp-1113918,0.0,-0.63238016,0.1636264036666688,"{11: 2, 3: 1, 63: 1, 17: 6}","[3, 11, 17, 63]",31112176631,Na2Li1Eu1Cl6
Na2LiGdCl6,mp-1113919,2.9065000000000003,-0.83165307,0.12971205800000085,"{11: 2, 3: 1, 64: 1, 17: 6}","[3, 11, 17, 64]",31112176641,Na2Li1Gd1Cl6
Na2LiTbCl6,mp-1113318,3.96,-0.64053485,0.12254839849999932,"{11: 2, 3: 1, 65: 1, 17: 6}","[3, 11, 17, 65]",31112176651,Na2Li1Tb1Cl6
Na2LiDyCl6,mp-1113839,3.9745999999999997,-0.62916102,0.11898027650000387,"{11: 2, 3: 1, 66: 1, 17: 6}","[3, 11, 17, 66]",31112176661,Na2Li1Dy1Cl6
Na2LiErCl6,mp-1113921,3.9979,-0.63521442,0.1185496567499893,"{11: 2, 3: 1, 68: 1, 17: 6}","[3, 11, 17, 68]",31112176681,Na2Li1Er1Cl6
Na2LiTmCl6,mp-1113284,4.177,3.52076131,0.1906628968333326,"{11: 2, 3: 1, 69: 1, 17: 6}","[3, 11, 17, 69]",31112176691,Na2Li1Tm1Cl6
Na2LiLuCl6,mp-1113316,4.1938,3.58446129,0.11320825062500717,"{11: 2, 3: 1, 71: 1, 17: 6}","[3, 11, 17, 71]",31112176711,Na2Li1Lu1Cl6
Na2LiAuCl6,mp-1113945,0.0,0.72585869,0.23144264225000155,"{11: 2, 3: 1, 79: 1, 17: 6}","[3, 11, 17, 79]",31112176791,Na2Li1Au1Cl6
Na2LiTlCl6,mp-1111474,1.6282999999999999,-0.32625,0.1378386365000015,"{11: 2, 3: 1, 81: 1, 17: 6}","[3, 11, 17, 81]",31112176811,Na2Li1Tl1Cl6
Na2LiBiCl6,mp-1111659,3.5061,-0.073125,0.12244966199999929,"{11: 2, 3: 1, 83: 1, 17: 6}","[3, 11, 17, 83]",31112176831,Na2Li1Bi1Cl6
Na2LiGaAs2,mp-9722,0.6841999999999997,2.40321346,0.0,"{11: 2, 3: 1, 31: 1, 33: 2}","[3, 11, 31, 33]",31112311332,Na2Li1Ga1As2
Na2LiTlBr6,mp-1111738,0.5730999999999999,-0.39291667,0.12404254675000104,"{11: 2, 3: 1, 81: 1, 35: 6}","[3, 11, 35, 81]",31112356811,Na2Li1Tl1Br6
Na2LiBiBr6,mp-1111739,2.9192,-0.44645833,0.1639040585,"{11: 2, 3: 1, 83: 1, 35: 6}","[3, 11, 35, 83]",31112356831,Na2Li1Bi1Br6
Na2LiBiI6,mp-1111803,1.9141,0.95416667,0.19196037150000045,"{11: 2, 3: 1, 83: 1, 53: 6}","[3, 11, 53, 83]",31112536831,Na2Li1Bi1I6
Na2LiTa,mp-631339,0.0,1.43464437,1.2331614408908038,"{11: 2, 3: 1, 73: 1}","[3, 11, 73]",31112731,Na2Li1Ta1
Na2LiAu3,mp-12815,0.0,3.22743742,0.0,"{11: 2, 3: 1, 79: 3}","[3, 11, 79]",31112793,Na2Li1Au3
Li11TiP5,mp-676324,0.20059999999999967,2.59377274,0.029175744485294253,"{3: 11, 22: 1, 15: 5}","[3, 15, 22]",311155221,Li11Ti1P5
LiMg,mp-1185380,0.0,1.78815973,0.0,"{3: 1, 12: 1}","[3, 12]",31121,Li1Mg1
Sr2LiMgSi3,mp-1218749,0.0,3.91056653,0.0,"{38: 2, 3: 1, 12: 1, 14: 3}","[3, 12, 14, 38]",31121143382,Sr2Li1Mg1Si3
LiMgP,mp-36111,1.5391000000000004,2.80762785,0.0,"{3: 1, 12: 1, 15: 1}","[3, 12, 15]",31121151,Li1Mg1P1
LiCa10MgSb9,mp-569282,0.9226000000000001,4.28053815,0.0,"{3: 1, 20: 10, 12: 1, 51: 9}","[3, 12, 20, 51]",311212010519,Li1Ca10Mg1Sb9
LiCa2Mg,mp-975368,0.0,1.79400437,0.011525041562499228,"{3: 1, 20: 2, 12: 1}","[3, 12, 20]",31121202,Li1Ca2Mg1
LiMgZn2,mp-1095761,0.0,-2.09148904,1.1451192308928573,"{3: 1, 12: 1, 30: 2}","[3, 12, 30]",31121302,Li1Mg1Zn2
LiMgGa2,mp-1093564,0.0,-2.43832535,1.45330366625,"{3: 1, 12: 1, 31: 2}","[3, 12, 31]",31121312,Li1Mg1Ga2
LiMgAs,mp-12558,1.3722999999999996,2.37069355,0.0,"{3: 1, 12: 1, 33: 1}","[3, 12, 33]",31121331,Li1Mg1As1
Sr2LiMg,mp-1097272,0.0,-1.85920025,1.2724440358806817,"{38: 2, 3: 1, 12: 1}","[3, 12, 38]",31121382,Sr2Li1Mg1
LiMg14Al,mp-1028223,0.0,3.35248024,0.04001149437500007,"{3: 1, 12: 14, 13: 1}","[3, 12, 13]",311214131,Li1Mg14Al1
LiMg14Si,mp-1026843,0.0,3.69167409,0.07187521289062526,"{3: 1, 12: 14, 14: 1}","[3, 12, 14]",311214141,Li1Mg14Si1
KLiMg14,mp-1026401,0.0,2.78066827,0.13051902142187521,"{19: 1, 3: 1, 12: 14}","[3, 12, 19]",311214191,K1Li1Mg14
LiCaMg14,mp-1028177,0.0,2.92600403,0.06011858593749975,"{3: 1, 20: 1, 12: 14}","[3, 12, 20]",311214201,Li1Ca1Mg14
LiMg14Ti,mp-1026633,0.0,3.28754363,0.08394288354166668,"{3: 1, 12: 14, 22: 1}","[3, 12, 22]",311214221,Li1Mg14Ti1
LiMg14V,mp-1028313,0.0,3.22612027,0.11544138937499993,"{3: 1, 12: 14, 23: 1}","[3, 12, 23]",311214231,Li1Mg14V1
LiMg14Cr,mp-1026816,0.0,3.1606356,0.10717880624999987,"{3: 1, 12: 14, 24: 1}","[3, 12, 24]",311214241,Li1Mg14Cr1
LiMg14Mn,mp-1028092,0.0,3.19536561,0.08780831950431045,"{3: 1, 12: 14, 25: 1}","[3, 12, 25]",311214251,Li1Mg14Mn1
LiMg14Co,mp-1027758,0.0,3.28854771,0.09418894677083323,"{3: 1, 12: 14, 27: 1}","[3, 12, 27]",311214271,Li1Mg14Co1
LiMg14Ni,mp-1028360,0.0,3.22398622,0.07969972770833356,"{3: 1, 12: 14, 28: 1}","[3, 12, 28]",311214281,Li1Mg14Ni1
LiMg14Zn,mp-1027971,0.0,3.11356354,0.046851297500000166,"{3: 1, 12: 14, 30: 1}","[3, 12, 30]",311214301,Li1Mg14Zn1
LiMg14Ga,mp-1026787,0.0,3.15897746,0.0358047120624998,"{3: 1, 12: 14, 31: 1}","[3, 12, 31]",311214311,Li1Mg14Ga1
RbLiMg14,mp-1026860,0.0,2.86010784,0.16430528078125017,"{37: 1, 3: 1, 12: 14}","[3, 12, 37]",311214371,Rb1Li1Mg14
SrLiMg14,mp-1026831,0.0,2.89290579,0.09105305374999983,"{38: 1, 3: 1, 12: 14}","[3, 12, 38]",311214381,Sr1Li1Mg14
LiMg14Zr,mp-1027929,0.0,3.19198604,0.055241549375000254,"{3: 1, 12: 14, 40: 1}","[3, 12, 40]",311214401,Li1Mg14Zr1
LiMg14Nb,mp-1026820,0.0,3.30810952,0.10670037562500001,"{3: 1, 12: 14, 41: 1}","[3, 12, 41]",311214411,Li1Mg14Nb1
LiMg14Mo,mp-1026794,0.0,3.52970562,0.13945308062500006,"{3: 1, 12: 14, 42: 1}","[3, 12, 42]",311214421,Li1Mg14Mo1
LiMg14Cd,mp-1026803,0.0,3.02808306,0.03788271500000007,"{3: 1, 12: 14, 48: 1}","[3, 12, 48]",311214481,Li1Mg14Cd1
LiMg14Sn,mp-1028268,0.0,3.75307869,0.03792041859375006,"{3: 1, 12: 14, 50: 1}","[3, 12, 50]",311214501,Li1Mg14Sn1
LiMg14Sb,mp-1026789,0.0,3.81351852,0.07944816343749994,"{3: 1, 12: 14, 51: 1}","[3, 12, 51]",311214511,Li1Mg14Sb1
CsLiMg14,mp-1026828,0.0,3.06015835,0.18838490419181042,"{55: 1, 3: 1, 12: 14}","[3, 12, 55]",311214551,Cs1Li1Mg14
LiLaMg14,mp-1026837,0.0,3.34646214,0.07914272406250022,"{3: 1, 57: 1, 12: 14}","[3, 12, 57]",311214571,Li1La1Mg14
LiCeMg14,mp-1026862,0.0,3.40355304,0.07153250687500012,"{3: 1, 58: 1, 12: 14}","[3, 12, 58]",311214581,Li1Ce1Mg14
LiMgSnPd,mp-7555,0.0,6.48285224,0.0,"{3: 1, 12: 1, 50: 1, 46: 1}","[3, 12, 46, 50]",31121461501,Li1Mg1Sn1Pd1