formula,material_id,band_gap,efermi,energy_above_hull,comp_atoms,sorted_keys_comp_atoms,comp_number,new_formula
Li2Mn5O12,mp-758668,0.0,0.96986455,0.0912749004166713,"{3: 2, 25: 5, 8: 12}","[3, 8, 25]",32812255,Li2Mn5O12
Li2Mn7O12,mp-758656,0.2588999999999997,2.44779532,0.05734369976191367,"{3: 2, 25: 7, 8: 12}","[3, 8, 25]",32812257,Li2Mn7O12
Li2Co3(SeO3)4,mp-562404,2.6422,1.8704249,0.0,"{3: 2, 27: 3, 34: 4, 8: 12}","[3, 8, 27, 34]",32812273344,Li2Co3Se4O12
Li2Ni2(MoO4)3,mp-1211383,2.9642999999999997,0.93325817,0.0025406689473754795,"{3: 2, 28: 2, 42: 3, 8: 12}","[3, 8, 28, 42]",32812282423,Li2Ni2Mo3O12
Li2Nb4ZnO12,mp-756793,2.8733,1.02087279,0.023999023815870046,"{3: 2, 41: 4, 30: 1, 8: 12}","[3, 8, 30, 41]",32812301414,Li2Nb4Zn1O12
Li2Zn2(MoO4)3,mp-1210963,3.1374,0.35563406,0.010850675789479958,"{3: 2, 30: 2, 42: 3, 8: 12}","[3, 8, 30, 42]",32812302423,Li2Zn2Mo3O12
Li2La3Nd(SbO6)2,mp-1222859,3.9249,4.80689203,0.005489017500003968,"{3: 2, 57: 3, 60: 1, 51: 2, 8: 12}","[3, 8, 51, 57, 60]",32812512573601,Li2La3Nd1Sb2O12
Li2WO12,mp-1202844,0.0041999999999999815,-1.5714043,0.3499386480000002,"{3: 2, 74: 1, 8: 12}","[3, 8, 74]",32812741,Li2W1O12
Na2Li2V3P2O13,mp-849320,1.7887000000000002,1.95942296,0.07445268094699742,"{11: 2, 3: 2, 23: 3, 15: 2, 8: 13}","[3, 8, 11, 15, 23]",32813112152233,Na2Li2V3P2O13
Li2Al2Si4O13,mp-1222886,0.3016,-0.19300414,0.12136176091269757,"{3: 2, 13: 2, 14: 4, 8: 13}","[3, 8, 13, 14]",32813132144,Li2Al2Si4O13
Li2Ca4Si4O13,mp-556137,4.456,1.94415807,0.005455047210145558,"{3: 2, 20: 4, 14: 4, 8: 13}","[3, 8, 14, 20]",32813144204,Li2Ca4Si4O13
Li2V4Si4O13,mp-767720,1.9006999999999996,4.66989049,0.01975329804348469,"{3: 2, 23: 4, 14: 4, 8: 13}","[3, 8, 14, 23]",32813144234,Li2V4Si4O13
Li2Cr4Si4O13,mp-757512,1.1021999999999998,4.23247052,0.05412569398550815,"{3: 2, 24: 4, 14: 4, 8: 13}","[3, 8, 14, 24]",32813144244,Li2Cr4Si4O13
Li2Mn4Si4O13,mp-860880,2.3459000000000003,3.42906115,0.01581307021738887,"{3: 2, 25: 4, 14: 4, 8: 13}","[3, 8, 14, 25]",32813144254,Li2Mn4Si4O13
Li2Si4Ni4O13,mp-757413,3.0562999999999994,6.76072258,0.04119489760869666,"{3: 2, 14: 4, 28: 4, 8: 13}","[3, 8, 14, 28]",32813144284,Li2Si4Ni4O13
Li2Ca2Si5O13,mp-560247,4.7981,1.54090534,0.009790573636368372,"{3: 2, 20: 2, 14: 5, 8: 13}","[3, 8, 14, 20]",32813145202,Li2Ca2Si5O13
Li2V2Si5O13,mp-758036,2.3586,4.22173786,0.03961953912877192,"{3: 2, 23: 2, 14: 5, 8: 13}","[3, 8, 14, 23]",32813145232,Li2V2Si5O13
Li2Cr2Si5O13,mp-758237,2.5992999999999995,3.33727758,0.021249862121209162,"{3: 2, 24: 2, 14: 5, 8: 13}","[3, 8, 14, 24]",32813145242,Li2Cr2Si5O13
Li2Mn2Si5O13,mp-757482,3.0396,2.60309568,0.018802832878783704,"{3: 2, 25: 2, 14: 5, 8: 13}","[3, 8, 14, 25]",32813145252,Li2Mn2Si5O13
Li2Si5Ni2O13,mp-859789,3.2519,2.29178468,0.055695201287880636,"{3: 2, 14: 5, 28: 2, 8: 13}","[3, 8, 14, 28]",32813145282,Li2Si5Ni2O13
Li2VP4O13,mp-704203,1.8286,0.15927824,0.045836709166662715,"{3: 2, 23: 1, 15: 4, 8: 13}","[3, 8, 15, 23]",32813154231,Li2V1P4O13
Li2CrP4O13,mp-31739,0.12710000000000002,0.20068113,0.054255802874997094,"{3: 2, 24: 1, 15: 4, 8: 13}","[3, 8, 15, 24]",32813154241,Li2Cr1P4O13
Li2NbP4O13,mp-673156,0.40549999999999997,2.85159768,0.06263328891844999,"{3: 2, 41: 1, 15: 4, 8: 13}","[3, 8, 15, 41]",32813154411,Li2Nb1P4O13
Li2MoP4O13,mp-1101555,1.8745999999999998,0.09196713,0.012547427541672818,"{3: 2, 42: 1, 15: 4, 8: 13}","[3, 8, 15, 42]",32813154421,Li2Mo1P4O13
Li2P4WO13,mp-757625,2.9840999999999998,0.98658608,0.04966485166666601,"{3: 2, 15: 4, 74: 1, 8: 13}","[3, 8, 15, 74]",32813154741,Li2P4W1O13
Li2La3Ti2Nb2O13,mp-776497,0.0,7.48206089,0.10701399184659266,"{3: 2, 57: 3, 22: 2, 41: 2, 8: 13}","[3, 8, 22, 41, 57]",32813222412573,Li2La3Ti2Nb2O13
Li2Ti6O13,mp-1190625,2.8381,0.659869,0.01942668654761448,"{3: 2, 22: 6, 8: 13}","[3, 8, 22]",32813226,Li2Ti6O13
Li2V6O13,mp-555660,0.0,3.00071677,0.09111863494047512,"{3: 2, 23: 6, 8: 13}","[3, 8, 23]",32813236,Li2V6O13
Li2Cr4O13,mp-770390,1.3426,-1.87086849,0.023849189587717312,"{3: 2, 24: 4, 8: 13}","[3, 8, 24]",32813244,Li2Cr4O13
Sr2Li2Nb4O13,mp-753864,1.4216,1.32319067,0.02741054404762444,"{38: 2, 3: 2, 41: 4, 8: 13}","[3, 8, 38, 41]",32813382414,Sr2Li2Nb4O13
Sr3Li2Nb4O13,mp-756781,0.0,4.30773753,0.016636630795460405,"{38: 3, 3: 2, 41: 4, 8: 13}","[3, 8, 38, 41]",32813383414,Sr3Li2Nb4O13
Li2Nb2W2O13,mp-1222998,0.38110000000000005,-0.46159202,0.12493670552631464,"{3: 2, 41: 2, 74: 2, 8: 13}","[3, 8, 41, 74]",32813412742,Li2Nb2W2O13
Li2Mo4O13,mp-557229,2.3953,0.18927443,0.011192752785087023,"{3: 2, 42: 4, 8: 13}","[3, 8, 42]",32813424,Li2Mo4O13
Li2BrO,mp-1222678,0.028900000000000037,-0.31222306,0.19612011375000016,"{3: 2, 35: 1, 8: 1}","[3, 8, 35]",3281351,Li2Br1O1
Li2Ta2W2O13,mp-1223123,0.35819999999999996,-0.27243908,0.12144291657894435,"{3: 2, 73: 2, 74: 2, 8: 13}","[3, 8, 73, 74]",32813732742,Li2Ta2W2O13
NaLi2Mo2P3O14,mp-559443,0.0,3.08592224,0.0,"{11: 1, 3: 2, 42: 2, 15: 3, 8: 14}","[3, 8, 11, 15, 42]",32814111153422,Na1Li2Mo2P3O14
Li2Cr5(Si2O7)2,mp-867580,2.6538,3.17963742,0.0,"{3: 2, 24: 5, 14: 4, 8: 14}","[3, 8, 14, 24]",32814144245,Li2Cr5Si4O14
Li2Mn5(Si2O7)2,mp-756814,0.0,3.59122613,0.02936366596667206,"{3: 2, 25: 5, 14: 4, 8: 14}","[3, 8, 14, 25]",32814144255,Li2Mn5Si4O14
Li2Si4Ni5O14,mp-1651525,2.5810999999999997,2.90869259,0.06787366810000517,"{3: 2, 14: 4, 28: 5, 8: 14}","[3, 8, 14, 28]",32814144285,Li2Si4Ni5O14
Li2VCr(P2O7)2,mp-759753,2.1773999999999996,1.7697024,0.0,"{3: 2, 23: 1, 24: 1, 15: 4, 8: 14}","[3, 8, 15, 23, 24]",32814154231241,Li2V1Cr1P4O14
Li2MnV(P2O7)2,mp-850939,0.010100000000000442,2.11839693,0.0,"{3: 2, 25: 1, 23: 1, 15: 4, 8: 14}","[3, 8, 15, 23, 25]",32814154231251,Li2Mn1V1P4O14
Li2V3(P2O7)2,mp-26241,2.6931000000000003,4.19638234,0.021240333152173108,"{3: 2, 23: 3, 15: 4, 8: 14}","[3, 8, 15, 23]",32814154233,Li2V3P4O14
Li2Cr3(P2O7)2,mp-540179,2.1845,3.57296925,0.030480474347811537,"{3: 2, 24: 3, 15: 4, 8: 14}","[3, 8, 15, 24]",32814154243,Li2Cr3P4O14
Li2Mn3(P2O7)2,mp-26083,3.7499,2.16003165,0.008266204782615638,"{3: 2, 25: 3, 15: 4, 8: 14}","[3, 8, 15, 25]",32814154253,Li2Mn3P4O14
Li2Co3(P2O7)2,mp-584122,2.8175999999999997,2.17177903,0.0041466284239088935,"{3: 2, 27: 3, 15: 4, 8: 14}","[3, 8, 15, 27]",32814154273,Li2Co3P4O14
Li2Ni3(P2O7)2,mp-25991,3.6043999999999996,1.99653307,0.0,"{3: 2, 28: 3, 15: 4, 8: 14}","[3, 8, 15, 28]",32814154283,Li2Ni3P4O14
Li2Sn3(P2O7)2,mp-26871,2.7556,2.86973209,0.04517443402173882,"{3: 2, 50: 3, 15: 4, 8: 14}","[3, 8, 15, 50]",32814154503,Li2Sn3P4O14
SrLi2Ti6O14,mp-16691,2.8389000000000006,1.69320226,0.0,"{38: 1, 3: 2, 22: 6, 8: 14}","[3, 8, 22, 38]",32814226381,Sr1Li2Ti6O14
Li2Ti6PbO14,mp-558619,2.6323999999999996,2.32373704,0.0,"{3: 2, 22: 6, 82: 1, 8: 14}","[3, 8, 22, 82]",32814226821,Li2Ti6Pb1O14
Li2MnV4O14,mp-1191925,0.0,0.55279958,0.24625685722222634,"{3: 2, 25: 1, 23: 4, 8: 14}","[3, 8, 23, 25]",32814234251,Li2Mn1V4O14
Li2V(Si2O5)3,mp-775292,2.3511,1.66307379,0.03126196232639167,"{3: 2, 23: 1, 14: 6, 8: 15}","[3, 8, 14, 23]",32815146231,Li2V1Si6O15
Li2V2(Si2O5)3,mp-773075,0.8683999999999994,4.3993543,0.09187388589999124,"{3: 2, 23: 2, 14: 6, 8: 15}","[3, 8, 14, 23]",32815146232,Li2V2Si6O15
Li2Cr(Si2O5)3,mp-775349,1.0966,0.89635638,0.03966532781249654,"{3: 2, 24: 1, 14: 6, 8: 15}","[3, 8, 14, 24]",32815146241,Li2Cr1Si6O15
Li2Cr2(Si2O5)3,mp-773023,2.8684000000000003,4.07767461,0.08841717503333335,"{3: 2, 24: 2, 14: 6, 8: 15}","[3, 8, 14, 24]",32815146242,Li2Cr2Si6O15
Li2Mn2(Si2O5)3,mp-757647,3.2081999999999997,2.3344414,0.05954743210000579,"{3: 2, 25: 2, 14: 6, 8: 15}","[3, 8, 14, 25]",32815146252,Li2Mn2Si6O15
Li2Si6Ni2O15,mp-850290,3.8219000000000003,1.48655359,0.08318914710000058,"{3: 2, 14: 6, 28: 2, 8: 15}","[3, 8, 14, 28]",32815146282,Li2Si6Ni2O15
Cs4Li2(Si2O5)3,mp-562394,4.1657,0.86740964,0.0,"{55: 4, 3: 2, 14: 6, 8: 15}","[3, 8, 14, 55]",32815146554,Cs4Li2Si6O15
Li2U3P2O15,mp-559539,2.2683,1.01962904,0.0,"{3: 2, 92: 3, 15: 2, 8: 15}","[3, 8, 15, 92]",32815152923,Li2U3P2O15
Li2V4P4O15,mp-765082,2.114,3.19433309,0.07222595682051214,"{3: 2, 23: 4, 15: 4, 8: 15}","[3, 8, 15, 23]",32815154234,Li2V4P4O15
Li2Cr4P4O15,mp-759225,2.0709000000000004,2.52543167,0.09310407716668934,"{3: 2, 24: 4, 15: 4, 8: 15}","[3, 8, 15, 24]",32815154244,Li2Cr4P4O15
Li2Mn4P4O15,mp-759540,3.0924000000000005,1.32817121,0.07109450840000076,"{3: 2, 25: 4, 15: 4, 8: 15}","[3, 8, 15, 25]",32815154254,Li2Mn4P4O15
Li2Ni4P4O15,mp-705401,3.3233000000000006,1.94891367,0.047155568199986675,"{3: 2, 28: 4, 15: 4, 8: 15}","[3, 8, 15, 28]",32815154284,Li2Ni4P4O15
Li2Sn4P4O15,mp-765351,2.8943999999999996,2.15993631,0.0999346388000033,"{3: 2, 50: 4, 15: 4, 8: 15}","[3, 8, 15, 50]",32815154504,Li2Sn4P4O15
Li2Ti(PO3)5,mp-684066,0.0,3.0967811,0.05374771286542224,"{3: 2, 22: 1, 15: 5, 8: 15}","[3, 8, 15, 22]",32815155221,Li2Ti1P5O15
Li2V(PO3)5,mp-540330,1.9238000000000002,1.16399958,0.03220044539848743,"{3: 2, 23: 1, 15: 5, 8: 15}","[3, 8, 15, 23]",32815155231,Li2V1P5O15
Li2Cr(PO3)5,mp-1101550,3.3963,0.32249655,0.033132966014495224,"{3: 2, 24: 1, 15: 5, 8: 15}","[3, 8, 15, 24]",32815155241,Li2Cr1P5O15
Li2Mn(PO3)5,mp-705355,1.5914000000000001,0.62509902,0.03080228289854947,"{3: 2, 25: 1, 15: 5, 8: 15}","[3, 8, 15, 25]",32815155251,Li2Mn1P5O15
Li2Co(PO3)5,mp-705362,0.8796999999999999,0.59587322,0.03425842985505767,"{3: 2, 27: 1, 15: 5, 8: 15}","[3, 8, 15, 27]",32815155271,Li2Co1P5O15
Li2Ni(PO3)5,mp-540011,0.0,-0.04299778,0.04784096815216987,"{3: 2, 28: 1, 15: 5, 8: 15}","[3, 8, 15, 28]",32815155281,Li2Ni1P5O15
Li2Nb(PO3)5,mp-863410,0.0647000000000002,4.20650564,0.08086136428001733,"{3: 2, 41: 1, 15: 5, 8: 15}","[3, 8, 15, 41]",32815155411,Li2Nb1P5O15
Li2Mo(PO3)5,mp-540310,4.4309,1.09579758,0.03334210072463151,"{3: 2, 42: 1, 15: 5, 8: 15}","[3, 8, 15, 42]",32815155421,Li2Mo1P5O15
Li2Sn(PO3)5,mp-757947,0.11250000000000027,2.74902871,0.0646844850905639,"{3: 2, 50: 1, 15: 5, 8: 15}","[3, 8, 15, 50]",32815155501,Li2Sn1P5O15
Li2Sb(PO3)5,mp-684477,3.7536999999999994,0.96949817,0.036969961050665745,"{3: 2, 51: 1, 15: 5, 8: 15}","[3, 8, 15, 51]",32815155511,Li2Sb1P5O15
Li2P5WO15,mp-758370,1.5090000000000003,3.5594197,0.03017553833333242,"{3: 2, 15: 5, 74: 1, 8: 15}","[3, 8, 15, 74]",32815155741,Li2P5W1O15
Li2Bi(PO3)5,mp-759735,4.2985999999999995,0.93816085,0.07689685844202909,"{3: 2, 83: 1, 15: 5, 8: 15}","[3, 8, 15, 83]",32815155831,Li2Bi1P5O15
K3Li2Nb5O15,mp-766938,2.2722,0.76259633,0.010796767999998735,"{19: 3, 3: 2, 41: 5, 8: 15}","[3, 8, 19, 41]",32815193415,K3Li2Nb5O15
Li2Ti7O15,mp-756565,1.2216,2.63250387,0.07876897333333233,"{3: 2, 22: 7, 8: 15}","[3, 8, 22]",32815227,Li2Ti7O15
Li2U3V2O15,mp-554685,1.9974,0.49490747,0.0,"{3: 2, 92: 3, 23: 2, 8: 15}","[3, 8, 23, 92]",32815232923,Li2U3V2O15
Li2V6O15,mp-27751,0.0,1.75536775,0.04050621152174294,"{3: 2, 23: 6, 8: 15}","[3, 8, 23]",32815236,Li2V6O15
Li2IO,mp-1210851,0.39149999999999996,0.76620374,0.2867035906250006,"{3: 2, 53: 1, 8: 1}","[3, 8, 53]",3281531,Li2I1O1
Li2Ge7O15,mp-5832,2.9882,0.05078962,0.05012365624999937,"{3: 2, 32: 7, 8: 15}","[3, 8, 32]",32815327,Li2Ge7O15
Li2Mg3Ti6O16,mp-758770,3.1479,1.78933535,0.014628327685153764,"{3: 2, 12: 3, 22: 6, 8: 16}","[3, 8, 12, 22]",32816123226,Li2Mg3Ti6O16
Rb3Li2Al(MoO4)4,mp-1209431,4.2892,3.21014299,0.015871769423077886,"{37: 3, 3: 2, 13: 1, 42: 4, 8: 16}","[3, 8, 13, 37, 42]",32816131373424,Rb3Li2Al1Mo4O16
Cs3Li2Al(MoO4)4,mp-1213966,4.2898,3.43665888,0.006696490961538792,"{55: 3, 3: 2, 13: 1, 42: 4, 8: 16}","[3, 8, 13, 42, 55]",32816131424553,Cs3Li2Al1Mo4O16
Li2Mn5Si5O16,mp-765986,2.1642,2.10627606,0.04878599610118961,"{3: 2, 25: 5, 14: 5, 8: 16}","[3, 8, 14, 25]",32816145255,Li2Mn5Si5O16
Li2Si5Ni5O16,mp-756771,2.4104,2.13824733,0.09578267029761989,"{3: 2, 14: 5, 28: 5, 8: 16}","[3, 8, 14, 28]",32816145285,Li2Si5Ni5O16
Li2Mn3(Si3O8)2,mp-766967,2.8647,2.69023581,0.04753698941358131,"{3: 2, 25: 3, 14: 6, 8: 16}","[3, 8, 14, 25]",32816146253,Li2Mn3Si6O16
Li2Si6Ni3O16,mp-757273,3.4109999999999996,2.68668552,0.08529935950617773,"{3: 2, 14: 6, 28: 3, 8: 16}","[3, 8, 14, 28]",32816146283,Li2Si6Ni3O16
Li2VSi7O16,mp-757841,1.2348,4.29285545,0.08125347716343789,"{3: 2, 23: 1, 14: 7, 8: 16}","[3, 8, 14, 23]",32816147231,Li2V1Si7O16
Li2CrSi7O16,mp-752731,2.2089,5.11467584,0.07221495833332803,"{3: 2, 24: 1, 14: 7, 8: 16}","[3, 8, 14, 24]",32816147241,Li2Cr1Si7O16
Li2V5(PO4)4,mp-758158,0.0,3.77535194,0.06348808909307202,"{3: 2, 23: 5, 15: 4, 8: 16}","[3, 8, 15, 23]",32816154235,Li2V5P4O16
Li2Cr5(PO4)4,mp-1101544,2.5833999999999997,2.82329118,0.018507725717590517,"{3: 2, 24: 5, 15: 4, 8: 16}","[3, 8, 15, 24]",32816154245,Li2Cr5P4O16
Li2Mn3(PO4)4,mp-758818,0.0,1.70932016,0.04656983796667635,"{3: 2, 25: 3, 15: 4, 8: 16}","[3, 8, 15, 25]",32816154253,Li2Mn3P4O16
Li2Mn5(PO4)4,mp-850918,3.0979999999999994,2.21864166,0.05234081462963047,"{3: 2, 25: 5, 15: 4, 8: 16}","[3, 8, 15, 25]",32816154255,Li2Mn5P4O16
Li2Ni5(PO4)4,mp-26921,0.0,4.23911731,0.05493387796295934,"{3: 2, 28: 5, 15: 4, 8: 16}","[3, 8, 15, 28]",32816154285,Li2Ni5P4O16
Li2Sn5(PO4)4,mp-757282,2.1230999999999995,2.89245455,0.06681151595680124,"{3: 2, 50: 5, 15: 4, 8: 16}","[3, 8, 15, 50]",32816154505,Li2Sn5P4O16
Li2Ti6Zn3O16,mp-759849,2.7517,1.57795847,0.0,"{3: 2, 22: 6, 30: 3, 8: 16}","[3, 8, 22, 30]",32816226303,Li2Ti6Zn3O16
Li2Zn3(Ge3O8)2,mp-772981,2.7137000000000002,1.7247597,0.029315650555556516,"{3: 2, 30: 3, 32: 6, 8: 16}","[3, 8, 30, 32]",32816303326,Li2Zn3Ge6O16
Rb3Li2Ga(MoO4)4,mp-1209544,4.0648,2.82772022,0.01622151523077786,"{37: 3, 3: 2, 31: 1, 42: 4, 8: 16}","[3, 8, 31, 37, 42]",32816311373424,Rb3Li2Ga1Mo4O16
Cs3Li2Ga(MoO4)4,mp-573196,4.0242,-0.85346635,0.005336923384625436,"{55: 3, 3: 2, 31: 1, 42: 4, 8: 16}","[3, 8, 31, 42, 55]",32816311424553,Cs3Li2Ga1Mo4O16
Li2CePr(MoO4)4,mp-1222777,0.12099999999999955,4.70471981,0.059858501413684095,"{3: 2, 58: 1, 59: 1, 42: 4, 8: 16}","[3, 8, 42, 58, 59]",32816424581591,Li2Ce1Pr1Mo4O16
Li2CeSm(MoO4)4,mp-1238771,0.13949999999999996,4.73062431,0.05291926084574072,"{3: 2, 58: 1, 62: 1, 42: 4, 8: 16}","[3, 8, 42, 58, 62]",32816424581621,Li2Ce1Sm1Mo4O16
NaLi2La3Ti6O18,mp-694955,1.9293,3.89168079,0.04875664812502656,"{11: 1, 3: 2, 57: 3, 22: 6, 8: 18}","[3, 8, 11, 22, 57]",32818111226573,Na1Li2La3Ti6O18
Li2V3P5O18,mp-759162,1.0574,2.50238254,0.0781158925000005,"{3: 2, 23: 3, 15: 5, 8: 18}","[3, 8, 15, 23]",32818155233,Li2V3P5O18
Li2Cr3P5O18,mp-775439,0.0,1.09338446,0.09760029767856349,"{3: 2, 24: 3, 15: 5, 8: 18}","[3, 8, 15, 24]",32818155243,Li2Cr3P5O18
Li2Mn3P5O18,mp-1177915,0.7114000000000001,1.35399073,0.05283189714286607,"{3: 2, 25: 3, 15: 5, 8: 18}","[3, 8, 15, 25]",32818155253,Li2Mn3P5O18
Li2Sn(PO3)6,mp-757479,1.8913,0.80624513,0.08558638845678423,"{3: 2, 50: 1, 15: 6, 8: 18}","[3, 8, 15, 50]",32818156501,Li2Sn1P6O18
Li2Ti(IO3)6,mp-1222778,2.7776000000000005,2.18405391,0.0,"{3: 2, 22: 1, 53: 6, 8: 18}","[3, 8, 22, 53]",32818221536,Li2Ti1I6O18
Li2Nb6NiO18,mp-759780,0.8795,1.99070119,0.07327926027780762,"{3: 2, 41: 6, 28: 1, 8: 18}","[3, 8, 28, 41]",32818281416,Li2Nb6Ni1O18
Li2LaNb6O18,mp-1210870,0.0,0.94323518,0.08677180680555452,"{3: 2, 57: 1, 41: 6, 8: 18}","[3, 8, 41, 57]",32818416571,Li2La1Nb6O18
Li2V4OF12,mp-757416,1.3552,-0.44007743,0.1720125260526233,"{3: 2, 23: 4, 8: 1, 9: 12}","[3, 8, 9, 23]",3281912234,Li2V4O1F12
Li2MnOF2,mp-753929,1.5452,1.79274111,0.1012481808333332,"{3: 2, 25: 1, 8: 1, 9: 2}","[3, 8, 9, 25]",328192251,Li2Mn1O1F2
Li2CoOF2,mp-760048,0.1825000000000001,2.18773957,0.041935987916666306,"{3: 2, 27: 1, 8: 1, 9: 2}","[3, 8, 9, 27]",328192271,Li2Co1O1F2
Li2NiOF2,mp-753392,1.6075999999999997,3.06459005,0.03807296500000046,"{3: 2, 28: 1, 8: 1, 9: 2}","[3, 8, 9, 28]",328192281,Li2Ni1O1F2
Li2Th5OF22,mp-726654,6.3357,-1.46774484,0.14989546475000015,"{3: 2, 90: 5, 8: 1, 9: 22}","[3, 8, 9, 90]",3281922905,Li2Th5O1F22
Li2VOF3,mp-765507,2.3625000000000003,0.96866224,0.04912050624999775,"{3: 2, 23: 1, 8: 1, 9: 3}","[3, 8, 9, 23]",328193231,Li2V1O1F3
Li2MnOF3,mp-753282,1.2664,0.16242933,0.03675645422619045,"{3: 2, 25: 1, 8: 1, 9: 3}","[3, 8, 9, 25]",328193251,Li2Mn1O1F3
Li2CoOF3,mp-754749,0.6847,0.31413333,0.04557554571428746,"{3: 2, 27: 1, 8: 1, 9: 3}","[3, 8, 9, 27]",328193271,Li2Co1O1F3
Li2U5MoO19,mp-560160,1.3518000000000001,2.0366132,0.03160317009259295,"{3: 2, 92: 5, 42: 1, 8: 19}","[3, 8, 42, 92]",32819421925,Li2U5Mo1O19
Li2VOF4,mp-780857,1.3292000000000002,-1.15260883,0.0037008412500041388,"{3: 2, 23: 1, 8: 1, 9: 4}","[3, 8, 9, 23]",328194231,Li2V1O1F4
Li2Mn2OF4,mp-759996,1.6239,1.12408231,0.11024643000000012,"{3: 2, 25: 2, 8: 1, 9: 4}","[3, 8, 9, 25]",328194252,Li2Mn2O1F4
Li2VOF5,mp-757198,2.8337000000000003,-1.47032527,0.0035978437963004595,"{3: 2, 23: 1, 8: 1, 9: 5}","[3, 8, 9, 23]",328195231,Li2V1O1F5
Li2V2OF5,mp-759836,1.0991000000000004,2.31846044,0.07510869987500257,"{3: 2, 23: 2, 8: 1, 9: 5}","[3, 8, 9, 23]",328195232,Li2V2O1F5
Li2NbOF5,mp-755505,3.7382999999999997,-1.38892481,0.008421649027776645,"{3: 2, 41: 1, 8: 1, 9: 5}","[3, 8, 9, 41]",328195411,Li2Nb1O1F5
Li2V2OF6,mp-753637,1.6207,0.27285911,0.05498072181817992,"{3: 2, 23: 2, 8: 1, 9: 6}","[3, 8, 9, 23]",328196232,Li2V2O1F6
Li2Mn2OF6,mp-753723,1.3014999999999999,-0.55384607,0.021544960189394224,"{3: 2, 25: 2, 8: 1, 9: 6}","[3, 8, 9, 25]",328196252,Li2Mn2O1F6
Li2Mn3OF6,mp-759714,1.7183,1.53790287,0.08540787562499919,"{3: 2, 25: 3, 8: 1, 9: 6}","[3, 8, 9, 25]",328196253,Li2Mn3O1F6
Li2Co2OF6,mp-756031,0.6906999999999999,-1.38581742,0.17821553159090886,"{3: 2, 27: 2, 8: 1, 9: 6}","[3, 8, 9, 27]",328196272,Li2Co2O1F6
Li2Co3OF6,mp-761080,1.6904,1.03952442,0.11031997041666841,"{3: 2, 27: 3, 8: 1, 9: 6}","[3, 8, 9, 27]",328196273,Li2Co3O1F6
Li2Ni3OF6,mp-753448,3.2175,4.5567792,0.17758766208332322,"{3: 2, 28: 3, 8: 1, 9: 6}","[3, 8, 9, 28]",328196283,Li2Ni3O1F6
Li2Mn4OF8,mp-761138,1.1865,2.41010639,0.0797339000000008,"{3: 2, 25: 4, 8: 1, 9: 8}","[3, 8, 9, 25]",328198254,Li2Mn4O1F8
Li2Co4OF8,mp-765686,2.2384,1.06206299,0.07702393649999983,"{3: 2, 27: 4, 8: 1, 9: 8}","[3, 8, 9, 27]",328198274,Li2Co4O1F8
Li2Ni4OF8,mp-765224,2.9514999999999993,4.82518131,0.07871243566665687,"{3: 2, 28: 4, 8: 1, 9: 8}","[3, 8, 9, 28]",328198284,Li2Ni4O1F8
Li2O2,mp-841,1.9742999999999997,1.48740273,0.0,"{3: 2, 8: 2}","[3, 8]",3282,Li2O2
Li2MgTi9O20,mp-1222757,2.7058,1.62669204,0.0039448421093748465,"{3: 2, 12: 1, 22: 9, 8: 20}","[3, 8, 12, 22]",32820121229,Li2Mg1Ti9O20
SrLi2Al4(PO5)4,mp-1203266,0.0,2.08111607,0.16694168414630894,"{38: 1, 3: 2, 13: 4, 15: 4, 8: 20}","[3, 8, 13, 15, 38]",32820134154381,Sr1Li2Al4P4O20
Li2Ti4Co(PO5)4,mp-1222854,2.3813999999999997,1.75552583,0.03776539064516271,"{3: 2, 22: 4, 27: 1, 15: 4, 8: 20}","[3, 8, 15, 22, 27]",32820154224271,Li2Ti4Co1P4O20
Li2Ti4Ni(PO5)4,mp-725430,2.6287999999999996,4.68646632,0.0049250972580612284,"{3: 2, 22: 4, 28: 1, 15: 4, 8: 20}","[3, 8, 15, 22, 28]",32820154224281,Li2Ti4Ni1P4O20
Li2U3(PO5)4,mp-558910,2.1386000000000003,0.9127705,0.0,"{3: 2, 92: 3, 15: 4, 8: 20}","[3, 8, 15, 92]",32820154923,Li2U3P4O20
Li2Ti4Co(AsO5)4,mp-732284,2.7286,1.47105488,0.010862801612897321,"{3: 2, 22: 4, 27: 1, 33: 4, 8: 20}","[3, 8, 22, 27, 33]",32820224271334,Li2Ti4Co1As4O20
Li2U3(SeO10)2,mp-1202011,0.1886,0.32014149,0.3791409301543247,"{3: 2, 92: 3, 34: 2, 8: 20}","[3, 8, 34, 92]",32820342923,Li2U3Se2O20
Li2Ge(S2O7)3,mp-1080241,3.7676000000000003,-0.44585494,0.0,"{3: 2, 32: 1, 16: 6, 8: 21}","[3, 8, 16, 32]",32821166321,Li2Ge1S6O21
Li2Zn(Cl2O)2,mp-1197945,0.6909000000000001,-0.59511946,0.5871785923611124,"{3: 2, 30: 1, 17: 4, 8: 2}","[3, 8, 17, 30]",3282174301,Li2Zn1Cl4O2
Li2AcPb,mp-865915,0.0,5.58009747,0.0,"{3: 2, 89: 1, 82: 1}","[3, 82, 89]",32821891,Li2Ac1Pb1
Li2Ti13O22,mp-772150,0.0,5.78427173,0.06023500797300052,"{3: 2, 22: 13, 8: 22}","[3, 8, 22]",328222213,Li2Ti13O22
Li2VO2,mp-774411,1.6694000000000004,4.02839368,0.10280860199999875,"{3: 2, 23: 1, 8: 2}","[3, 8, 23]",3282231,Li2V1O2
Li2CrO2,mp-1178001,1.014,2.01121412,0.020048116500000823,"{3: 2, 24: 1, 8: 2}","[3, 8, 24]",3282241,Li2Cr1O2
Li2MnO2,mp-19279,2.4263000000000003,2.23267303,0.027881845000003125,"{3: 2, 25: 1, 8: 2}","[3, 8, 25]",3282251,Li2Mn1O2