formula,material_id,band_gap,efermi,energy_above_hull,comp_atoms,sorted_keys_comp_atoms,comp_number,new_formula
Li3Al(CoO3)2,mp-1222590,0.8599000000000001,4.0094511,0.05031521145833473,"{3: 3, 13: 1, 27: 2, 8: 6}","[3, 8, 13, 27]",3386131272,Li3Al1Co2O6
Li3Al2VO6,mp-755151,1.7569,4.85283842,0.03682818624999751,"{3: 3, 13: 2, 23: 1, 8: 6}","[3, 8, 13, 23]",3386132231,Li3Al2V1O6
Li3Al2CrO6,mp-861240,3.5086000000000004,3.82259283,0.025014271249997222,"{3: 3, 13: 2, 24: 1, 8: 6}","[3, 8, 13, 24]",3386132241,Li3Al2Cr1O6
Li3MnAl2O6,mp-772241,1.4500000000000002,2.32643034,0.053825894791662776,"{3: 3, 25: 1, 13: 2, 8: 6}","[3, 8, 13, 25]",3386132251,Li3Mn1Al2O6
Li3Al2CoO6,mp-1222601,0.8303000000000003,4.88541905,0.03275804874999988,"{3: 3, 13: 2, 27: 1, 8: 6}","[3, 8, 13, 27]",3386132271,Li3Al2Co1O6
K3Li3TeO6,mp-560739,2.6948,1.49217019,0.0,"{19: 3, 3: 3, 52: 1, 8: 6}","[3, 8, 19, 52]",3386193521,K3Li3Te1O6
Li3TiV2O6,mp-1273419,0.3746999999999998,4.53223323,0.021760523020831535,"{3: 3, 22: 1, 23: 2, 8: 6}","[3, 8, 22, 23]",3386221232,Li3Ti1V2O6
Li3TiCr2O6,mp-1306033,0.11050000000000004,5.62803338,0.05669556284721988,"{3: 3, 22: 1, 24: 2, 8: 6}","[3, 8, 22, 24]",3386221242,Li3Ti1Cr2O6
Li3TiMn2O6,mp-1292456,0.5592000000000001,3.72116203,0.06375978916667346,"{3: 3, 22: 1, 25: 2, 8: 6}","[3, 8, 22, 25]",3386221252,Li3Ti1Mn2O6
Li3Ti(CoO3)2,mp-771220,0.0,3.31295961,0.08305532270833726,"{3: 3, 22: 1, 27: 2, 8: 6}","[3, 8, 22, 27]",3386221272,Li3Ti1Co2O6
Li3Ti(NiO3)2,mp-1275017,0.07279999999999998,3.61380099,0.03888690902776837,"{3: 3, 22: 1, 28: 2, 8: 6}","[3, 8, 22, 28]",3386221282,Li3Ti1Ni2O6
Li3Ti2VO6,mp-867959,0.0,2.55286294,0.05889031062500383,"{3: 3, 22: 2, 23: 1, 8: 6}","[3, 8, 22, 23]",3386222231,Li3Ti2V1O6
Li3Ti2CrO6,mp-756972,0.0,5.71865314,0.07994707080728602,"{3: 3, 22: 2, 24: 1, 8: 6}","[3, 8, 22, 24]",3386222241,Li3Ti2Cr1O6
Li3Ti2MnO6,mp-756623,0.0,5.31733159,0.0802066771695431,"{3: 3, 22: 2, 25: 1, 8: 6}","[3, 8, 22, 25]",3386222251,Li3Ti2Mn1O6
Li3Ti2CoO6,mp-754180,0.0,4.74633973,0.09734418171874903,"{3: 3, 22: 2, 27: 1, 8: 6}","[3, 8, 22, 27]",3386222271,Li3Ti2Co1O6
Li3Ti2NiO6,mp-755155,0.0,5.85774683,0.11567193416665855,"{3: 3, 22: 2, 28: 1, 8: 6}","[3, 8, 22, 28]",3386222281,Li3Ti2Ni1O6
Li3Ti2NbO6,mp-1177566,0.0,5.64105192,0.07819350895831878,"{3: 3, 22: 2, 41: 1, 8: 6}","[3, 8, 22, 41]",3386222411,Li3Ti2Nb1O6
Li3VCr2O6,mp-754615,1.874,3.72989776,0.0015298279166708895,"{3: 3, 23: 1, 24: 2, 8: 6}","[3, 8, 23, 24]",3386231242,Li3V1Cr2O6
Li3Mn2VO6,mp-755092,0.2576,-0.04521632,0.09354678708332909,"{3: 3, 25: 2, 23: 1, 8: 6}","[3, 8, 23, 25]",3386231252,Li3Mn2V1O6
Li3Nb2VO6,mp-773121,0.21890000000000054,4.85284078,0.08704776354166821,"{3: 3, 41: 2, 23: 1, 8: 6}","[3, 8, 23, 41]",3386231412,Li3Nb2V1O6
Li3V2O6,mp-762268,1.3016999999999999,2.19421746,0.09315866363635994,"{3: 3, 23: 2, 8: 6}","[3, 8, 23]",3386232,Li3V2O6
Li3V2CrO6,mp-757208,1.5825000000000005,3.74634411,0.0012800816666613812,"{3: 3, 23: 2, 24: 1, 8: 6}","[3, 8, 23, 24]",3386232241,Li3V2Cr1O6
Li3MnV2O6,mp-773501,0.0,3.69406201,0.052065565208337716,"{3: 3, 25: 1, 23: 2, 8: 6}","[3, 8, 23, 25]",3386232251,Li3Mn1V2O6
Li3V2CoO6,mp-756859,0.0,4.06098328,0.3628146290277785,"{3: 3, 23: 2, 27: 1, 8: 6}","[3, 8, 23, 27]",3386232271,Li3V2Co1O6
Li3V2NiO6,mp-755724,0.0,4.43162501,0.06961048749999765,"{3: 3, 23: 2, 28: 1, 8: 6}","[3, 8, 23, 28]",3386232281,Li3V2Ni1O6
Li3NbV2O6,mp-1295016,0.21669999999999945,4.71501152,0.0622941395833303,"{3: 3, 41: 1, 23: 2, 8: 6}","[3, 8, 23, 41]",3386232411,Li3Nb1V2O6
Li3Mn2CrO6,mp-774897,0.0,3.73577697,0.06134172888888756,"{3: 3, 25: 2, 24: 1, 8: 6}","[3, 8, 24, 25]",3386241252,Li3Mn2Cr1O6
Li3Cr(CoO3)2,mp-1275904,0.9438000000000004,2.73211926,0.05807218416666515,"{3: 3, 24: 1, 27: 2, 8: 6}","[3, 8, 24, 27]",3386241272,Li3Cr1Co2O6
Li3Cr(NiO3)2,mp-754431,0.0,3.43205648,0.06136444541666819,"{3: 3, 24: 1, 28: 2, 8: 6}","[3, 8, 24, 28]",3386241282,Li3Cr1Ni2O6
Li3Nb2CrO6,mp-755780,0.0,4.81917434,0.08893687291666552,"{3: 3, 41: 2, 24: 1, 8: 6}","[3, 8, 24, 41]",3386241412,Li3Nb2Cr1O6
Li3MnCr2O6,mp-774249,0.2562000000000002,3.45266024,0.04249417783333165,"{3: 3, 25: 1, 24: 2, 8: 6}","[3, 8, 24, 25]",3386242251,Li3Mn1Cr2O6
Li3Cr2CoO6,mp-753687,0.6904999999999997,3.15637263,0.02508451166666603,"{3: 3, 24: 2, 27: 1, 8: 6}","[3, 8, 24, 27]",3386242271,Li3Cr2Co1O6
Li3Cr2NiO6,mp-756842,0.0,3.09386214,0.02668236979167027,"{3: 3, 24: 2, 28: 1, 8: 6}","[3, 8, 24, 28]",3386242281,Li3Cr2Ni1O6
Li3MnCoNiO6,mp-1222510,1.1081000000000003,2.79608688,0.04906116708333563,"{3: 3, 25: 1, 27: 1, 28: 1, 8: 6}","[3, 8, 25, 27, 28]",3386251271281,Li3Mn1Co1Ni1O6
Li3Mn(CoO3)2,mp-1173934,0.48950000000000005,2.89396913,0.05336103729165931,"{3: 3, 25: 1, 27: 2, 8: 6}","[3, 8, 25, 27]",3386251272,Li3Mn1Co2O6
Li3Mn(NiO3)2,mp-756364,0.0,3.42245122,0.024979301944449084,"{3: 3, 25: 1, 28: 2, 8: 6}","[3, 8, 25, 28]",3386251282,Li3Mn1Ni2O6
Li3Mn2CoO6,mp-1304294,0.9128000000000003,2.9865296,0.020599040208328034,"{3: 3, 25: 2, 27: 1, 8: 6}","[3, 8, 25, 27]",3386252271,Li3Mn2Co1O6
Li3Mn2NiO6,mp-756831,0.0,3.78558562,0.042024479999999365,"{3: 3, 25: 2, 28: 1, 8: 6}","[3, 8, 25, 28]",3386252281,Li3Mn2Ni1O6
Li3Mn2SnO6,mp-1290756,0.8304,4.30538505,0.05063558979166238,"{3: 3, 25: 2, 50: 1, 8: 6}","[3, 8, 25, 50]",3386252501,Li3Mn2Sn1O6
Li3Mn2SbO6,mp-1177635,0.2923,4.22091227,0.11297554583333014,"{3: 3, 25: 2, 51: 1, 8: 6}","[3, 8, 25, 51]",3386252511,Li3Mn2Sb1O6
Li3CoO6,mp-1212378,0.0,-4.06235177,1.4584912494285742,"{3: 3, 27: 1, 8: 6}","[3, 8, 27]",3386271,Li3Co1O6
Li3Co(NiO3)2,mp-754316,0.0,3.59418042,0.01676979111111354,"{3: 3, 27: 1, 28: 2, 8: 6}","[3, 8, 27, 28]",3386271282,Li3Co1Ni2O6
Li3Co2NiO6,mp-765538,0.0,3.73156197,0.014471151666664461,"{3: 3, 27: 2, 28: 1, 8: 6}","[3, 8, 27, 28]",3386272281,Li3Co2Ni1O6
Li3Co2RuO6,mp-1222636,0.0,3.27456914,0.020438827708328944,"{3: 3, 27: 2, 44: 1, 8: 6}","[3, 8, 27, 44]",3386272441,Li3Co2Ru1O6
Li3Co2SnO6,mp-1177755,0.032399999999999984,3.8981344,0.07656399249999701,"{3: 3, 27: 2, 50: 1, 8: 6}","[3, 8, 27, 50]",3386272501,Li3Co2Sn1O6
Li3Co2SbO6,mp-754343,0.5606999999999998,4.87727244,0.1344407395833329,"{3: 3, 27: 2, 51: 1, 8: 6}","[3, 8, 27, 51]",3386272511,Li3Co2Sb1O6
Li3NiO6,mp-1213623,0.0,-4.36099951,1.5780395369285745,"{3: 3, 28: 1, 8: 6}","[3, 8, 28]",3386281,Li3Ni1O6
Li3Ni2SnO6,mp-1292604,0.3567999999999998,3.97693809,0.02889716881944171,"{3: 3, 28: 2, 50: 1, 8: 6}","[3, 8, 28, 50]",3386282501,Li3Ni2Sn1O6
Li3Ni2SbO6,mp-1102490,2.8084,3.87788242,0.0,"{3: 3, 28: 2, 51: 1, 8: 6}","[3, 8, 28, 51]",3386282511,Li3Ni2Sb1O6
Li3Zn2SbO6,mp-557328,2.4602,2.75840802,0.022566202500000188,"{3: 3, 30: 2, 51: 1, 8: 6}","[3, 8, 30, 51]",3386302511,Li3Zn2Sb1O6
Li3(RuO3)2,mp-675354,0.0,4.16041433,0.3706200127272732,"{3: 3, 44: 2, 8: 6}","[3, 8, 44]",3386442,Li3Ru2O6
Li3MnP2(O3F2)2,mp-1199210,1.7453,0.15180736,0.0,"{3: 3, 25: 1, 15: 2, 8: 6, 9: 4}","[3, 8, 9, 15, 25]",338694152251,Li3Mn1P2O6F4
Li3VSi2O7,mp-1253145,2.2957,2.4876823,0.02513740818909227,"{3: 3, 23: 1, 14: 2, 8: 7}","[3, 8, 14, 23]",3387142231,Li3V1Si2O7
Li3CrSi2O7,mp-758792,2.715,1.93372867,0.04368622326923344,"{3: 3, 24: 1, 14: 2, 8: 7}","[3, 8, 14, 24]",3387142241,Li3Cr1Si2O7
Li3MnSi2O7,mp-780126,0.9668000000000001,2.15449555,0.05786823888541903,"{3: 3, 25: 1, 14: 2, 8: 7}","[3, 8, 14, 25]",3387142251,Li3Mn1Si2O7
Li3Si2BiO7,mp-757466,3.4200000000000004,2.42047381,0.0657145317948693,"{3: 3, 14: 2, 83: 1, 8: 7}","[3, 8, 14, 83]",3387142831,Li3Si2Bi1O7
Li3V4O7F5,mp-765375,1.1906999999999999,1.64384944,0.11029593105263125,"{3: 3, 23: 4, 8: 7, 9: 5}","[3, 8, 9, 23]",338795234,Li3V4O7F5
Li3MgNi3O8,mp-772324,0.0,3.14568539,0.06329086855050825,"{3: 3, 12: 1, 28: 3, 8: 8}","[3, 8, 12, 28]",3388121283,Li3Mg1Ni3O8
Li3Mg(NiO2)4,mp-756610,0.0,3.76593033,0.011569811250001116,"{3: 3, 12: 1, 28: 4, 8: 8}","[3, 8, 12, 28]",3388121284,Li3Mg1Ni4O8
Li3Cr3SiO8,mp-755028,2.7547,3.12195838,0.051181487000000914,"{3: 3, 24: 3, 14: 1, 8: 8}","[3, 8, 14, 24]",3388141243,Li3Cr3Si1O8
Li3Mn3SiO8,mp-761765,0.9150000000000005,3.29728454,0.08197780825001644,"{3: 3, 25: 3, 14: 1, 8: 8}","[3, 8, 14, 25]",3388141253,Li3Mn3Si1O8
Li3SiNi3O8,mp-753399,0.0,3.81682125,0.05348984658333311,"{3: 3, 14: 1, 28: 3, 8: 8}","[3, 8, 14, 28]",3388141283,Li3Si1Ni3O8
Li3Mn2(SiO4)2,mp-1306442,1.0612000000000001,1.72397379,0.07881204136110487,"{3: 3, 25: 2, 14: 2, 8: 8}","[3, 8, 14, 25]",3388142252,Li3Mn2Si2O8
Li3Co2(SiO4)2,mp-753099,0.3763000000000001,1.89643758,0.052884896777778856,"{3: 3, 27: 2, 14: 2, 8: 8}","[3, 8, 14, 27]",3388142272,Li3Co2Si2O8
Li3Si2(NiO4)2,mp-777771,0.9791999999999998,1.59259009,0.0846504879555594,"{3: 3, 14: 2, 28: 2, 8: 8}","[3, 8, 14, 28]",3388142282,Li3Si2Ni2O8
Li3Ti(PO4)2,mp-757905,0.14219999999999988,5.17807772,0.07170634007652144,"{3: 3, 22: 1, 15: 2, 8: 8}","[3, 8, 15, 22]",3388152221,Li3Ti1P2O8
Li3V(PO4)2,mp-26399,1.7555999999999994,2.9400577,0.026473023035707755,"{3: 3, 23: 1, 15: 2, 8: 8}","[3, 8, 15, 23]",3388152231,Li3V1P2O8
Li3Cr(PO4)2,mp-1661932,2.6416999999999997,2.30433948,0.022840351249995727,"{3: 3, 24: 1, 15: 2, 8: 8}","[3, 8, 15, 24]",3388152241,Li3Cr1P2O8
Li3Mn(PO4)2,mp-1663233,0.9321000000000002,2.80176485,0.016905790000055987,"{3: 3, 25: 1, 15: 2, 8: 8}","[3, 8, 15, 25]",3388152251,Li3Mn1P2O8
Li3Co(PO4)2,mp-25996,0.8172999999999999,0.2528485,0.01949278616071659,"{3: 3, 27: 1, 15: 2, 8: 8}","[3, 8, 15, 27]",3388152271,Li3Co1P2O8
Li3Ni(PO4)2,mp-26691,0.19850000000000012,2.56431451,0.06097180723214102,"{3: 3, 28: 1, 15: 2, 8: 8}","[3, 8, 15, 28]",3388152281,Li3Ni1P2O8
Li3Mo(PO4)2,mp-26347,3.7184000000000004,3.14289861,0.02475050339286078,"{3: 3, 42: 1, 15: 2, 8: 8}","[3, 8, 15, 42]",3388152421,Li3Mo1P2O8
Li3Sn(PO4)2,mp-758002,0.0,3.94380771,0.055239790833327085,"{3: 3, 50: 1, 15: 2, 8: 8}","[3, 8, 15, 50]",3388152501,Li3Sn1P2O8
Li3Sb(PO4)2,mp-774714,2.9461,2.98681623,0.06057792142858265,"{3: 3, 51: 1, 15: 2, 8: 8}","[3, 8, 15, 51]",3388152511,Li3Sb1P2O8
Li3P2WO8,mp-758018,4.1832,2.94034803,0.05218060901785737,"{3: 3, 15: 2, 74: 1, 8: 8}","[3, 8, 15, 74]",3388152741,Li3P2W1O8
Li3Bi(PO4)2,mp-1101536,3.8058,2.16405775,0.04465996416666673,"{3: 3, 83: 1, 15: 2, 8: 8}","[3, 8, 15, 83]",3388152831,Li3Bi1P2O8
K4Li3Mn2O8,mp-758550,0.46630000000000016,1.54286098,0.07405099966752005,"{19: 4, 3: 3, 25: 2, 8: 8}","[3, 8, 19, 25]",3388194252,K4Li3Mn2O8
Li3TiV3O8,mp-756307,1.3290000000000002,3.33839645,0.02971181774999998,"{3: 3, 22: 1, 23: 3, 8: 8}","[3, 8, 22, 23]",3388221233,Li3Ti1V3O8
Li3TiV4O8,mp-754706,0.0,5.55073597,0.06550402210937456,"{3: 3, 22: 1, 23: 4, 8: 8}","[3, 8, 22, 23]",3388221234,Li3Ti1V4O8
Li3TiCr3O8,mp-754193,2.0122999999999998,2.7582093,0.03882574083333523,"{3: 3, 22: 1, 24: 3, 8: 8}","[3, 8, 22, 24]",3388221243,Li3Ti1Cr3O8
Li3TiMn3O8,mp-759205,1.1442999999999999,2.5570374,0.0557586305555553,"{3: 3, 22: 1, 25: 3, 8: 8}","[3, 8, 22, 25]",3388221253,Li3Ti1Mn3O8
Li3TiMn4O8,mp-1290530,0.6013999999999999,3.78307319,0.07191065656250117,"{3: 3, 22: 1, 25: 4, 8: 8}","[3, 8, 22, 25]",3388221254,Li3Ti1Mn4O8
Li3TiCo3O8,mp-761172,0.6397999999999997,3.7658623,0.06667047416667504,"{3: 3, 22: 1, 27: 3, 8: 8}","[3, 8, 22, 27]",3388221273,Li3Ti1Co3O8
Li3Ti(CoO2)4,mp-756324,0.0,3.62718028,0.06524762234375014,"{3: 3, 22: 1, 27: 4, 8: 8}","[3, 8, 22, 27]",3388221274,Li3Ti1Co4O8
Li3TiNi3O8,mp-1303223,0.4628000000000001,3.10506648,0.03495444458333008,"{3: 3, 22: 1, 28: 3, 8: 8}","[3, 8, 22, 28]",3388221283,Li3Ti1Ni3O8
Li3Ti(NiO2)4,mp-1305999,0.2639999999999998,3.95503497,0.022602838958328597,"{3: 3, 22: 1, 28: 4, 8: 8}","[3, 8, 22, 28]",3388221284,Li3Ti1Ni4O8
Li3Ti2V2O8,mp-763577,0.0,4.39311065,0.07352912200000361,"{3: 3, 22: 2, 23: 2, 8: 8}","[3, 8, 22, 23]",3388222232,Li3Ti2V2O8
Li3Ti2(CoO4)2,mp-781664,0.2206999999999999,2.93192539,0.09388155808333032,"{3: 3, 22: 2, 27: 2, 8: 8}","[3, 8, 22, 27]",3388222272,Li3Ti2Co2O8
Li3Ti2(NiO4)2,mp-753424,0.3008000000000002,3.35230952,0.06489143423190935,"{3: 3, 22: 2, 28: 2, 8: 8}","[3, 8, 22, 28]",3388222282,Li3Ti2Ni2O8
Li3Ti3VO8,mp-752665,0.0,5.0150093,0.0616541165833322,"{3: 3, 22: 3, 23: 1, 8: 8}","[3, 8, 22, 23]",3388223231,Li3Ti3V1O8
Li3Ti3CrO8,mp-755762,0.0,5.22160357,0.07806241841666761,"{3: 3, 22: 3, 24: 1, 8: 8}","[3, 8, 22, 24]",3388223241,Li3Ti3Cr1O8
Li3Ti4O8,mp-752879,0.0,5.53840373,0.045010171000001264,"{3: 3, 22: 4, 8: 8}","[3, 8, 22]",3388224,Li3Ti4O8
Li3Ti4VO8,mp-752543,0.0,6.9815664,0.07879140843750143,"{3: 3, 22: 4, 23: 1, 8: 8}","[3, 8, 22, 23]",3388224231,Li3Ti4V1O8
Li3VCr3O8,mp-764983,1.5066000000000002,2.98007068,0.03779956468750445,"{3: 3, 23: 1, 24: 3, 8: 8}","[3, 8, 23, 24]",3388231243,Li3V1Cr3O8
Li3VCr4O8,mp-756915,0.14329999999999998,5.1319834,0.08404762858073056,"{3: 3, 23: 1, 24: 4, 8: 8}","[3, 8, 23, 24]",3388231244,Li3V1Cr4O8
Li3Mn4VO8,mp-770661,0.0,4.26391844,0.10857963125000136,"{3: 3, 25: 4, 23: 1, 8: 8}","[3, 8, 23, 25]",3388231254,Li3Mn4V1O8
Li3V(CoO2)4,mp-756385,0.0,3.58460969,0.09565828500000251,"{3: 3, 23: 1, 27: 4, 8: 8}","[3, 8, 23, 27]",3388231274,Li3V1Co4O8
Li3V2Cr2O8,mp-850135,0.4546999999999999,3.32011673,0.05710623639583279,"{3: 3, 23: 2, 24: 2, 8: 8}","[3, 8, 23, 24]",3388232242,Li3V2Cr2O8
Li3V2(NiO4)2,mp-1177514,1.4901,2.5650121,0.09594127066666758,"{3: 3, 23: 2, 28: 2, 8: 8}","[3, 8, 23, 28]",3388232282,Li3V2Ni2O8
Li3V3O8,mp-1177493,1.3413,2.03588889,0.08740320892856879,"{3: 3, 23: 3, 8: 8}","[3, 8, 23]",3388233,Li3V3O8
Li3V3CrO8,mp-769596,0.6851999999999996,3.35039332,0.04467150225000793,"{3: 3, 23: 3, 24: 1, 8: 8}","[3, 8, 23, 24]",3388233241,Li3V3Cr1O8
Li3MnV3O8,mp-757175,0.49860000000000015,3.32024362,0.06774353441666481,"{3: 3, 25: 1, 23: 3, 8: 8}","[3, 8, 23, 25]",3388233251,Li3Mn1V3O8
Li3V3CoO8,mp-1177534,0.8990999999999998,4.19468199,0.12778764111110874,"{3: 3, 23: 3, 27: 1, 8: 8}","[3, 8, 23, 27]",3388233271,Li3V3Co1O8
Li3NbV3O8,mp-769967,0.6642999999999994,3.86222234,0.07476533204166635,"{3: 3, 41: 1, 23: 3, 8: 8}","[3, 8, 23, 41]",3388233411,Li3Nb1V3O8
Li3V3SbO8,mp-1177488,0.7570999999999994,4.73080938,0.08849724566667039,"{3: 3, 23: 3, 51: 1, 8: 8}","[3, 8, 23, 51]",3388233511,Li3V3Sb1O8
Li3V4O8,mp-1302334,1.0954000000000006,3.33587196,0.043297463583334306,"{3: 3, 23: 4, 8: 8}","[3, 8, 23]",3388234,Li3V4O8
Li3V4CrO8,mp-755134,0.5800999999999998,5.03202812,0.04684845755208755,"{3: 3, 23: 4, 24: 1, 8: 8}","[3, 8, 23, 24]",3388234241,Li3V4Cr1O8
Li3MnV4O8,mp-755305,0.8022999999999998,4.86989805,0.07944058621874994,"{3: 3, 25: 1, 23: 4, 8: 8}","[3, 8, 23, 25]",3388234251,Li3Mn1V4O8
Li3NbV4O8,mp-754577,0.0,5.19442987,0.1060598656770857,"{3: 3, 41: 1, 23: 4, 8: 8}","[3, 8, 23, 41]",3388234411,Li3Nb1V4O8
Li3V5O8,mp-755272,0.7822000000000005,4.9943701,0.03325996223958505,"{3: 3, 23: 5, 8: 8}","[3, 8, 23]",3388235,Li3V5O8
Li3Mn3CrO8,mp-1177699,0.23760000000000003,3.17452824,0.14524012455555102,"{3: 3, 25: 3, 24: 1, 8: 8}","[3, 8, 24, 25]",3388241253,Li3Mn3Cr1O8
Li3Mn4CrO8,mp-756602,0.0,4.08572555,0.07738029135416902,"{3: 3, 25: 4, 24: 1, 8: 8}","[3, 8, 24, 25]",3388241254,Li3Mn4Cr1O8
Li3CrCo3O8,mp-759149,0.0,3.48259065,0.05008061745370984,"{3: 3, 24: 1, 27: 3, 8: 8}","[3, 8, 24, 27]",3388241273,Li3Cr1Co3O8
Li3Cr(CoO2)4,mp-756763,0.0,4.33062619,0.12764965656250027,"{3: 3, 24: 1, 27: 4, 8: 8}","[3, 8, 24, 27]",3388241274,Li3Cr1Co4O8
Li3CrNi3O8,mp-755220,0.0,2.92813836,0.08945806266666168,"{3: 3, 24: 1, 28: 3, 8: 8}","[3, 8, 24, 28]",3388241283,Li3Cr1Ni3O8
Li3Cr(NiO2)4,mp-756352,0.0,4.00458151,0.043749318437500406,"{3: 3, 24: 1, 28: 4, 8: 8}","[3, 8, 24, 28]",3388241284,Li3Cr1Ni4O8
Li3Mn2Cr2O8,mp-780408,0.0,2.93062424,0.1781678656333332,"{3: 3, 25: 2, 24: 2, 8: 8}","[3, 8, 24, 25]",3388242252,Li3Mn2Cr2O8
Li3Cr2(CoO4)2,mp-1308819,0.6496999999999997,2.54050603,0.11509815155555181,"{3: 3, 24: 2, 27: 2, 8: 8}","[3, 8, 24, 27]",3388242272,Li3Cr2Co2O8
Li3Cr2(NiO4)2,mp-756976,0.0,2.82186363,0.09196859577778849,"{3: 3, 24: 2, 28: 2, 8: 8}","[3, 8, 24, 28]",3388242282,Li3Cr2Ni2O8
Li3MnCr3O8,mp-1177618,1.7173000000000003,2.41304294,0.0778700884938246,"{3: 3, 25: 1, 24: 3, 8: 8}","[3, 8, 24, 25]",3388243251,Li3Mn1Cr3O8
Li3Cr3CoO8,mp-759061,0.6934,2.39847696,0.025083037555547527,"{3: 3, 24: 3, 27: 1, 8: 8}","[3, 8, 24, 27]",3388243271,Li3Cr3Co1O8
Li3Cr3NiO8,mp-756615,0.3500000000000001,1.68692656,0.05575193074074658,"{3: 3, 24: 3, 28: 1, 8: 8}","[3, 8, 24, 28]",3388243281,Li3Cr3Ni1O8
Li3Cr3GaO8,mp-768641,0.0,4.44456129,0.06145742964815515,"{3: 3, 24: 3, 31: 1, 8: 8}","[3, 8, 24, 31]",3388243311,Li3Cr3Ga1O8
Li3Cr4O8,mp-768634,0.46850000000000014,2.65884319,0.033695914148149875,"{3: 3, 24: 4, 8: 8}","[3, 8, 24]",3388244,Li3Cr4O8
Li3MnCr4O8,mp-756839,0.2466999999999997,4.50471622,0.10096037193965479,"{3: 3, 25: 1, 24: 4, 8: 8}","[3, 8, 24, 25]",3388244251,Li3Mn1Cr4O8
Li3Cr5O8,mp-1311453,0.7397999999999998,5.13958964,0.06805551041666824,"{3: 3, 24: 5, 8: 8}","[3, 8, 24]",3388245,Li3Cr5O8
Li3MnCo3O8,mp-774219,0.0,3.42824879,0.01740412129165758,"{3: 3, 25: 1, 27: 3, 8: 8}","[3, 8, 25, 27]",3388251273,Li3Mn1Co3O8
Li3Mn(CoO2)4,mp-756302,0.0,3.3180195,0.05869084890624787,"{3: 3, 25: 1, 27: 4, 8: 8}","[3, 8, 25, 27]",3388251274,Li3Mn1Co4O8
Li3MnNi3O8,mp-753219,0.0,2.89528216,0.018566930916669833,"{3: 3, 25: 1, 28: 3, 8: 8}","[3, 8, 25, 28]",3388251283,Li3Mn1Ni3O8
Li3Mn(NiO2)4,mp-756870,0.0,4.12549985,0.009687754270833793,"{3: 3, 25: 1, 28: 4, 8: 8}","[3, 8, 25, 28]",3388251284,Li3Mn1Ni4O8
Li3Mn2(CoO4)2,mp-779153,0.0,3.31761587,0.1011992685333345,"{3: 3, 25: 2, 27: 2, 8: 8}","[3, 8, 25, 27]",3388252272,Li3Mn2Co2O8
Li3Mn2(NiO4)2,mp-763752,0.0,2.65982668,0.4636938606666705,"{3: 3, 25: 2, 28: 2, 8: 8}","[3, 8, 25, 28]",3388252282,Li3Mn2Ni2O8
Li3Mn3O8,mp-770608,0.0,0.96426652,0.031071843380945374,"{3: 3, 25: 3, 8: 8}","[3, 8, 25]",3388253,Li3Mn3O8
Li3Mn3CoO8,mp-1314393,0.6854,2.89070364,0.06901383593332255,"{3: 3, 25: 3, 27: 1, 8: 8}","[3, 8, 25, 27]",3388253271,Li3Mn3Co1O8
Li3Mn3NiO8,mp-757987,0.0,2.96306686,0.03272215683332469,"{3: 3, 25: 3, 28: 1, 8: 8}","[3, 8, 25, 28]",3388253281,Li3Mn3Ni1O8
Li3Mn3SbO8,mp-756729,0.0,3.42866475,0.06798227000000168,"{3: 3, 25: 3, 51: 1, 8: 8}","[3, 8, 25, 51]",3388253511,Li3Mn3Sb1O8
Li3Mn3TeO8,mp-1302799,0.6681999999999997,3.42522061,0.0423238697499988,"{3: 3, 25: 3, 52: 1, 8: 8}","[3, 8, 25, 52]",3388253521,Li3Mn3Te1O8
Li3Mn3WO8,mp-756701,0.0,2.55119718,0.08449154366666622,"{3: 3, 25: 3, 74: 1, 8: 8}","[3, 8, 25, 74]",3388253741,Li3Mn3W1O8
Li3Mn4O8,mp-753674,0.5093000000000001,2.64761158,0.02657652433334068,"{3: 3, 25: 4, 8: 8}","[3, 8, 25]",3388254,Li3Mn4O8
Li3Mn4CoO8,mp-755577,0.0,3.6452173,0.029651740468749743,"{3: 3, 25: 4, 27: 1, 8: 8}","[3, 8, 25, 27]",3388254271,Li3Mn4Co1O8
Li3Mn4NiO8,mp-756351,0.0,4.07429961,0.022364627187499764,"{3: 3, 25: 4, 28: 1, 8: 8}","[3, 8, 25, 28]",3388254281,Li3Mn4Ni1O8
Li3Mn4SnO8,mp-1290720,0.0,4.16387084,0.052598760468749894,"{3: 3, 25: 4, 50: 1, 8: 8}","[3, 8, 25, 50]",3388254501,Li3Mn4Sn1O8
Li3Mn4SbO8,mp-756607,0.0,4.78384142,0.07817256249999982,"{3: 3, 25: 4, 51: 1, 8: 8}","[3, 8, 25, 51]",3388254511,Li3Mn4Sb1O8
Li3Mn5O8,mp-754811,0.0,3.71438805,0.06594887781250058,"{3: 3, 25: 5, 8: 8}","[3, 8, 25]",3388255,Li3Mn5O8
Li3CoNi3O8,mp-774300,0.09489999999999998,3.23811796,0.01481817080555814,"{3: 3, 27: 1, 28: 3, 8: 8}","[3, 8, 27, 28]",3388271283,Li3Co1Ni3O8
Li3Co(NiO2)4,mp-756787,0.0,4.25597185,0.019836509583333495,"{3: 3, 27: 1, 28: 4, 8: 8}","[3, 8, 27, 28]",3388271284,Li3Co1Ni4O8
Li3Co2(NiO4)2,mp-779959,0.0,3.22938606,0.019692746333337396,"{3: 3, 27: 2, 28: 2, 8: 8}","[3, 8, 27, 28]",3388272282,Li3Co2Ni2O8
Li3Co2(GeO4)2,mp-753224,0.0676,1.0020029,0.06490052666666468,"{3: 3, 27: 2, 32: 2, 8: 8}","[3, 8, 27, 32]",3388272322,Li3Co2Ge2O8
Li3Co3NiO8,mp-753764,0.0,2.7567931,0.054936586916664254,"{3: 3, 27: 3, 28: 1, 8: 8}","[3, 8, 27, 28]",3388273281,Li3Co3Ni1O8
Li3Co3SbO8,mp-772208,0.3571,3.4000519,0.09046381750001231,"{3: 3, 27: 3, 51: 1, 8: 8}","[3, 8, 27, 51]",3388273511,Li3Co3Sb1O8
Li3Co3TeO8,mp-772004,0.4501999999999997,3.2084824,0.03600403933333407,"{3: 3, 27: 3, 52: 1, 8: 8}","[3, 8, 27, 52]",3388273521,Li3Co3Te1O8
Li3(CoO2)4,mp-759191,0.0,2.75644976,0.0524331542500045,"{3: 3, 27: 4, 8: 8}","[3, 8, 27]",3388274,Li3Co4O8