formula,material_id,band_gap,efermi,energy_above_hull,comp_atoms,sorted_keys_comp_atoms,comp_number,new_formula
Cs2LiInF6,mp-1113016,5.227,-1.41166667,0.004074148833330682,"{55: 2, 3: 1, 49: 1, 9: 6}","[3, 9, 49, 55]",3196491552,Cs2Li1In1F6
LiTl2InF6,mp-989551,4.0172,1.13184781,0.0,"{3: 1, 81: 2, 49: 1, 9: 6}","[3, 9, 49, 81]",3196491812,Li1Tl2In1F6
LiSbF6,mp-3980,4.933400000000001,-2.76114485,0.0,"{3: 1, 51: 1, 9: 6}","[3, 9, 51]",3196511,Li1Sb1F6
Cs2LiSbF6,mp-1110971,4.1258,0.84083333,0.089258367000002,"{55: 2, 3: 1, 51: 1, 9: 6}","[3, 9, 51, 55]",3196511552,Cs2Li1Sb1F6
Cs2LiCeF6,mp-1110975,0.5298999999999996,3.92166667,0.004648865777763689,"{55: 2, 3: 1, 58: 1, 9: 6}","[3, 9, 55, 58]",3196552581,Cs2Li1Ce1F6
Cs2LiPrF6,mp-1110972,6.9993,-1.98583333,0.023270645999994954,"{55: 2, 3: 1, 59: 1, 9: 6}","[3, 9, 55, 59]",3196552591,Cs2Li1Pr1F6
Cs2LiNdF6,mp-1110973,7.055000000000001,-2.02583333,0.039782480000001286,"{55: 2, 3: 1, 60: 1, 9: 6}","[3, 9, 55, 60]",3196552601,Cs2Li1Nd1F6
Cs2LiTaF6,mp-1110970,0.0,4.073105,0.18134793899999835,"{55: 2, 3: 1, 73: 1, 9: 6}","[3, 9, 55, 73]",3196552731,Cs2Li1Ta1F6
Cs2LiAuF6,mp-1112579,0.5297999999999999,-0.39958333,0.10404615349999968,"{55: 2, 3: 1, 79: 1, 9: 6}","[3, 9, 55, 79]",3196552791,Cs2Li1Au1F6
Cs2LiTlF6,mp-989562,3.4749,-1.36193879,0.010150473500001311,"{55: 2, 3: 1, 81: 1, 9: 6}","[3, 9, 55, 81]",3196552811,Cs2Li1Tl1F6
Cs2LiBiF6,mp-1110976,4.8946000000000005,-0.19958333,0.005219255999996619,"{55: 2, 3: 1, 83: 1, 9: 6}","[3, 9, 55, 83]",3196552831,Cs2Li1Bi1F6
LiTaF6,mp-1080679,5.9681,-3.99670268,0.0,"{3: 1, 73: 1, 9: 6}","[3, 9, 73]",3196731,Li1Ta1F6
LiWF6,mp-759647,3.1491,-1.96601014,0.0,"{3: 1, 74: 1, 9: 6}","[3, 9, 74]",3196741,Li1W1F6
LiOsF6,mp-1079181,1.2041,-1.06839867,0.0,"{3: 1, 76: 1, 9: 6}","[3, 9, 76]",3196761,Li1Os1F6
LiIrF6,mp-11172,0.0,-1.0192371,0.0,"{3: 1, 77: 1, 9: 6}","[3, 9, 77]",3196771,Li1Ir1F6
LiPtF6,mp-1095099,0.0,-1.7612269,0.0,"{3: 1, 78: 1, 9: 6}","[3, 9, 78]",3196781,Li1Pt1F6
LiAuF6,mp-1079483,1.8673,-2.6752591,0.0,"{3: 1, 79: 1, 9: 6}","[3, 9, 79]",3196791,Li1Au1F6
LiBiF6,mp-27419,2.5394,-2.72308001,0.0,"{3: 1, 83: 1, 9: 6}","[3, 9, 83]",3196831,Li1Bi1F6
LiV2F7,mp-756227,1.8395,-0.12516562,0.02546621049999409,"{3: 1, 23: 2, 9: 7}","[3, 9, 23]",3197232,Li1V2F7
LiMn2F7,mp-763425,1.0465,-1.17971875,0.01532275074999312,"{3: 1, 25: 2, 9: 7}","[3, 9, 25]",3197252,Li1Mn2F7
LiSb2F7,mp-1195657,4.7225,4.64942384,0.0,"{3: 1, 51: 2, 9: 7}","[3, 9, 51]",3197512,Li1Sb2F7
Li19Mn5N9,mp-674982,0.0,1.63217634,0.12302611552594822,"{3: 19, 25: 5, 7: 9}","[3, 7, 25]",31979255,Li19Mn5N9
NaLiHo2F8,mp-1210003,7.5674,5.63266354,0.0,"{11: 1, 3: 1, 67: 2, 9: 8}","[3, 9, 11, 67]",3198111672,Na1Li1Ho2F8
NaLiEr2F8,mp-1209986,7.4719,5.42599398,0.0,"{11: 1, 3: 1, 68: 2, 9: 8}","[3, 9, 11, 68]",3198111682,Na1Li1Er2F8
NaLiTm2F8,mp-1210006,7.552,5.58964029,0.0,"{11: 1, 3: 1, 69: 2, 9: 8}","[3, 9, 11, 69]",3198111692,Na1Li1Tm2F8
NaLiLu2F8,mp-1209991,7.2608,-1.82208485,0.0,"{11: 1, 3: 1, 71: 2, 9: 8}","[3, 9, 11, 71]",3198111712,Na1Li1Lu2F8
Li19(CoO4)4,mp-768441,0.0,0.84525791,0.08413296756410293,"{3: 19, 27: 4, 8: 16}","[3, 8, 27]",319816274,Li19Co4O16
LiCaUF8,mp-632402,0.3838999999999999,1.55036059,0.025278989090899984,"{3: 1, 20: 1, 92: 1, 9: 8}","[3, 9, 20, 92]",3198201921,Li1Ca1U1F8
Li19V12O32,mp-1223171,0.6928999999999998,3.91529819,0.060488143551587825,"{3: 19, 23: 12, 8: 32}","[3, 8, 23]",3198322312,Li19V12O32
Li19Cr4P8O35F,mp-759194,1.9694000000000003,4.9808837,0.06176919496265576,"{3: 19, 24: 4, 15: 8, 8: 35, 9: 1}","[3, 8, 9, 15, 24]",31983591158244,Li19Cr4P8O35F1
Li19Mn4P8O35F,mp-1178065,0.48009999999999975,2.53526804,0.06013112007462684,"{3: 19, 25: 4, 15: 8, 8: 35, 9: 1}","[3, 8, 9, 15, 25]",31983591158254,Li19Mn4P8O35F1
Li19Ni23O42,mp-698842,0.0,3.63720964,0.006217282063493812,"{3: 19, 28: 23, 8: 42}","[3, 8, 28]",3198422823,Li19Ni23O42
LiAg3F8,mp-867824,0.0,-1.3032743,0.07286460708333387,"{3: 1, 47: 3, 9: 8}","[3, 9, 47]",3198473,Li1Ag3F8
Li19La12Zr8O48,mp-1239180,0.011499999999999844,2.6663534,0.09317542728927197,"{3: 19, 57: 12, 40: 8, 8: 48}","[3, 8, 40, 57]",3198484085712,Li19La12Zr8O48
LiV2F9,mp-1176613,1.7635,-2.03264866,0.04078836583333434,"{3: 1, 23: 2, 9: 9}","[3, 9, 23]",3199232,Li1V2F9
LiMn2F9,mp-753244,2.2679,-3.78745388,0.01404436850694335,"{3: 1, 25: 2, 9: 9}","[3, 9, 25]",3199252,Li1Mn2F9
Li20Si3P3S23Cl,mp-1097035,2.3076,3.81217023,0.030529962650000186,"{3: 20, 14: 3, 15: 3, 16: 23, 17: 1}","[3, 14, 15, 16, 17]",3201431531623171,Li20Si3P3S23Cl1
Li20B54O,mp-685320,0.0,3.04302367,0.044718160533332885,"{3: 20, 5: 54, 8: 1}","[3, 5, 8]",32055481,Li20B54O1
Li20Co21O40,mp-705640,0.5469999999999997,3.71211815,0.03695862271604966,"{3: 20, 27: 21, 8: 40}","[3, 8, 27]",3208402721,Li20Co21O40
Li20(CoO2)21,mp-532301,0.0,3.60604218,0.0062725005271202505,"{3: 20, 27: 21, 8: 42}","[3, 8, 27]",3208422721,Li20Co21O42
Li20Nb19O60,mp-686230,0.0,0.66278811,0.05689609047980149,"{3: 20, 41: 19, 8: 60}","[3, 8, 41]",3208604119,Li20Nb19O60
NaLi2As,mp-1014873,0.0,1.2478136,0.4693131438888889,"{11: 1, 3: 2, 33: 1}","[3, 11, 33]",32111331,Na1Li2As1
NaLi2Sn,mp-1186135,0.0,2.69157715,0.0248655635387931,"{11: 1, 3: 2, 50: 1}","[3, 11, 50]",32111501,Na1Li2Sn1
NaLi2Sb,mp-5077,0.6796000000000002,3.71593126,0.0,"{11: 1, 3: 2, 51: 1}","[3, 11, 51]",32111511,Na1Li2Sb1
NaLi2Au,mp-1093741,0.6656999999999997,-2.46906773,1.0741983016666676,"{11: 1, 3: 2, 79: 1}","[3, 11, 79]",32111791,Na1Li2Au1
NaLi2Hg,mp-1093671,0.28679999999999994,-2.49868077,0.8964171854430081,"{11: 1, 3: 2, 80: 1}","[3, 11, 80]",32111801,Na1Li2Hg1
NaLi2Tl,mp-1097585,0.19640000000000013,-2.18492756,1.0793332964547417,"{11: 1, 3: 2, 81: 1}","[3, 11, 81]",32111811,Na1Li2Tl1
NaLi2Pb,mp-975997,0.0,3.06814543,0.02011342971666874,"{11: 1, 3: 2, 82: 1}","[3, 11, 82]",32111821,Na1Li2Pb1
NaLi2Bi,mp-865101,0.32509999999999994,2.95059355,0.0,"{11: 1, 3: 2, 83: 1}","[3, 11, 83]",32111831,Na1Li2Bi1
Li21Si5,mp-29720,0.0,1.74554808,0.0,"{3: 21, 14: 5}","[3, 14]",321145,Li21Si5
Li2Mg,mp-976843,0.0,0.93043925,0.0030548261111111863,"{3: 2, 12: 1}","[3, 12]",32121,Li2Mg1
Li2MgSi,mp-1105932,0.1983999999999999,3.66786798,0.0,"{3: 2, 12: 1, 14: 1}","[3, 12, 14]",32121141,Li2Mg1Si1
Li2MgCdP2,mp-1222661,2.004,4.56613574,0.0,"{3: 2, 12: 1, 48: 1, 15: 2}","[3, 12, 15, 48]",32121152481,Li2Mg1Cd1P2
Li2MgCl4,mp-38684,5.2764,-0.07118401,0.008656790714286267,"{3: 2, 12: 1, 17: 4}","[3, 12, 17]",32121174,Li2Mg1Cl4
Li2CaMg,mp-1096674,0.6532000000000002,-2.48329103,1.2053859235156246,"{3: 2, 20: 1, 12: 1}","[3, 12, 20]",32121201,Li2Ca1Mg1
Li2MgZn,mp-1222610,0.0,1.621313,0.01127658124999975,"{3: 2, 12: 1, 30: 1}","[3, 12, 30]",32121301,Li2Mg1Zn1
Li2MgGa,mp-1222647,0.0,2.04411047,0.0,"{3: 2, 12: 1, 31: 1}","[3, 12, 31]",32121311,Li2Mg1Ga1
Li2MgGe,mp-1222651,0.0,2.77841535,0.0,"{3: 2, 12: 1, 32: 1}","[3, 12, 32]",32121321,Li2Mg1Ge1
Li2MgBr4,mp-29009,4.5262,-0.12790174,0.014596735714285991,"{3: 2, 12: 1, 35: 4}","[3, 12, 35]",32121354,Li2Mg1Br4
Li2MgAg,mp-1222653,0.0,1.99156731,0.002156627499999786,"{3: 2, 12: 1, 47: 1}","[3, 12, 47]",32121471,Li2Mg1Ag1
Li2MgCd,mp-1222648,0.0,1.61979868,0.0,"{3: 2, 12: 1, 48: 1}","[3, 12, 48]",32121481,Li2Mg1Cd1
Li2MgIn,mp-12128,0.0,4.45051052,0.0,"{3: 2, 12: 1, 49: 1}","[3, 12, 49]",32121491,Li2Mg1In1
Li2MgSn,mp-1222615,0.04749999999999943,4.31397066,0.0,"{3: 2, 12: 1, 50: 1}","[3, 12, 50]",32121501,Li2Mg1Sn1
Li2MgSb,mp-1222660,0.0,4.46681735,0.21357530187500018,"{3: 2, 12: 1, 51: 1}","[3, 12, 51]",32121511,Li2Mg1Sb1
Li2MgIr,mp-1188448,0.0,2.99989065,0.07401246291666652,"{3: 2, 12: 1, 77: 1}","[3, 12, 77]",32121771,Li2Mg1Ir1
Li2MgAu,mp-1222650,0.0,2.760246,0.0029623250000012646,"{3: 2, 12: 1, 79: 1}","[3, 12, 79]",32121791,Li2Mg1Au1
Li2MgHg,mp-1222646,0.0,2.08639135,0.0,"{3: 2, 12: 1, 80: 1}","[3, 12, 80]",32121801,Li2Mg1Hg1
Li2MgTl,mp-1222613,0.0,3.44738824,0.0,"{3: 2, 12: 1, 81: 1}","[3, 12, 81]",32121811,Li2Mg1Tl1
Li2MgPb,mp-1222652,0.0,4.10466591,0.0,"{3: 2, 12: 1, 82: 1}","[3, 12, 82]",32121821,Li2Mg1Pb1
Li2MgBi,mp-1222662,0.0,3.72178281,0.1445847881249991,"{3: 2, 12: 1, 83: 1}","[3, 12, 83]",32121831,Li2Mg1Bi1
Li2Mg3Si2,mp-1222684,0.20950000000000024,4.18357523,0.011523708214285833,"{3: 2, 12: 3, 14: 2}","[3, 12, 14]",32123142,Li2Mg3Si2
Li2Al,mp-1210753,0.0,2.42521458,0.0,"{3: 2, 13: 1}","[3, 13]",32131,Li2Al1
Li2AlSi,mp-1210755,0.0,4.64808409,0.08192141184523694,"{3: 2, 13: 1, 14: 1}","[3, 13, 14]",32131141,Li2Al1Si1
Li2CaAl,mp-1185028,0.0,2.19478102,0.019565215833333482,"{3: 2, 20: 1, 13: 1}","[3, 13, 20]",32131201,Li2Ca1Al1
Li2AlGa,mp-1222668,0.0,4.06619699,0.0,"{3: 2, 13: 1, 31: 1}","[3, 13, 31]",32131311,Li2Al1Ga1
Li2ZrAl,mp-1206664,0.0,3.0053499,0.22595314812500078,"{3: 2, 40: 1, 13: 1}","[3, 13, 40]",32131401,Li2Zr1Al1
Li2AlRh,mp-30820,0.0,3.86290476,0.05371851833333352,"{3: 2, 13: 1, 45: 1}","[3, 13, 45]",32131451,Li2Al1Rh1
Li2AlPd,mp-30816,0.0,4.29869488,0.0,"{3: 2, 13: 1, 46: 1}","[3, 13, 46]",32131461,Li2Al1Pd1
Li2AlAg,mp-31168,0.0,4.09973473,0.0,"{3: 2, 13: 1, 47: 1}","[3, 13, 47]",32131471,Li2Al1Ag1
Li2LaAl,mp-1093897,0.15510000000000002,-2.19499703,2.1216326377083323,"{3: 2, 57: 1, 13: 1}","[3, 13, 57]",32131571,Li2La1Al1
Li2CeAl,mp-865629,0.0,4.32716666,0.09590968333333372,"{3: 2, 58: 1, 13: 1}","[3, 13, 58]",32131581,Li2Ce1Al1
Li2PrAl,mp-861657,0.0,2.83378819,0.0,"{3: 2, 59: 1, 13: 1}","[3, 13, 59]",32131591,Li2Pr1Al1
Li2NdAl,mp-866178,0.0,2.7248269,0.0004588985416660307,"{3: 2, 60: 1, 13: 1}","[3, 13, 60]",32131601,Li2Nd1Al1
Li2PmAl,mp-862929,0.0,2.71673095,0.0,"{3: 2, 61: 1, 13: 1}","[3, 13, 61]",32131611,Li2Pm1Al1
Li2SmAl,mp-1184988,0.11039999999999983,2.68772823,0.01740685489583349,"{3: 2, 62: 1, 13: 1}","[3, 13, 62]",32131621,Li2Sm1Al1
Li2AlPt,mp-30818,0.0,5.19577874,0.0,"{3: 2, 13: 1, 78: 1}","[3, 13, 78]",32131781,Li2Al1Pt1
Li2AlAu,mp-1096348,0.7462999999999997,-2.24417633,1.3370010143749997,"{3: 2, 13: 1, 79: 1}","[3, 13, 79]",32131791,Li2Al1Au1
Li2AcAl,mp-1185001,0.0,4.00359617,0.020023434374998317,"{3: 2, 89: 1, 13: 1}","[3, 13, 89]",32131891,Li2Ac1Al1
Li2Si,mp-27705,0.0,3.11158216,0.04299721230158671,"{3: 2, 14: 1}","[3, 14]",32141,Li2Si1
Li2SiS3,mp-1210789,3.1776999999999997,4.80292489,0.0,"{3: 2, 14: 1, 16: 3}","[3, 14, 16]",32141163,Li2Si1S3
Li2SiSnS4,mp-1021497,1.9189000000000003,3.80801766,0.016868490312500484,"{3: 2, 14: 1, 50: 1, 16: 4}","[3, 14, 16, 50]",32141164501,Li2Si1Sn1S4
Li2In2SiS6,mp-1191903,2.4279999999999995,4.80132195,0.004144318636364552,"{3: 2, 49: 2, 14: 1, 16: 6}","[3, 14, 16, 49]",32141166492,Li2In2Si1S6
Li2CaSi,mp-865965,0.0,3.98448724,0.0,"{3: 2, 20: 1, 14: 1}","[3, 14, 20]",32141201,Li2Ca1Si1
Li2ZnSi,mp-571566,0.0,3.07497845,0.0,"{3: 2, 30: 1, 14: 1}","[3, 14, 30]",32141301,Li2Zn1Si1
Li2GaSi,mp-1222654,0.0,4.08445655,0.16211722361607128,"{3: 2, 31: 1, 14: 1}","[3, 14, 31]",32141311,Li2Ga1Si1
Li2In2SiSe6,mp-1191817,1.8159,3.65173884,0.007651633295454374,"{3: 2, 49: 2, 14: 1, 34: 6}","[3, 14, 34, 49]",32141346492,Li2In2Si1Se6
SrLi2Si,mp-1096762,0.19270000000000032,-2.55299091,1.6537126195833294,"{38: 1, 3: 2, 14: 1}","[3, 14, 38]",32141381,Sr1Li2Si1
Li2InSi,mp-1222655,0.0,5.19456714,0.19101179449404704,"{3: 2, 49: 1, 14: 1}","[3, 14, 49]",32141491,Li2In1Si1
Li2PmSi,mp-862946,0.0,4.31353257,0.0028136074053008997,"{3: 2, 61: 1, 14: 1}","[3, 14, 61]",32141611,Li2Pm1Si1
Li2SiAu,mp-1222602,0.0,4.53910823,0.0,"{3: 2, 14: 1, 79: 1}","[3, 14, 79]",32141791,Li2Si1Au1
Li2La2Si3,mp-1104121,0.0,6.6136202,0.0,"{3: 2, 57: 2, 14: 3}","[3, 14, 57]",32143572,Li2La2Si3
Li2Ce2Si3,mp-1210884,0.0,6.45645267,0.0,"{3: 2, 58: 2, 14: 3}","[3, 14, 58]",32143582,Li2Ce2Si3
Li2Pr2Si3,mp-1210780,0.0,4.66386285,0.0,"{3: 2, 59: 2, 14: 3}","[3, 14, 59]",32143592,Li2Pr2Si3
Li2Nd2Si3,mp-571109,0.0,4.65758307,0.0,"{3: 2, 60: 2, 14: 3}","[3, 14, 60]",32143602,Li2Nd2Si3
Li2Sm2Si3,mp-1210778,0.0,4.66176541,0.0,"{3: 2, 62: 2, 14: 3}","[3, 14, 62]",32143622,Li2Sm2Si3
Li2PS3,mp-38200,0.0,3.92317394,0.12146358490017395,"{3: 2, 15: 1, 16: 3}","[3, 15, 16]",32151163,Li2P1S3
Li2Ni(PS3)2,mp-775433,0.5457999999999998,3.39098398,0.02745398520605935,"{3: 2, 28: 1, 15: 2, 16: 6}","[3, 15, 16, 28]",32152166281,Li2Ni1P2S6
Li2ZnCdP2,mp-1222618,1.0652,2.8794251,0.0,"{3: 2, 30: 1, 48: 1, 15: 2}","[3, 15, 30, 48]",32152301481,Li2Zn1Cd1P2
Li2CeP2,mp-9912,0.8280999999999996,3.60558285,0.003737680500000451,"{3: 2, 58: 1, 15: 2}","[3, 15, 58]",32152581,Li2Ce1P2
Li2PrP2,mp-7777,0.0,2.83915004,0.14486422274999988,"{3: 2, 59: 1, 15: 2}","[3, 15, 59]",32152591,Li2Pr1P2
Li2Co12P7,mp-1191829,0.0,7.29679151,0.0,"{3: 2, 27: 12, 15: 7}","[3, 15, 27]",321572712,Li2Co12P7
Li2Ni12P7,mp-541010,0.0,8.6602192,0.0,"{3: 2, 28: 12, 15: 7}","[3, 15, 28]",321572812,Li2Ni12P7
Li2S,mp-1153,3.3862000000000005,0.7595844,0.0,"{3: 2, 16: 1}","[3, 16]",32161,Li2S1
Li2SbS2,mp-776356,1.4659,3.33800171,0.06873341275000033,"{3: 2, 51: 1, 16: 2}","[3, 16, 51]",32162511,Li2Sb1S2
Li2BiS2,mp-1178038,0.0,3.20521849,0.0934506000000006,"{3: 2, 83: 1, 16: 2}","[3, 16, 83]",32162831,Li2Bi1S2
Li2CrS3,mp-753632,0.0,3.45499002,0.03764398250000145,"{3: 2, 24: 1, 16: 3}","[3, 16, 24]",32163241,Li2Cr1S3
Li2Ni2S3,mp-849803,0.0,4.27141511,0.09625107476190387,"{3: 2, 28: 2, 16: 3}","[3, 16, 28]",32163282,Li2Ni2S3
Li2NbS3,mp-2492941,0.22740000000000027,3.91245187,0.05848360343567105,"{3: 2, 41: 1, 16: 3}","[3, 16, 41]",32163411,Li2Nb1S3
Li2SnS3,mp-1190364,1.4190999999999998,4.97719174,0.0006651347916664108,"{3: 2, 50: 1, 16: 3}","[3, 16, 50]",32163501,Li2Sn1S3
Li2TeS3,mp-558731,1.0825,3.22956619,0.0,"{3: 2, 52: 1, 16: 3}","[3, 16, 52]",32163521,Li2Te1S3
Li2BiS3,mp-768229,0.8880999999999997,3.34951698,0.06644885291666736,"{3: 2, 83: 1, 16: 3}","[3, 16, 83]",32163831,Li2Bi1S3
Li2US3,mp-15885,0.0,5.16305574,0.0,"{3: 2, 92: 1, 16: 3}","[3, 16, 92]",32163921,Li2U1S3
Li2VCrS4,mp-1222735,0.0,4.82627541,0.033670920178573205,"{3: 2, 23: 1, 24: 1, 16: 4}","[3, 16, 23, 24]",32164231241,Li2V1Cr1S4
Li2CrS4,mp-753833,0.0,3.65528662,0.0,"{3: 2, 24: 1, 16: 4}","[3, 16, 24]",32164241,Li2Cr1S4
Li2MnSnS4,mp-1105291,0.07069999999999999,2.98111695,0.0,"{3: 2, 25: 1, 50: 1, 16: 4}","[3, 16, 25, 50]",32164251501,Li2Mn1Sn1S4
Li2ZnGeS4,mp-1210804,2.1846,3.44060332,0.0,"{3: 2, 30: 1, 32: 1, 16: 4}","[3, 16, 30, 32]",32164301321,Li2Zn1Ge1S4
Li2ZnSnS4,mp-555186,2.3137,1.67984415,0.0,"{3: 2, 30: 1, 50: 1, 16: 4}","[3, 16, 30, 50]",32164301501,Li2Zn1Sn1S4
Li2CdGeS4,mp-1189383,2.2472,0.881518,0.0,"{3: 2, 48: 1, 32: 1, 16: 4}","[3, 16, 32, 48]",32164321481,Li2Cd1Ge1S4
Li2EuGeS4,mp-629443,0.20210000000000017,3.97579744,0.0,"{3: 2, 63: 1, 32: 1, 16: 4}","[3, 16, 32, 63]",32164321631,Li2Eu1Ge1S4
Li2GePbS4,mp-19896,2.2649000000000004,2.76233331,0.0,"{3: 2, 32: 1, 82: 1, 16: 4}","[3, 16, 32, 82]",32164321821,Li2Ge1Pb1S4
Li2Mo3S4,mp-675779,1.4366000000000003,5.66408108,0.0,"{3: 2, 42: 3, 16: 4}","[3, 16, 42]",32164423,Li2Mo3S4
Li2CdSnS4,mp-1188784,1.9513,1.35910547,0.0,"{3: 2, 48: 1, 50: 1, 16: 4}","[3, 16, 48, 50]",32164481501,Li2Cd1Sn1S4
Li2LuUS4,mp-1222743,0.0,5.75750583,0.03011306265625535,"{3: 2, 71: 1, 92: 1, 16: 4}","[3, 16, 71, 92]",32164711921,Li2Lu1U1S4
Li2WS4,mp-753195,1.9870999999999999,-0.53748393,0.0,"{3: 2, 74: 1, 16: 4}","[3, 16, 74]",32164741,Li2W1S4
Li2Ti2S5,mp-753863,1.1806999999999999,2.50898966,0.07035777638888252,"{3: 2, 22: 2, 16: 5}","[3, 16, 22]",32165222,Li2Ti2S5
Li2V2S5,mp-756394,0.0,3.68764571,0.09773226999999896,"{3: 2, 23: 2, 16: 5}","[3, 16, 23]",32165232,Li2V2S5
Li2(VS2)3,mp-756195,0.0,4.29410477,0.09553358272727142,"{3: 2, 23: 3, 16: 6}","[3, 16, 23]",32166233,Li2V3S6
Li2Ga2GeS6,mp-554782,2.1339,1.08515105,0.03543283130681729,"{3: 2, 31: 2, 32: 1, 16: 6}","[3, 16, 31, 32]",32166312321,Li2Ga2Ge1S6
Li2In2GeS6,mp-1191476,2.3229000000000006,1.95068718,0.013810205852274215,"{3: 2, 49: 2, 32: 1, 16: 6}","[3, 16, 32, 49]",32166321492,Li2In2Ge1S6
Li2(TaS2)3,mp-755664,0.0,5.47483838,0.0,"{3: 2, 73: 3, 16: 6}","[3, 16, 73]",32166733,Li2Ta3S6
Li2Zr6MnCl15,mp-1222826,1.1644,2.52055177,0.004630135763891374,"{3: 2, 40: 6, 25: 1, 17: 15}","[3, 17, 25, 40]",321715251406,Li2Zr6Mn1Cl15
CsLi2Cl3,mp-1190687,5.326,4.10848618,0.0,"{55: 1, 3: 2, 17: 3}","[3, 17, 55]",32173551,Cs1Li2Cl3
Li2VCl4,mp-36330,1.1057999999999995,3.03964297,0.001254277380949631,"{3: 2, 23: 1, 17: 4}","[3, 17, 23]",32174231,Li2V1Cl4
Li2CrCl4,mp-29582,0.5017999999999998,2.42360743,0.039407735000001054,"{3: 2, 24: 1, 17: 4}","[3, 17, 24]",32174241,Li2Cr1Cl4
Li2MnCl4,mp-34148,1.8782,1.38580544,0.0,"{3: 2, 25: 1, 17: 4}","[3, 17, 25]",32174251,Li2Mn1Cl4
Li2CoCl4,mp-34457,0.011200000000000099,1.67183874,0.09066513833333456,"{3: 2, 27: 1, 17: 4}","[3, 17, 27]",32174271,Li2Co1Cl4
Li2ZnCl4,mp-22961,4.1422,-0.29842552,0.0,"{3: 2, 30: 1, 17: 4}","[3, 17, 30]",32174301,Li2Zn1Cl4
Li2CdCl4,mp-38008,3.6296999999999997,-0.56892507,0.0009542835714277942,"{3: 2, 48: 1, 17: 4}","[3, 17, 48]",32174481,Li2Cd1Cl4
Cs3Li2Cl5,mp-570756,5.0892,-0.66491314,0.026562724500001522,"{55: 3, 3: 2, 17: 5}","[3, 17, 55]",32175553,Cs3Li2Cl5
Li2UCl6,mp-676749,0.19809999999999972,2.7076398,0.012092632222218569,"{3: 2, 92: 1, 17: 6}","[3, 17, 92]",32176921,Li2U1Cl6
Li21(CoO4)4,mp-850954,0.0,1.58643484,0.043556930792683524,"{3: 21, 27: 4, 8: 16}","[3, 8, 27]",321816274,Li21Co4O16
Li21(Co4O9)2,mp-850944,0.6675,1.90464838,0.10026815867021188,"{3: 21, 27: 8, 8: 18}","[3, 8, 27]",321818278,Li21Co8O18
Li21Mo11O32,mp-530102,0.008500000000000618,4.2987478,0.03384845685546356,"{3: 21, 42: 11, 8: 32}","[3, 8, 42]",3218324211,Li21Mo11O32
KLi2As,mp-28994,0.6878,0.93729651,0.0,"{19: 1, 3: 2, 33: 1}","[3, 19, 33]",32191331,K1Li2As1
Li2Ca,mp-570466,0.0,1.04029569,0.0,"{3: 2, 20: 1}","[3, 20]",32201,Li2Ca1
Li2CaGa,mp-1097331,0.0,-2.25789666,1.4754071752083338,"{3: 2, 20: 1, 31: 1}","[3, 20, 31]",32201311,Li2Ca1Ga1
Li2CaGe,mp-865986,0.1008,3.11093186,0.002683509583333077,"{3: 2, 20: 1, 32: 1}","[3, 20, 32]",32201321,Li2Ca1Ge1
SrLi2Ca,mp-1097486,0.5205,-2.24201302,1.2222377668749997,"{38: 1, 3: 2, 20: 1}","[3, 20, 38]",32201381,Sr1Li2Ca1
Li2CaCd,mp-1096283,0.0,-2.24435475,1.1869739512500006,"{3: 2, 20: 1, 48: 1}","[3, 20, 48]",32201481,Li2Ca1Cd1
Li2CaIn,mp-865890,0.0,3.05777062,0.0,"{3: 2, 20: 1, 49: 1}","[3, 20, 49]",32201491,Li2Ca1In1
Li2CaSn,mp-865964,0.0,4.40148646,0.0,"{3: 2, 20: 1, 50: 1}","[3, 20, 50]",32201501,Li2Ca1Sn1
Li2CaTl,mp-1185010,0.0,3.08080089,0.005285529999998317,"{3: 2, 20: 1, 81: 1}","[3, 20, 81]",32201811,Li2Ca1Tl1
Li2CaPb,mp-865892,0.0,4.40598119,0.0,"{3: 2, 20: 1, 82: 1}","[3, 20, 82]",32201821,Li2Ca1Pb1
Li2ScIn,mp-1184974,0.07179999999999964,4.30559501,0.013468868214285834,"{3: 2, 21: 1, 49: 1}","[3, 21, 49]",32211491,Li2Sc1In1
Li2ScTl,mp-1096746,0.0,-2.26543988,1.8474334541666657,"{3: 2, 21: 1, 81: 1}","[3, 21, 81]",32211811,Li2Sc1Tl1
Li22Si5,mp-542598,0.0,1.88999024,0.017131885709877004,"{3: 22, 14: 5}","[3, 14]",322145,Li22Si5
Li2TiBi,mp-1207195,0.0,4.8203341,0.4182886247222197,"{3: 2, 22: 1, 83: 1}","[3, 22, 83]",32221831,Li2Ti1Bi1
Li22(VSn)7,mp-1223227,0.0,3.20905511,0.3469570601388883,"{3: 22, 23: 7, 50: 7}","[3, 23, 50]",322237507,Li22V7Sn7
Li2VPb2,mp-1205909,0.0,5.34342002,0.41084105699999895,"{3: 2, 23: 1, 82: 2}","[3, 23, 82]",32231822,Li2V1Pb2
Li22Ge5,mp-1204063,0.0,2.65334275,0.014406307376543026,"{3: 22, 32: 5}","[3, 32]",322325,Li22Ge5
Li22Sn5,mp-1198729,0.0,3.25095094,0.010069883333333252,"{3: 22, 50: 5}","[3, 50]",322505,Li22Sn5
Li2MnBr4,mp-28250,1.7801,1.12594723,0.004526322857142162,"{3: 2, 25: 1, 35: 4}","[3, 25, 35]",32251354,Li2Mn1Br4
Li2CoSb,mp-1206748,0.0,4.88688417,0.37481654750000004,"{3: 2, 27: 1, 51: 1}","[3, 27, 51]",32271511,Li2Co1Sb1
Li22Pb5,mp-573651,0.0,2.38138104,0.008461113333332992,"{3: 22, 82: 5}","[3, 82]",322825,Li22Pb5
Li2La3Ni2Sn7,mp-1211827,0.0,8.14675883,0.2401549492857109,"{3: 2, 57: 3, 28: 2, 50: 7}","[3, 28, 50, 57]",32282507573,Li2La3Ni2Sn7
Li2ZnGa,mp-1096442,0.0,-2.25707097,1.3319983729687506,"{3: 2, 30: 1, 31: 1}","[3, 30, 31]",32301311,Li2Zn1Ga1
Li2ZnGe,mp-569115,0.0,2.11909014,0.0,"{3: 2, 30: 1, 32: 1}","[3, 30, 32]",32301321,Li2Zn1Ge1
Li2ZnGe3,mp-1222627,0.0,2.92548029,0.022006309166665794,"{3: 2, 30: 1, 32: 3}","[3, 30, 32]",32301323,Li2Zn1Ge3