formula,material_id,band_gap,efermi,energy_above_hull,comp_atoms,sorted_keys_comp_atoms,comp_number,new_formula
Li4Mn3WO8,mp-773363,0.7176,2.43707158,0.09225217468750024,"{3: 4, 25: 3, 74: 1, 8: 8}","[3, 8, 25, 74]",3488253741,Li4Mn3W1O8
Li4CoNi3O8,mp-867640,0.07279999999999998,3.63135562,0.005796829791667513,"{3: 4, 27: 1, 28: 3, 8: 8}","[3, 8, 27, 28]",3488271283,Li4Co1Ni3O8
Li4Co3NiO8,mp-867537,0.0,3.70916491,0.010239883125000127,"{3: 4, 27: 3, 28: 1, 8: 8}","[3, 8, 27, 28]",3488273281,Li4Co3Ni1O8
Li4NbCo3O8,mp-1273584,0.8083,2.71753006,0.06250718953126455,"{3: 4, 41: 1, 27: 3, 8: 8}","[3, 8, 27, 41]",3488273411,Li4Nb1Co3O8
Li4Co3SbO8,mp-1177495,0.0,3.98603059,0.1310094928124963,"{3: 4, 27: 3, 51: 1, 8: 8}","[3, 8, 27, 51]",3488273511,Li4Co3Sb1O8
Li4Co3TeO8,mp-772478,0.7389999999999999,4.19500392,0.050090658437500934,"{3: 4, 27: 3, 52: 1, 8: 8}","[3, 8, 27, 52]",3488273521,Li4Co3Te1O8
Li4Co3WO8,mp-754232,1.6459999999999995,3.15164775,0.04005421078124982,"{3: 4, 27: 3, 74: 1, 8: 8}","[3, 8, 27, 74]",3488273741,Li4Co3W1O8
Li4NbNi3O8,mp-754424,0.0,2.99831785,0.04628695505208302,"{3: 4, 41: 1, 28: 3, 8: 8}","[3, 8, 28, 41]",3488283411,Li4Nb1Ni3O8
Li4Ni3SnO8,mp-755496,0.0,3.73543875,0.01764860651041822,"{3: 4, 28: 3, 50: 1, 8: 8}","[3, 8, 28, 50]",3488283501,Li4Ni3Sn1O8
Li4Ni3SbO8,mp-1305992,0.034600000000000186,4.14637054,0.022306339895833638,"{3: 4, 28: 3, 51: 1, 8: 8}","[3, 8, 28, 51]",3488283511,Li4Ni3Sb1O8
Li4Ni3TeO8,mp-756871,0.6478999999999999,3.34790725,0.043624319062500305,"{3: 4, 28: 3, 52: 1, 8: 8}","[3, 8, 28, 52]",3488283521,Li4Ni3Te1O8
Li4Ni3WO8,mp-756537,2.0751,3.71998195,0.05178504906249959,"{3: 4, 28: 3, 74: 1, 8: 8}","[3, 8, 28, 74]",3488283741,Li4Ni3W1O8
Li4Ni3BiO8,mp-1290471,0.3278000000000003,3.62535787,0.007323497239583254,"{3: 4, 28: 3, 83: 1, 8: 8}","[3, 8, 28, 83]",3488283831,Li4Ni3Bi1O8
Li4Zr3O8,mp-765573,3.6980999999999997,0.99727922,0.04487603699999987,"{3: 4, 40: 3, 8: 8}","[3, 8, 40]",3488403,Li4Zr3O8
Li4Mo3O8,mp-566257,1.5854999999999997,2.72442187,0.049915935666663636,"{3: 4, 42: 3, 8: 8}","[3, 8, 42]",3488423,Li4Mo3O8
Li4Bi3O8,mp-769008,0.0,3.49405437,0.06689974349999517,"{3: 4, 83: 3, 8: 8}","[3, 8, 83]",3488833,Li4Bi3O8
Li4VP2(O4F)2,mp-782668,1.5804999999999998,0.80284748,0.024474681519607522,"{3: 4, 23: 1, 15: 2, 8: 8, 9: 2}","[3, 8, 9, 15, 23]",348892152231,Li4V1P2O8F2
Li4CrP2(O4F)2,mp-759047,3.5923000000000003,0.98033415,0.06331610306722002,"{3: 4, 24: 1, 15: 2, 8: 8, 9: 2}","[3, 8, 9, 15, 24]",348892152241,Li4Cr1P2O8F2
Na3Li4Mn5O9,mp-753127,0.0,1.8715536,0.10138887738095725,"{11: 3, 3: 4, 25: 5, 8: 9}","[3, 8, 11, 25]",3489113255,Na3Li4Mn5O9
Li4Mn(SiO3)3,mp-780578,1.8119999999999998,3.7648357,0.08304535367646348,"{3: 4, 25: 1, 14: 3, 8: 9}","[3, 8, 14, 25]",3489143251,Li4Mn1Si3O9
Li4Co(SiO3)3,mp-758369,2.6691,2.18766734,0.09262800735294086,"{3: 4, 27: 1, 14: 3, 8: 9}","[3, 8, 14, 27]",3489143271,Li4Co1Si3O9
Li4Si3NiO9,mp-766702,3.9817,2.17197628,0.0823168357352948,"{3: 4, 14: 3, 28: 1, 8: 9}","[3, 8, 14, 28]",3489143281,Li4Si3Ni1O9
Li4VP2O9,mp-758268,3.2250999999999994,0.64312629,0.07214360609374992,"{3: 4, 23: 1, 15: 2, 8: 9}","[3, 8, 15, 23]",3489152231,Li4V1P2O9
Li4CrP2O9,mp-26911,0.17589999999999995,1.33483628,0.04206077799106289,"{3: 4, 24: 1, 15: 2, 8: 9}","[3, 8, 15, 24]",3489152241,Li4Cr1P2O9
Li4MnP2O9,mp-757635,1.4716000000000002,1.19064176,0.02217796057291732,"{3: 4, 25: 1, 15: 2, 8: 9}","[3, 8, 15, 25]",3489152251,Li4Mn1P2O9
Li4MoP2O9,mp-504158,1.6212000000000002,1.78038867,0.04668491421874865,"{3: 4, 42: 1, 15: 2, 8: 9}","[3, 8, 15, 42]",3489152421,Li4Mo1P2O9
Li4VAs2O9,mp-1177164,2.9741,0.79496061,0.04515413546874658,"{3: 4, 23: 1, 33: 2, 8: 9}","[3, 8, 23, 33]",3489231332,Li4V1As2O9
Li4Ni5O9,mp-766892,0.0,4.01907885,0.015506800740744175,"{3: 4, 28: 5, 8: 9}","[3, 8, 28]",3489285,Li4Ni5O9
Li4V5O9F,mp-765807,1.3433000000000006,4.78032307,0.06246391190789424,"{3: 4, 23: 5, 8: 9, 9: 1}","[3, 8, 9, 23]",348991235,Li4V5O9F1
Li4Mn5O9F,mp-753850,0.6182000000000003,3.29905491,0.06560865500002411,"{3: 4, 25: 5, 8: 9, 9: 1}","[3, 8, 9, 25]",348991255,Li4Mn5O9F1
Li4Co5O9F,mp-755408,1.1535000000000002,3.68578603,0.0612400832565827,"{3: 4, 27: 5, 8: 9, 9: 1}","[3, 8, 9, 27]",348991275,Li4Co5O9F1
Li4V7O9F7,mp-867535,0.9028999999999998,2.50082485,0.09607540810185977,"{3: 4, 23: 7, 8: 9, 9: 7}","[3, 8, 9, 23]",348997237,Li4V7O9F7
Li4Mn7O9F7,mp-753956,0.4163999999999999,1.88724715,0.07506741203703182,"{3: 4, 25: 7, 8: 9, 9: 7}","[3, 8, 9, 25]",348997257,Li4Mn7O9F7
Li4Mn8O9F7,mp-765998,0.5307,2.49081897,0.07564562881695114,"{3: 4, 25: 8, 8: 9, 9: 7}","[3, 8, 9, 25]",348997258,Li4Mn8O9F7
Li4Ni8O9F7,mp-764792,0.0,2.42504186,0.06771188663689642,"{3: 4, 28: 8, 8: 9, 9: 7}","[3, 8, 9, 28]",348997288,Li4Ni8O9F7
Li4Mn3F10,mp-759565,2.7494,0.51076445,0.040738375882352074,"{3: 4, 25: 3, 9: 10}","[3, 9, 25]",34910253,Li4Mn3F10
Li4ZnIn2F12,mp-1222552,4.2884,3.12544723,0.006018624210524237,"{3: 4, 30: 1, 49: 2, 9: 12}","[3, 9, 30, 49]",34912301492,Li4Zn1In2F12
Na3Li4Th6F31,mp-558769,6.3088,-0.47133494,0.009313236136346603,"{11: 3, 3: 4, 90: 6, 9: 31}","[3, 9, 11, 90]",34931113906,Na3Li4Th6F31
Li4VF6,mp-857358,3.3874999999999997,1.41536867,0.055920096818179665,"{3: 4, 23: 1, 9: 6}","[3, 9, 23]",3496231,Li4V1F6
Li4CrF6,mp-753824,2.718,0.89811103,0.04250672590908966,"{3: 4, 24: 1, 9: 6}","[3, 9, 24]",3496241,Li4Cr1F6
Li4MnF6,mp-831158,4.9148,-0.41234509,0.03558958666666445,"{3: 4, 25: 1, 9: 6}","[3, 9, 25]",3496251,Li4Mn1F6
Li4VF7,mp-753113,0.0,-0.73527385,0.012621105416672052,"{3: 4, 23: 1, 9: 7}","[3, 9, 23]",3497231,Li4V1F7
Li4MnF7,mp-755600,1.5261,-1.40453501,0.025182329583334884,"{3: 4, 25: 1, 9: 7}","[3, 9, 25]",3497251,Li4Mn1F7
Li4VF8,mp-753340,1.9347,-1.96229408,0.05967128230768903,"{3: 4, 23: 1, 9: 8}","[3, 9, 23]",3498231,Li4V1F8
Li4MnF8,mp-756952,2.2371,-2.79606462,0.04615879666666434,"{3: 4, 25: 1, 9: 8}","[3, 9, 25]",3498251,Li4Mn1F8
Li4ZrF8,mp-9308,5.9638,-1.91507499,0.0,"{3: 4, 40: 1, 9: 8}","[3, 9, 40]",3498401,Li4Zr1F8
Li4TbF8,mp-505089,0.0,-2.73892081,0.012038368653845666,"{3: 4, 65: 1, 9: 8}","[3, 9, 65]",3498651,Li4Tb1F8
Li4UF8,mp-14169,0.33740000000000014,3.0270589,0.026928188653849716,"{3: 4, 92: 1, 9: 8}","[3, 9, 92]",3498921,Li4U1F8
Li4V2F9,mp-863369,0.9705999999999999,1.34241693,0.03704374533333077,"{3: 4, 23: 2, 9: 9}","[3, 9, 23]",3499232,Li4V2F9
NaLi5Sn4,mp-27368,0.0,4.20428513,0.08292859395833307,"{11: 1, 3: 5, 50: 4}","[3, 11, 50]",35111504,Na1Li5Sn4
Na2Li5Sn4,mp-570946,0.0,3.3241017,0.08938600931818153,"{11: 2, 3: 5, 50: 4}","[3, 11, 50]",35112504,Na2Li5Sn4
Li5Mg,mp-977122,0.0,0.41439058,0.002494519722222588,"{3: 5, 12: 1}","[3, 12]",35121,Li5Mg1
Li5SiP3,mp-685991,1.1936,2.11271994,0.0,"{3: 5, 14: 1, 15: 3}","[3, 14, 15]",35141153,Li5Si1P3
Li5SiAs3,mp-38407,0.0,2.02107527,0.023106022592592534,"{3: 5, 14: 1, 33: 3}","[3, 14, 33]",35141333,Li5Si1As3
Li5P(S2Cl)2,mp-1040450,2.7792999999999997,1.38900309,0.016265411875000524,"{3: 5, 15: 1, 16: 4, 17: 2}","[3, 15, 16, 17]",35151164172,Li5P1S4Cl2
Li5TiP3,mp-675800,0.5897999999999999,2.0216705,0.028077809583332503,"{3: 5, 22: 1, 15: 3}","[3, 15, 22]",35153221,Li5Ti1P3
Li5GeP3,mp-674531,0.5208000000000002,1.98209625,0.01001658722222265,"{3: 5, 32: 1, 15: 3}","[3, 15, 32]",35153321,Li5Ge1P3
Li5SnP3,mp-675621,0.0,2.77299432,0.012936335555556067,"{3: 5, 50: 1, 15: 3}","[3, 15, 50]",35153501,Li5Sn1P3
Li5Ni9P7,mp-1211138,0.0,6.95978,0.0,"{3: 5, 28: 9, 15: 7}","[3, 15, 28]",35157289,Li5Ni9P7
Li5(NbS2)7,mp-767171,0.0,4.79629616,0.0,"{3: 5, 41: 7, 16: 14}","[3, 16, 41]",351614417,Li5Nb7S14
Li5SbS,mp-767409,0.5867,3.29191122,0.053286801428571895,"{3: 5, 51: 1, 16: 1}","[3, 16, 51]",35161511,Li5Sb1S1
Li5Mo15S19,mp-1198026,0.0,5.02621718,0.04017405967948662,"{3: 5, 42: 15, 16: 19}","[3, 16, 42]",3516194215,Li5Mo15S19
Li5SbS3I2,mp-559814,2.5078999999999994,1.59688935,0.0,"{3: 5, 51: 1, 16: 3, 53: 2}","[3, 16, 51, 53]",35163511532,Li5Sb1S3I2
Li5CrS4,mp-752529,0.9084999999999996,2.17318546,0.09830824400000093,"{3: 5, 24: 1, 16: 4}","[3, 16, 24]",35164241,Li5Cr1S4
Li5SbS4,mp-756427,1.3595000000000002,2.73846857,0.051247167499997914,"{3: 5, 51: 1, 16: 4}","[3, 16, 51]",35164511,Li5Sb1S4
Li5BiS4,mp-755139,2.0577,2.32467656,0.045051347999999436,"{3: 5, 83: 1, 16: 4}","[3, 16, 83]",35164831,Li5Bi1S4
Li5V5Cl16,mp-532443,0.0,2.59226614,0.0005201180769258684,"{3: 5, 23: 5, 17: 16}","[3, 17, 23]",351716235,Li5V5Cl16
Li5CrCl8,mp-23361,1.7483,0.85490488,0.0,"{3: 5, 24: 1, 17: 8}","[3, 17, 24]",35178241,Li5Cr1Cl8
Li5Ca7Sn11,mp-672336,0.0,4.39772609,0.04173740130434744,"{3: 5, 20: 7, 50: 11}","[3, 20, 50]",352075011,Li5Ca7Sn11
Li5TiAs3,mp-677039,0.5890999999999997,2.12675425,0.005623737777778359,"{3: 5, 22: 1, 33: 3}","[3, 22, 33]",35221333,Li5Ti1As3
Li5Ni9As7,mp-1211146,0.0,5.79685493,0.0,"{3: 5, 28: 9, 33: 7}","[3, 28, 33]",35289337,Li5Ni9As7
Li5Ga4,mp-1205930,0.0,2.36807394,0.0,"{3: 5, 31: 4}","[3, 31]",35314,Li5Ga4
Li5GeAs3,mp-675964,0.0,1.56306619,0.021327660385801472,"{3: 5, 32: 1, 33: 3}","[3, 32, 33]",35321333,Li5Ge1As3
Li5TlIn,mp-1222587,0.0,2.9775723,0.006550640714282352,"{3: 5, 81: 1, 49: 1}","[3, 49, 81]",35491811,Li5Tl1In1
Li5In4,mp-1079408,0.0,4.79787504,0.0,"{3: 5, 49: 4}","[3, 49]",35494,Li5In4
Li5Sn2,mp-30766,0.0,3.74070797,0.0,"{3: 5, 50: 2}","[3, 50]",35502,Li5Sn2
Li5B(SO4)4,mp-1020018,6.108199999999999,0.01920278,0.008201061346151839,"{3: 5, 5: 1, 16: 4, 8: 16}","[3, 5, 8, 16]",3551816164,Li5B1S4O16
Li5BO4,mp-768960,5.4569,2.02907649,0.04684860387500045,"{3: 5, 5: 1, 8: 4}","[3, 5, 8]",355184,Li5B1O4
CsLi5(BO3)2,mp-555082,3.9878,0.4275798,0.0,"{55: 1, 3: 5, 5: 2, 8: 6}","[3, 5, 8, 55]",355286551,Cs1Li5B2O6
Na4Li5(BO3)3,mp-558455,3.8255,0.80016835,0.0,"{11: 4, 3: 5, 5: 3, 8: 9}","[3, 5, 8, 11]",355389114,Na4Li5B3O9
Li5B4,mp-632822,0.0,2.64043383,0.3468927462962963,"{3: 5, 5: 4}","[3, 5]",3554,Li5B4
Li5Mn3(BO3)4,mp-766500,0.0,2.3005376,0.0401604481250013,"{3: 5, 25: 3, 5: 4, 8: 12}","[3, 5, 8, 25]",3554812253,Li5Mn3B4O12
Li5Co4(BO3)4,mp-1177143,0.7533999999999996,3.27673424,0.20310550079999778,"{3: 5, 27: 4, 5: 4, 8: 12}","[3, 5, 8, 27]",3554812274,Li5Co4B4O12
Li5Zn4(BO3)4,mp-756306,0.0,4.03055021,0.10920502754999983,"{3: 5, 30: 4, 5: 4, 8: 12}","[3, 5, 8, 30]",3554812304,Li5Zn4B4O12
Li5Bi2(BO3)4,mp-768452,0.0,1.35380755,0.041779421793474825,"{3: 5, 83: 2, 5: 4, 8: 12}","[3, 5, 8, 83]",3554812832,Li5Bi2B4O12
Li5Mn6(BO3)6,mp-780308,2.7241,2.18763002,0.028903764500002538,"{3: 5, 25: 6, 5: 6, 8: 18}","[3, 5, 8, 25]",3556818256,Li5Mn6B6O18
Li5B7S13,mp-532413,3.3927000000000005,6.04523788,0.0,"{3: 5, 5: 7, 16: 13}","[3, 5, 16]",35571613,Li5B7S13
Rb2Li5(BO2)7,mp-1020664,4.2036999999999995,0.3780953,0.007860332172624496,"{37: 2, 3: 5, 5: 7, 8: 14}","[3, 5, 8, 37]",3557814372,Rb2Li5B7O14
Cs2Li5(BO2)7,mp-1019607,3.9804999999999997,0.70037292,0.003907451617063629,"{55: 2, 3: 5, 5: 7, 8: 14}","[3, 5, 8, 55]",3557814552,Cs2Li5B7O14
Li5Ca9B7O21F2,mp-1197163,4.2,5.62989143,0.002138624220786589,"{3: 5, 20: 9, 5: 7, 8: 21, 9: 2}","[3, 5, 8, 9, 20]",355782192209,Li5Ca9B7O21F2
Li5Mn8(BO3)8,mp-777359,0.0,1.75384606,0.06057474394445528,"{3: 5, 25: 8, 5: 8, 8: 24}","[3, 5, 8, 25]",3558824258,Li5Mn8B8O24
NaLi5Mn2P2(CO7)2,mp-772652,3.5994999999999995,2.05263115,0.046917933012834645,"{11: 1, 3: 5, 25: 2, 15: 2, 6: 2, 8: 14}","[3, 6, 8, 11, 15, 25]",3562814111152252,Na1Li5Mn2P2C2O14
Li5Cr2P2(CO7)2,mp-1177167,1.0114,2.78798967,0.054431542162503455,"{3: 5, 24: 2, 15: 2, 6: 2, 8: 14}","[3, 6, 8, 15, 24]",3562814152242,Li5Cr2P2C2O14
Li5Mn2P2(CO7)2,mp-755033,0.0,1.55435597,0.03646201465555077,"{3: 5, 25: 2, 15: 2, 6: 2, 8: 14}","[3, 6, 8, 15, 25]",3562814152252,Li5Mn2P2C2O14
Li5V(CO3)4,mp-765146,2.7054,1.16200757,0.0521595167045481,"{3: 5, 23: 1, 6: 4, 8: 12}","[3, 6, 8, 23]",3564812231,Li5V1C4O12
Li5Cr(CO3)4,mp-1177153,2.0518,0.84077564,0.06426086693181698,"{3: 5, 24: 1, 6: 4, 8: 12}","[3, 6, 8, 24]",3564812241,Li5Cr1C4O12
Li5Mn(CO3)4,mp-765023,1.0552000000000001,0.73300992,0.050239461590912526,"{3: 5, 25: 1, 6: 4, 8: 12}","[3, 6, 8, 25]",3564812251,Li5Mn1C4O12
Li5NCl2,mp-29151,1.9819,2.5123951,9.383750000147018e-06,"{3: 5, 7: 1, 17: 2}","[3, 7, 17]",3571172,Li5N1Cl2
Li5La5(SiN3)4,mp-1202424,2.5229,5.97617479,0.0,"{3: 5, 57: 5, 14: 4, 7: 12}","[3, 7, 14, 57]",35712144575,Li5La5Si4N12
Li5Ce5(SiN3)4,mp-1205196,0.0,7.72793054,0.05592799326923803,"{3: 5, 58: 5, 14: 4, 7: 12}","[3, 7, 14, 58]",35712144585,Li5Ce5Si4N12
Li5Br2N,mp-29025,2.0781,0.87977351,0.0,"{3: 5, 35: 2, 7: 1}","[3, 7, 35]",3571352,Li5Br2N1
Li5WNO4,mp-772397,3.2687000000000004,0.88742481,0.03465361626721997,"{3: 5, 74: 1, 7: 1, 8: 4}","[3, 7, 8, 74]",357184741,Li5W1N1O4
NaLi5N2,mp-569525,0.3542,0.38683734,0.0757878409386965,"{11: 1, 3: 5, 7: 2}","[3, 7, 11]",3572111,Na1Li5N2
Li5SiN3,mp-686208,2.1597999999999997,3.66506016,0.0,"{3: 5, 14: 1, 7: 3}","[3, 7, 14]",3573141,Li5Si1N3
Li5TiN3,mp-686129,1.5392000000000001,2.42545318,0.0,"{3: 5, 22: 1, 7: 3}","[3, 7, 22]",3573221,Li5Ti1N3
Li5(NiN)3,mp-7080,0.0,3.23053149,0.0,"{3: 5, 28: 3, 7: 3}","[3, 7, 28]",3573283,Li5Ni3N3
Li5GeN3,mp-531553,0.00140000000000029,4.21692089,0.0,"{3: 5, 32: 1, 7: 3}","[3, 7, 32]",3573321,Li5Ge1N3
Li5ReN4,mp-3838,2.8473,1.08375189,0.0,"{3: 5, 75: 1, 7: 4}","[3, 7, 75]",3574751,Li5Re1N4
Li5OsN4,mp-1029448,0.0,3.35105778,0.0,"{3: 5, 76: 1, 7: 4}","[3, 7, 76]",3574761,Li5Os1N4
Li5P2N5,mp-530933,3.5008000000000004,3.65639917,0.009697080677084635,"{3: 5, 15: 2, 7: 5}","[3, 7, 15]",3575152,Li5P2N5
Li5Al(Co2O5)2,mp-1222628,0.0,2.64440902,0.11633009537500083,"{3: 5, 13: 1, 27: 4, 8: 10}","[3, 8, 13, 27]",35810131274,Li5Al1Co4O10
Li5Co2(SiO5)2,mp-849671,0.6486999999999999,0.82924858,0.1339507504605244,"{3: 5, 27: 2, 14: 2, 8: 10}","[3, 8, 14, 27]",35810142272,Li5Co2Si2O10
Li5Ti2V3O10,mp-760954,0.29849999999999977,5.07172638,0.014795043875001745,"{3: 5, 22: 2, 23: 3, 8: 10}","[3, 8, 22, 23]",35810222233,Li5Ti2V3O10
Li5Ti2Mn3O10,mp-1311067,1.2347000000000006,3.16702308,0.02966412099999527,"{3: 5, 22: 2, 25: 3, 8: 10}","[3, 8, 22, 25]",35810222253,Li5Ti2Mn3O10
Li5Ti2Co3O10,mp-761142,0.4417,4.22855938,0.037903091750001394,"{3: 5, 22: 2, 27: 3, 8: 10}","[3, 8, 22, 27]",35810222273,Li5Ti2Co3O10
Li5Ti2Ni3O10,mp-755014,0.5196000000000001,3.59687473,0.014683742666665722,"{3: 5, 22: 2, 28: 3, 8: 10}","[3, 8, 22, 28]",35810222283,Li5Ti2Ni3O10
Li5Mn3V2O10,mp-756863,0.0,4.19996128,0.04991058512499791,"{3: 5, 25: 3, 23: 2, 8: 10}","[3, 8, 23, 25]",35810232253,Li5Mn3V2O10
Li5V2Co3O10,mp-755050,0.04490000000000016,3.0238778,0.12294584060714175,"{3: 5, 23: 2, 27: 3, 8: 10}","[3, 8, 23, 27]",35810232273,Li5V2Co3O10
Li5V2Ni3O10,mp-781051,0.3066,3.84199023,0.06922548975000087,"{3: 5, 23: 2, 28: 3, 8: 10}","[3, 8, 23, 28]",35810232283,Li5V2Ni3O10
Li5V3Cr2O10,mp-756826,1.7064,3.51009367,0.03637391224999753,"{3: 5, 23: 3, 24: 2, 8: 10}","[3, 8, 23, 24]",35810233242,Li5V3Cr2O10
Li5Mn2V3O10,mp-754473,0.4969999999999999,4.22995938,0.08210773899998447,"{3: 5, 25: 2, 23: 3, 8: 10}","[3, 8, 23, 25]",35810233252,Li5Mn2V3O10
Li5V3(CoO5)2,mp-757281,1.0024000000000002,3.39629628,0.14231641517857518,"{3: 5, 23: 3, 27: 2, 8: 10}","[3, 8, 23, 27]",35810233272,Li5V3Co2O10
Li5V3(NiO5)2,mp-755845,1.3068,4.62564938,0.09541419750000202,"{3: 5, 23: 3, 28: 2, 8: 10}","[3, 8, 23, 28]",35810233282,Li5V3Ni2O10
Li5Nb2V3O10,mp-754421,0.0,4.93898926,0.07069393475000041,"{3: 5, 41: 2, 23: 3, 8: 10}","[3, 8, 23, 41]",35810233412,Li5Nb2V3O10
Li5Mn3Cr2O10,mp-752479,0.5053000000000001,3.83993536,0.07173054109999732,"{3: 5, 25: 3, 24: 2, 8: 10}","[3, 8, 24, 25]",35810242253,Li5Mn3Cr2O10
Li5Cr2Co3O10,mp-1666930,0.4173,2.86571691,0.09063310349999831,"{3: 5, 24: 2, 27: 3, 8: 10}","[3, 8, 24, 27]",35810242273,Li5Cr2Co3O10
Li5Cr2Ni3O10,mp-756855,0.0,3.20559094,0.04491908312499859,"{3: 5, 24: 2, 28: 3, 8: 10}","[3, 8, 24, 28]",35810242283,Li5Cr2Ni3O10
Li5Mn(Ni2O5)2,mp-850209,0.0,3.26376098,0.016416010249999502,"{3: 5, 25: 1, 28: 4, 8: 10}","[3, 8, 25, 28]",35810251284,Li5Mn1Ni4O10
Li5Mn2Co(NiO5)2,mp-1222667,1.0403000000000002,4.0032671,0.03764678900000362,"{3: 5, 25: 2, 27: 1, 28: 2, 8: 10}","[3, 8, 25, 27, 28]",35810252271282,Li5Mn2Co1Ni2O10
Li5Mn2Co3O10,mp-861490,0.7991000000000001,3.37577322,0.06455600924999683,"{3: 5, 25: 2, 27: 3, 8: 10}","[3, 8, 25, 27]",35810252273,Li5Mn2Co3O10
Li5Mn2Ni3O10,mp-754927,0.18159999999999998,2.93893339,0.014908443166664398,"{3: 5, 25: 2, 28: 3, 8: 10}","[3, 8, 25, 28]",35810252283,Li5Mn2Ni3O10
Li5Mn3(CoO5)2,mp-753328,0.5842999999999998,2.89937234,0.07847256299999561,"{3: 5, 25: 3, 27: 2, 8: 10}","[3, 8, 25, 27]",35810253272,Li5Mn3Co2O10
Li5Mn3(NiO5)2,mp-755837,0.4676999999999998,3.64443475,0.07499200924999982,"{3: 5, 25: 3, 28: 2, 8: 10}","[3, 8, 25, 28]",35810253282,Li5Mn3Ni2O10
Li5Mn3Nb2O10,mp-755123,0.18710000000000004,4.27800225,0.0759496543124989,"{3: 5, 25: 3, 41: 2, 8: 10}","[3, 8, 25, 41]",35810253412,Li5Mn3Nb2O10
Li5Mn3(SnO5)2,mp-755397,0.030999999999999694,5.22796879,0.017003293750002868,"{3: 5, 25: 3, 50: 2, 8: 10}","[3, 8, 25, 50]",35810253502,Li5Mn3Sn2O10
Li5Mn3(SbO5)2,mp-1667016,0.9025999999999996,4.68101682,0.06728344825000132,"{3: 5, 25: 3, 51: 2, 8: 10}","[3, 8, 25, 51]",35810253512,Li5Mn3Sb2O10
Li5Co(Ni2O5)2,mp-1222736,0.0,3.29416174,0.0658994944999991,"{3: 5, 27: 1, 28: 4, 8: 10}","[3, 8, 27, 28]",35810271284,Li5Co1Ni4O10
Li5Co2Ni3O10,mp-755607,0.0,3.72895564,0.011035912166663664,"{3: 5, 27: 2, 28: 3, 8: 10}","[3, 8, 27, 28]",35810272283,Li5Co2Ni3O10
Li5Co3(NiO5)2,mp-755076,0.5467999999999997,2.91010586,0.09749924400000065,"{3: 5, 27: 3, 28: 2, 8: 10}","[3, 8, 27, 28]",35810273282,Li5Co3Ni2O10
Li5Nb2Co3O10,mp-757125,0.4444999999999997,4.66180215,0.09281876149999935,"{3: 5, 41: 2, 27: 3, 8: 10}","[3, 8, 27, 41]",35810273412,Li5Nb2Co3O10
Li5Co3(SnO5)2,mp-757112,0.3422999999999998,3.90535049,0.065278951999999,"{3: 5, 27: 3, 50: 2, 8: 10}","[3, 8, 27, 50]",35810273502,Li5Co3Sn2O10
Li5Co3(SbO5)2,mp-755267,0.2193000000000005,5.64606772,0.06732969681250012,"{3: 5, 27: 3, 51: 2, 8: 10}","[3, 8, 27, 51]",35810273512,Li5Co3Sb2O10
Li5Co4NiO10,mp-1222861,0.0,2.63050176,0.10708905450000028,"{3: 5, 27: 4, 28: 1, 8: 10}","[3, 8, 27, 28]",35810274281,Li5Co4Ni1O10
Li5Nb2Ni3O10,mp-755736,0.0,5.2715813,0.08858942243749901,"{3: 5, 41: 2, 28: 3, 8: 10}","[3, 8, 28, 41]",35810283412,Li5Nb2Ni3O10
Li5Ni3(SnO5)2,mp-1312304,0.6194999999999999,3.84120145,0.010530371666669147,"{3: 5, 28: 3, 50: 2, 8: 10}","[3, 8, 28, 50]",35810283502,Li5Ni3Sn2O10
Li5Ni3(SbO5)2,mp-757079,0.23219999999999974,6.07624543,0.0915628323571438,"{3: 5, 28: 3, 51: 2, 8: 10}","[3, 8, 28, 51]",35810283512,Li5Ni3Sb2O10
Li5VP3O11,mp-757557,3.0128999999999997,3.36485834,0.053869149078126455,"{3: 5, 23: 1, 15: 3, 8: 11}","[3, 8, 15, 23]",35811153231,Li5V1P3O11
Li5MnP3O11,mp-757746,4.1628,1.76854007,0.05398876437498057,"{3: 5, 25: 1, 15: 3, 8: 11}","[3, 8, 15, 25]",35811153251,Li5Mn1P3O11
Li5NiP3O11,mp-859097,3.5265000000000004,1.54548829,0.050465069874987556,"{3: 5, 28: 1, 15: 3, 8: 11}","[3, 8, 15, 28]",35811153281,Li5Ni1P3O11
Li5Cl3O,mp-1106359,3.4788,0.7862806,0.1454505177777783,"{3: 5, 17: 3, 8: 1}","[3, 8, 17]",3581173,Li5Cl3O1
Li5Tl2,mp-12283,0.0,2.94187699,0.0,"{3: 5, 81: 2}","[3, 81]",35812,Li5Tl2
Li5Cr(SiO3)4,mp-1177439,0.0,3.90725725,0.0713517842803082,"{3: 5, 24: 1, 14: 4, 8: 12}","[3, 8, 14, 24]",35812144241,Li5Cr1Si4O12
Li5Mn(SiO3)4,mp-774496,0.04510000000000014,2.81937596,0.09294612040198658,"{3: 5, 25: 1, 14: 4, 8: 12}","[3, 8, 14, 25]",35812144251,Li5Mn1Si4O12
Li5V(PO4)3,mp-758424,1.5841,1.29673779,0.09273786345238744,"{3: 5, 23: 1, 15: 3, 8: 12}","[3, 8, 15, 23]",35812153231,Li5V1P3O12
Li5Mn2(PO4)3,mp-849398,4.1097,1.99555347,0.039176768068180046,"{3: 5, 25: 2, 15: 3, 8: 12}","[3, 8, 15, 25]",35812153252,Li5Mn2P3O12
Li5Co2(PO4)3,mp-780435,2.7403999999999997,1.77749457,0.303096140568182,"{3: 5, 27: 2, 15: 3, 8: 12}","[3, 8, 15, 27]",35812153272,Li5Co2P3O12
Li5Ni2(PO4)3,mp-777338,3.8190999999999997,1.89254665,0.04890068636363232,"{3: 5, 28: 2, 15: 3, 8: 12}","[3, 8, 15, 28]",35812153282,Li5Ni2P3O12
Li5Ti2V5O12,mp-754301,0.17720000000000002,5.39401726,0.045778945833336415,"{3: 5, 22: 2, 23: 5, 8: 12}","[3, 8, 22, 23]",35812222235,Li5Ti2V5O12