formula,material_id,band_gap,efermi,energy_above_hull,comp_atoms,sorted_keys_comp_atoms,comp_number,new_formula
Li4Mn5Cr(PO4)6,mp-759645,0.3167,2.30632189,0.07310772740277649,"{3: 4, 25: 5, 24: 1, 15: 6, 8: 24}","[3, 8, 15, 24, 25]",34824156241255,Li4Mn5Cr1P6O24
Li4CrCo2Ni3(PO4)6,mp-776777,2.9872,1.77947624,0.09271248721875658,"{3: 4, 24: 1, 27: 2, 28: 3, 15: 6, 8: 24}","[3, 8, 15, 24, 27, 28]",34824156241272283,Li4Cr1Co2Ni3P6O24
Li4CrNi5(PO4)6,mp-759831,2.425,2.05039823,0.08814332808928871,"{3: 4, 24: 1, 28: 5, 15: 6, 8: 24}","[3, 8, 15, 24, 28]",34824156241285,Li4Cr1Ni5P6O24
Li4Mn3NbCr2(PO4)6,mp-776566,0.0,4.17830887,0.10058025238393498,"{3: 4, 25: 3, 41: 1, 24: 2, 15: 6, 8: 24}","[3, 8, 15, 24, 25, 41]",34824156242253411,Li4Mn3Nb1Cr2P6O24
Li4Mn3Cr2Sn(PO4)6,mp-1177389,1.915,2.67220965,0.1012289915416611,"{3: 4, 25: 3, 24: 2, 50: 1, 15: 6, 8: 24}","[3, 8, 15, 24, 25, 50]",34824156242253501,Li4Mn3Cr2Sn1P6O24
Li4Cr2Ni3Sn(PO4)6,mp-778614,1.4918,3.21958211,0.10554315162499694,"{3: 4, 24: 2, 28: 3, 50: 1, 15: 6, 8: 24}","[3, 8, 15, 24, 28, 50]",34824156242283501,Li4Cr2Ni3Sn1P6O24
Li4Cr7(PO4)6,mp-777610,1.7957,4.9945556,0.06481616068597518,"{3: 4, 24: 7, 15: 6, 8: 24}","[3, 8, 15, 24]",34824156247,Li4Cr7P6O24
Li4MnNi5(PO4)6,mp-1177336,0.4596,2.08784791,0.08765225910415886,"{3: 4, 25: 1, 28: 5, 15: 6, 8: 24}","[3, 8, 15, 25, 28]",34824156251285,Li4Mn1Ni5P6O24
Li4Mn2NbNi3(PO4)6,mp-776611,0.4878999999999998,4.33797404,0.09841106818750678,"{3: 4, 25: 2, 41: 1, 28: 3, 15: 6, 8: 24}","[3, 8, 15, 25, 28, 41]",34824156252283411,Li4Mn2Nb1Ni3P6O24
Li4Mn2Ni3Sn(PO4)6,mp-1177518,0.49839999999999973,3.36008417,0.07388917453125465,"{3: 4, 25: 2, 28: 3, 50: 1, 15: 6, 8: 24}","[3, 8, 15, 25, 28, 50]",34824156252283501,Li4Mn2Ni3Sn1P6O24
Li4Mn3Ni3(PO4)6,mp-775926,0.3022999999999998,2.87106433,0.07146914537499693,"{3: 4, 25: 3, 28: 3, 15: 6, 8: 24}","[3, 8, 15, 25, 28]",34824156253283,Li4Mn3Ni3P6O24
Li4Mn5Co(PO4)6,mp-760813,0.4950000000000001,2.2093922,0.07047818656249305,"{3: 4, 25: 5, 27: 1, 15: 6, 8: 24}","[3, 8, 15, 25, 27]",34824156255271,Li4Mn5Co1P6O24
Li4Mn5Ni(PO4)6,mp-867956,0.0,2.34902202,0.0649285068749963,"{3: 4, 25: 5, 28: 1, 15: 6, 8: 24}","[3, 8, 15, 25, 28]",34824156255281,Li4Mn5Ni1P6O24
Li4Mn5Sn(PO4)6,mp-850367,2.0280000000000005,2.56791884,0.08142518415625144,"{3: 4, 25: 5, 50: 1, 15: 6, 8: 24}","[3, 8, 15, 25, 50]",34824156255501,Li4Mn5Sn1P6O24
Li4Mn5Sb(PO4)6,mp-1177350,0.016899999999999693,2.37138728,0.09858739675000905,"{3: 4, 25: 5, 51: 1, 15: 6, 8: 24}","[3, 8, 15, 25, 51]",34824156255511,Li4Mn5Sb1P6O24
Li4Mn5P6WO24,mp-771110,2.4972,2.22580103,0.08088146959374676,"{3: 4, 25: 5, 15: 6, 74: 1, 8: 24}","[3, 8, 15, 25, 74]",34824156255741,Li4Mn5P6W1O24
Li4Mn7(PO4)6,mp-849324,2.9772999999999996,2.65529243,0.05502161463414712,"{3: 4, 25: 7, 15: 6, 8: 24}","[3, 8, 15, 25]",34824156257,Li4Mn7P6O24
Li4CoNi5(PO4)6,mp-774312,1.2129999999999996,2.1029102,0.09508954724999974,"{3: 4, 27: 1, 28: 5, 15: 6, 8: 24}","[3, 8, 15, 27, 28]",34824156271285,Li4Co1Ni5P6O24
Li4Co2Ni3Sn(PO4)6,mp-776757,2.5987000000000005,2.29666863,0.13913712046874593,"{3: 4, 27: 2, 28: 3, 50: 1, 15: 6, 8: 24}","[3, 8, 15, 27, 28, 50]",34824156272283501,Li4Co2Ni3Sn1P6O24
Li4Co3Ni3(PO4)6,mp-766568,0.0,2.07147365,0.1522321923749974,"{3: 4, 27: 3, 28: 3, 15: 6, 8: 24}","[3, 8, 15, 27, 28]",34824156273283,Li4Co3Ni3P6O24
Li4Ni5Sn(PO4)6,mp-758677,1.7132999999999998,2.50563831,0.08520093984374721,"{3: 4, 28: 5, 50: 1, 15: 6, 8: 24}","[3, 8, 15, 28, 50]",34824156285501,Li4Ni5Sn1P6O24
Li4Ni5Te(PO4)6,mp-774836,2.7140999999999997,2.71345574,0.0958036406250331,"{3: 4, 28: 5, 52: 1, 15: 6, 8: 24}","[3, 8, 15, 28, 52]",34824156285521,Li4Ni5Te1P6O24
Li4Ni7(PO4)6,mp-32384,3.0377,6.08022927,0.046958249756107406,"{3: 4, 28: 7, 15: 6, 8: 24}","[3, 8, 15, 28]",34824156287,Li4Ni7P6O24
Li4NbIn3(PO4)6,mp-781789,2.693,1.5360922,0.005699827960521375,"{3: 4, 41: 1, 49: 3, 15: 6, 8: 24}","[3, 8, 15, 41, 49]",34824156411493,Li4Nb1In3P6O24
Li4Ti11O24,mp-766548,2.2908,1.79863045,0.04418323057691964,"{3: 4, 22: 11, 8: 24}","[3, 8, 22]",348242211,Li4Ti11O24
Li4Mn13O24,mp-698705,0.0,2.82889778,0.029626181502043103,"{3: 4, 25: 13, 8: 24}","[3, 8, 25]",348242513,Li4Mn13O24
Li4La5Ti6Nb2O26,mp-766091,0.0,6.55606492,0.04901829509690181,"{3: 4, 57: 5, 22: 6, 41: 2, 8: 26}","[3, 8, 22, 41, 57]",34826226412575,Li4La5Ti6Nb2O26
Li4MnV3(P2O7)4,mp-777395,0.4958,1.692518,0.0,"{3: 4, 25: 1, 23: 3, 15: 8, 8: 28}","[3, 8, 15, 23, 25]",34828158233251,Li4Mn1V3P8O28
Li4Co13O28,mp-759373,0.23399999999999999,1.07428046,0.04919131466665583,"{3: 4, 27: 13, 8: 28}","[3, 8, 27]",348282713,Li4Co13O28
Li4Co15O28,mp-758387,0.02859999999999996,2.26555487,0.03341204372340556,"{3: 4, 27: 15, 8: 28}","[3, 8, 27]",348282715,Li4Co15O28
Li4Mn7(OF7)2,mp-763819,2.2529,1.44170588,0.08660253777777527,"{3: 4, 25: 7, 8: 2, 9: 14}","[3, 8, 9, 25]",3482914257,Li4Mn7O2F14
Li4Co7(OF7)2,mp-752803,2.0283,0.91088503,0.06091034018518471,"{3: 4, 27: 7, 8: 2, 9: 14}","[3, 8, 9, 27]",3482914277,Li4Co7O2F14
Li4Ni7(OF7)2,mp-859156,2.7776,1.52686704,0.06584630111110101,"{3: 4, 28: 7, 8: 2, 9: 14}","[3, 8, 9, 28]",3482914287,Li4Ni7O2F14
Li4V3P8O29,mp-1177550,1.1241999999999999,1.1435763,0.038572329015157614,"{3: 4, 23: 3, 15: 8, 8: 29}","[3, 8, 15, 23]",34829158233,Li4V3P8O29
Li4Mn(OF)2,mp-753522,0.9747000000000003,2.58151992,0.10203930388888693,"{3: 4, 25: 1, 8: 2, 9: 2}","[3, 8, 9, 25]",348292251,Li4Mn1O2F2
Li4Co(OF)2,mp-850355,1.5844,0.77002377,0.09128578256944664,"{3: 4, 27: 1, 8: 2, 9: 2}","[3, 8, 9, 27]",348292271,Li4Co1O2F2
Li4MnO2F3,mp-753501,0.9809,0.95319054,0.08038453025000258,"{3: 4, 25: 1, 8: 2, 9: 3}","[3, 8, 9, 25]",348293251,Li4Mn1O2F3
Li4Mn3(OF3)2,mp-753977,2.2634999999999996,1.61662939,0.0958836139999999,"{3: 4, 25: 3, 8: 2, 9: 6}","[3, 8, 9, 25]",348296253,Li4Mn3O2F6
Li4Co3(OF3)2,mp-765689,2.5015,1.26485204,0.08268604666666679,"{3: 4, 27: 3, 8: 2, 9: 6}","[3, 8, 9, 27]",348296273,Li4Co3O2F6
Li4Ni3(OF3)2,mp-758172,3.1996999999999995,1.8674889,0.0816382823333246,"{3: 4, 28: 3, 8: 2, 9: 6}","[3, 8, 9, 28]",348296283,Li4Ni3O2F6
Li4Ti15O32,mp-759678,1.9439000000000002,1.38117971,0.09107030102941138,"{3: 4, 22: 15, 8: 32}","[3, 8, 22]",348322215,Li4Ti15O32
SrLi4La15(CoO8)4,mp-766206,0.0,7.15156781,0.025210059598217427,"{38: 1, 3: 4, 57: 15, 27: 4, 8: 32}","[3, 8, 27, 38, 57]",348322743815715,Sr1Li4La15Co4O32
Li4MnO3,mp-755396,0.9717999999999998,1.10954173,0.08529698875000147,"{3: 4, 25: 1, 8: 3}","[3, 8, 25]",3483251,Li4Mn1O3
Li4CoO3,mp-755593,2.4108,0.82888939,0.03666444035156324,"{3: 4, 27: 1, 8: 3}","[3, 8, 27]",3483271,Li4Co1O3
Li4IO3,mp-1189189,0.0,1.05412612,0.3987028593749997,"{3: 4, 53: 1, 8: 3}","[3, 8, 53]",3483531,Li4I1O3
Li4La3Nb12O36,mp-762374,0.0,3.65514306,0.08143498588637144,"{3: 4, 57: 3, 41: 12, 8: 36}","[3, 8, 41, 57]",348364112573,Li4La3Nb12O36
Li4MnO3F,mp-753101,0.7303,0.8371131,0.09914368138889085,"{3: 4, 25: 1, 8: 3, 9: 1}","[3, 8, 9, 25]",348391251,Li4Mn1O3F1
Li4CoO3F,mp-755064,1.5433999999999999,-0.11142677,0.07302150777777339,"{3: 4, 27: 1, 8: 3, 9: 1}","[3, 8, 9, 27]",348391271,Li4Co1O3F1
Li4Co7O3F13,mp-752818,0.22329999999999994,0.55991781,0.0844866143518539,"{3: 4, 27: 7, 8: 3, 9: 13}","[3, 8, 9, 27]",3483913277,Li4Co7O3F13
Li4VO3F2,mp-764753,1.6330000000000002,1.84186574,0.0884044990000108,"{3: 4, 23: 1, 8: 3, 9: 2}","[3, 8, 9, 23]",348392231,Li4V1O3F2
Li4Co3O3F4,mp-759580,0.0,2.70740518,0.08338494874999913,"{3: 4, 27: 3, 8: 3, 9: 4}","[3, 8, 9, 27]",348394273,Li4Co3O3F4
Li4Ni3O3F4,mp-753092,2.1682,3.65053107,0.040360575357141215,"{3: 4, 28: 3, 8: 3, 9: 4}","[3, 8, 9, 28]",348394283,Li4Ni3O3F4
Li4V4(OF3)3,mp-765901,0.5369999999999999,2.71672332,0.09552001881250316,"{3: 4, 23: 4, 8: 3, 9: 9}","[3, 8, 9, 23]",348399234,Li4V4O3F9
Li4Mn3(OF3)3,mp-753462,0.5235000000000001,-0.04991582,0.09461814279239977,"{3: 4, 25: 3, 8: 3, 9: 9}","[3, 8, 9, 25]",348399253,Li4Mn3O3F9
Li4Co4(OF3)3,mp-755532,0.3823,0.35921674,0.10316890749999974,"{3: 4, 27: 4, 8: 3, 9: 9}","[3, 8, 9, 27]",348399274,Li4Co4O3F9
KLi4AlO4,mp-557268,3.7512,0.61276588,0.0,"{19: 1, 3: 4, 13: 1, 8: 4}","[3, 8, 13, 19]",3484131191,K1Li4Al1O4
Li4SiO4,mp-11737,4.7841000000000005,0.96402639,0.0,"{3: 4, 14: 1, 8: 4}","[3, 8, 14]",3484141,Li4Si1O4
Li4CaNiO4,mp-775950,2.3519000000000005,1.83391752,0.08416375050000191,"{3: 4, 20: 1, 28: 1, 8: 4}","[3, 8, 20, 28]",3484201281,Li4Ca1Ni1O4
Li4TiO4,mp-9172,4.5573,0.03754136,0.0,"{3: 4, 22: 1, 8: 4}","[3, 8, 22]",3484221,Li4Ti1O4
Li4CrO4,mp-772434,1.7266000000000001,1.42060022,0.013167364722225017,"{3: 4, 24: 1, 8: 4}","[3, 8, 24]",3484241,Li4Cr1O4
Li4CoO4,mp-759349,0.0,0.18504704,0.08770240111111871,"{3: 4, 27: 1, 8: 4}","[3, 8, 27]",3484271,Li4Co1O4
SrLi4NiO4,mp-776394,2.3487999999999998,1.61876908,0.08648775762500005,"{38: 1, 3: 4, 28: 1, 8: 4}","[3, 8, 28, 38]",3484281381,Sr1Li4Ni1O4
Li4GeO4,mp-4558,4.0961,0.10250989,0.0,"{3: 4, 32: 1, 8: 4}","[3, 8, 32]",3484321,Li4Ge1O4
Li4ZrO4,mp-756344,4.3207,-0.03715937,0.037005342777780115,"{3: 4, 40: 1, 8: 4}","[3, 8, 40]",3484401,Li4Zr1O4
Li4NbO4,mp-755298,0.0,1.0105706,0.08824721006944447,"{3: 4, 41: 1, 8: 4}","[3, 8, 41]",3484411,Li4Nb1O4
K11Li4Ta15O45,mp-1225077,2.1207000000000003,1.28535335,0.05782446906666827,"{19: 11, 3: 4, 73: 15, 8: 45}","[3, 8, 19, 73]",3484519117315,K11Li4Ta15O45
Li4HfO4,mp-756299,4.224,0.05767335,0.056924411111111795,"{3: 4, 72: 1, 8: 4}","[3, 8, 72]",3484721,Li4Hf1O4
Li4Zr8V3(P3O16)3,mp-1223569,3.1339,-0.24891888,0.0063770338888993194,"{3: 4, 40: 8, 23: 3, 15: 9, 8: 48}","[3, 8, 15, 23, 40]",34848159233408,Li4Zr8V3P9O48
Li4PbO4,mp-22170,1.4367,1.04895133,0.0,"{3: 4, 82: 1, 8: 4}","[3, 8, 82]",3484821,Li4Pb1O4
Li4VO4F,mp-752582,3.8303000000000003,-1.14515127,0.029150574500000026,"{3: 4, 23: 1, 8: 4, 9: 1}","[3, 8, 9, 23]",348491231,Li4V1O4F1
Li4V3(OF2)4,mp-758474,1.384,0.62350314,0.052110703684220105,"{3: 4, 23: 3, 8: 4, 9: 8}","[3, 8, 9, 23]",348498233,Li4V3O4F8
KLi4CrO5,mp-756262,1.0179,1.27604183,0.07798338488635981,"{19: 1, 3: 4, 24: 1, 8: 5}","[3, 8, 19, 24]",3485191241,K1Li4Cr1O5
KLi4NbO5,mp-556902,3.7769999999999997,0.68525231,0.0,"{19: 1, 3: 4, 41: 1, 8: 5}","[3, 8, 19, 41]",3485191411,K1Li4Nb1O5
Li4CrO5,mp-770688,1.1333000000000002,0.41059156,0.020737729166665275,"{3: 4, 24: 1, 8: 5}","[3, 8, 24]",3485241,Li4Cr1O5
Li4SeO5,mp-4426,2.4442,1.10700767,0.0,"{3: 4, 34: 1, 8: 5}","[3, 8, 34]",3485341,Li4Se1O5
Li4MoO5,mp-19117,0.0,3.80084796,0.0,"{3: 4, 42: 1, 8: 5}","[3, 8, 42]",3485421,Li4Mo1O5
Li4TeO5,mp-4804,2.7111,2.43562062,0.0,"{3: 4, 52: 1, 8: 5}","[3, 8, 52]",3485521,Li4Te1O5
Li4WO5,mp-555377,3.1082,1.43630504,0.0,"{3: 4, 74: 1, 8: 5}","[3, 8, 74]",3485741,Li4W1O5
Li4Bi2O5,mp-756718,2.6845999999999997,2.06220709,0.031186527272728526,"{3: 4, 83: 2, 8: 5}","[3, 8, 83]",3485832,Li4Bi2O5
Li4UO5,mp-7714,2.0777,2.64768663,0.0,"{3: 4, 92: 1, 8: 5}","[3, 8, 92]",3485921,Li4U1O5
Li4NpO5,mp-9159,0.5886000000000005,4.34861824,0.0,"{3: 4, 93: 1, 8: 5}","[3, 8, 93]",3485931,Li4Np1O5
Li4Mn3O5F3,mp-753944,0.7021999999999999,2.11443606,0.09483867599999751,"{3: 4, 25: 3, 8: 5, 9: 3}","[3, 8, 9, 25]",348593253,Li4Mn3O5F3
K2Li4UO6,mp-559263,2.1501,1.33868993,0.1406018609615387,"{19: 2, 3: 4, 92: 1, 8: 6}","[3, 8, 19, 92]",3486192921,K2Li4U1O6
Li4TiCrO6,mp-768387,0.9001000000000001,2.18304795,0.013229578333324277,"{3: 4, 22: 1, 24: 1, 8: 6}","[3, 8, 22, 24]",3486221241,Li4Ti1Cr1O6
Li4MnCrO6,mp-768712,0.7557,2.15201106,0.0,"{3: 4, 25: 1, 24: 1, 8: 6}","[3, 8, 24, 25]",3486241251,Li4Mn1Cr1O6
Li4CoRuO6,mp-1222544,0.6254999999999997,2.72424242,0.004944509999995184,"{3: 4, 27: 1, 44: 1, 8: 6}","[3, 8, 27, 44]",3486271441,Li4Co1Ru1O6
Li4CoTeO6,mp-1222462,2.3692,3.32636705,0.0,"{3: 4, 27: 1, 52: 1, 8: 6}","[3, 8, 27, 52]",3486271521,Li4Co1Te1O6
Rb2Li4UO6,mp-1209477,2.1266,1.47158482,0.12858915615384614,"{37: 2, 3: 4, 92: 1, 8: 6}","[3, 8, 37, 92]",3486372921,Rb2Li4U1O6
Cs2Li4UO6,mp-1213708,2.1195999999999997,2.08778129,0.13544905307692634,"{55: 2, 3: 4, 92: 1, 8: 6}","[3, 8, 55, 92]",3486552921,Cs2Li4U1O6
Li4WO6,mp-1222509,0.0,0.10776664,0.14060693266666302,"{3: 4, 74: 1, 8: 6}","[3, 8, 74]",3486741,Li4W1O6
Li4Mn3O6F,mp-753146,0.0,3.19432645,0.0439810682142836,"{3: 4, 25: 3, 8: 6, 9: 1}","[3, 8, 9, 25]",348691253,Li4Mn3O6F1
Li4Ni3O6F,mp-761276,0.0,2.78457182,0.06306027857143182,"{3: 4, 28: 3, 8: 6, 9: 1}","[3, 8, 9, 28]",348691283,Li4Ni3O6F1
Li4Si2O7,mp-1193913,0.0,-0.70811554,0.14246518705128608,"{3: 4, 14: 2, 8: 7}","[3, 8, 14]",3487142,Li4Si2O7
Li4MnSi2O7,mp-752430,3.653,1.74557903,0.010976736964281919,"{3: 4, 25: 1, 14: 2, 8: 7}","[3, 8, 14, 25]",3487142251,Li4Mn1Si2O7
Li4Si2NiO7,mp-767687,3.4341999999999997,1.68341617,0.021389111071431266,"{3: 4, 14: 2, 28: 1, 8: 7}","[3, 8, 14, 28]",3487142281,Li4Si2Ni1O7
Li4P2O7,mp-28450,5.6108,0.10364839,0.0,"{3: 4, 15: 2, 8: 7}","[3, 8, 15]",3487152,Li4P2O7
Li4MnCo2O7,mp-1174786,0.9939999999999998,2.60433414,0.051500644999995515,"{3: 4, 25: 1, 27: 2, 8: 7}","[3, 8, 25, 27]",3487251272,Li4Mn1Co2O7
Li4Mn3O7,mp-1174296,0.9933000000000001,2.76753661,0.023999256785701917,"{3: 4, 25: 3, 8: 7}","[3, 8, 25]",3487253,Li4Mn3O7
Li4Co3O7,mp-1174179,0.0,2.88191439,0.05360698642857109,"{3: 4, 27: 3, 8: 7}","[3, 8, 27]",3487273,Li4Co3O7
Li4MgCo3O8,mp-754576,0.0,3.61016226,0.02920025281250105,"{3: 4, 12: 1, 27: 3, 8: 8}","[3, 8, 12, 27]",3488121273,Li4Mg1Co3O8
Li4MgNi3O8,mp-1282789,0.3275000000000001,3.42395233,0.010455400277779248,"{3: 4, 12: 1, 28: 3, 8: 8}","[3, 8, 12, 28]",3488121283,Li4Mg1Ni3O8
Li4AlCr3O8,mp-755500,2.9174,3.50219923,0.010092498281248474,"{3: 4, 13: 1, 24: 3, 8: 8}","[3, 8, 13, 24]",3488131243,Li4Al1Cr3O8
Li4AlNi3O8,mp-1222534,0.0,3.70011434,0.02088422296874981,"{3: 4, 13: 1, 28: 3, 8: 8}","[3, 8, 13, 28]",3488131283,Li4Al1Ni3O8
Li4V2SiO8,mp-766040,1.5021999999999998,1.49334584,0.07508861208334583,"{3: 4, 23: 2, 14: 1, 8: 8}","[3, 8, 14, 23]",3488141232,Li4V2Si1O8
SrLi4Ca(SiO4)2,mp-555089,4.8294999999999995,1.70756744,0.0,"{38: 1, 3: 4, 20: 1, 14: 2, 8: 8}","[3, 8, 14, 20, 38]",3488142201381,Sr1Li4Ca1Si2O8
Li4V(PO4)2,mp-753500,3.2091999999999996,3.38605321,0.04783220133332655,"{3: 4, 23: 1, 15: 2, 8: 8}","[3, 8, 15, 23]",3488152231,Li4V1P2O8
Li4Cr(PO4)2,mp-25903,1.4268,2.51710753,0.04376450579166313,"{3: 4, 24: 1, 15: 2, 8: 8}","[3, 8, 15, 24]",3488152241,Li4Cr1P2O8
Li4Mn(PO4)2,mp-26081,4.124,1.07927747,0.010621523999999383,"{3: 4, 25: 1, 15: 2, 8: 8}","[3, 8, 15, 25]",3488152251,Li4Mn1P2O8
Li4Co(PO4)2,mp-25995,3.2951,1.1153257,0.0013683035000005006,"{3: 4, 27: 1, 15: 2, 8: 8}","[3, 8, 15, 27]",3488152271,Li4Co1P2O8
Li4Ni(PO4)2,mp-26369,3.5313999999999997,0.735451,0.019272508999996774,"{3: 4, 28: 1, 15: 2, 8: 8}","[3, 8, 15, 28]",3488152281,Li4Ni1P2O8
Li4Zn(PO4)2,mp-557756,4.676,0.34190563,0.0001232228333334362,"{3: 4, 30: 1, 15: 2, 8: 8}","[3, 8, 15, 30]",3488152301,Li4Zn1P2O8
Li4Sn(PO4)2,mp-774623,3.1841000000000004,1.99745737,0.05542101061110927,"{3: 4, 50: 1, 15: 2, 8: 8}","[3, 8, 15, 50]",3488152501,Li4Sn1P2O8
Li4TiV3O8,mp-764005,0.5023,4.67620225,0.022525854765626185,"{3: 4, 22: 1, 23: 3, 8: 8}","[3, 8, 22, 23]",3488221233,Li4Ti1V3O8
Li4TiCr3O8,mp-765747,0.0,5.70375235,0.05506392463541676,"{3: 4, 22: 1, 24: 3, 8: 8}","[3, 8, 22, 24]",3488221243,Li4Ti1Cr3O8
Li4TiMn3O8,mp-760999,0.24409999999999998,4.04099136,0.05483047645833494,"{3: 4, 22: 1, 25: 3, 8: 8}","[3, 8, 22, 25]",3488221253,Li4Ti1Mn3O8
Li4TiCo3O8,mp-1297766,0.6587000000000001,3.09868196,0.07087990234374963,"{3: 4, 22: 1, 27: 3, 8: 8}","[3, 8, 22, 27]",3488221273,Li4Ti1Co3O8
Li4TiNi3O8,mp-1277563,0.5063,3.19275565,0.021042426354162203,"{3: 4, 22: 1, 28: 3, 8: 8}","[3, 8, 22, 28]",3488221283,Li4Ti1Ni3O8
Li4Ti3O8,mp-755266,1.8915999999999997,1.81566418,0.05955124016666513,"{3: 4, 22: 3, 8: 8}","[3, 8, 22]",3488223,Li4Ti3O8
Li4Ti3VO8,mp-760347,0.0,5.6621851,0.04356829320312183,"{3: 4, 22: 3, 23: 1, 8: 8}","[3, 8, 22, 23]",3488223231,Li4Ti3V1O8
Li4Ti3CrO8,mp-756669,0.0,6.05578336,0.10229824228515305,"{3: 4, 22: 3, 24: 1, 8: 8}","[3, 8, 22, 24]",3488223241,Li4Ti3Cr1O8
Li4Ti3MnO8,mp-754722,0.0,5.44704367,0.08555576747846061,"{3: 4, 22: 3, 25: 1, 8: 8}","[3, 8, 22, 25]",3488223251,Li4Ti3Mn1O8
Li4Ti3NbO8,mp-756660,0.0,5.94272184,0.08824708851561347,"{3: 4, 22: 3, 41: 1, 8: 8}","[3, 8, 22, 41]",3488223411,Li4Ti3Nb1O8
Li4VCr3O8,mp-776618,1.6098000000000003,3.67866967,0.004159185937499643,"{3: 4, 23: 1, 24: 3, 8: 8}","[3, 8, 23, 24]",3488231243,Li4V1Cr3O8
Li4Mn3VO8,mp-773098,0.0,4.2593786,0.14982945906250045,"{3: 4, 25: 3, 23: 1, 8: 8}","[3, 8, 23, 25]",3488231253,Li4Mn3V1O8
Li4VCo3O8,mp-753470,1.1025,1.28070675,0.08615233906250008,"{3: 4, 23: 1, 27: 3, 8: 8}","[3, 8, 23, 27]",3488231273,Li4V1Co3O8
Li4VNi3O8,mp-770620,0.0,3.21642531,0.08391381458333314,"{3: 4, 23: 1, 28: 3, 8: 8}","[3, 8, 23, 28]",3488231283,Li4V1Ni3O8
Li4VGa3O8,mp-771646,1.3210000000000002,2.00414141,0.03994570015624799,"{3: 4, 23: 1, 31: 3, 8: 8}","[3, 8, 23, 31]",3488231313,Li4V1Ga3O8
Li4V3O8,mp-28699,0.0,3.20773456,0.05486218758334083,"{3: 4, 23: 3, 8: 8}","[3, 8, 23]",3488233,Li4V3O8
Li4V3CrO8,mp-769611,1.5881000000000003,5.55943023,0.005031964375000086,"{3: 4, 23: 3, 24: 1, 8: 8}","[3, 8, 23, 24]",3488233241,Li4V3Cr1O8
Li4MnV3O8,mp-759213,0.24739999999999984,3.91757867,0.04518914140624908,"{3: 4, 25: 1, 23: 3, 8: 8}","[3, 8, 23, 25]",3488233251,Li4Mn1V3O8
Li4V3CoO8,mp-771356,0.0,4.30075056,0.0866533108333325,"{3: 4, 23: 3, 27: 1, 8: 8}","[3, 8, 23, 27]",3488233271,Li4V3Co1O8
Li4V3NiO8,mp-772714,0.046499999999999986,4.40785428,0.07021862171874016,"{3: 4, 23: 3, 28: 1, 8: 8}","[3, 8, 23, 28]",3488233281,Li4V3Ni1O8
Li4NbV3O8,mp-769928,0.0,5.17353238,0.09164428031249994,"{3: 4, 41: 1, 23: 3, 8: 8}","[3, 8, 23, 41]",3488233411,Li4Nb1V3O8
Li4Mn3CrO8,mp-1177394,0.9579,3.12432644,0.044173487291669034,"{3: 4, 25: 3, 24: 1, 8: 8}","[3, 8, 24, 25]",3488241253,Li4Mn3Cr1O8
Li4CrCo3O8,mp-756706,0.33000000000000007,2.99136584,0.12277501687499903,"{3: 4, 24: 1, 27: 3, 8: 8}","[3, 8, 24, 27]",3488241273,Li4Cr1Co3O8
Li4CrNi3O8,mp-757137,0.0,3.40252774,0.03807952989583363,"{3: 4, 24: 1, 28: 3, 8: 8}","[3, 8, 24, 28]",3488241283,Li4Cr1Ni3O8
Li4CrGa3O8,mp-756775,1.1265999999999998,2.02546948,0.09705915421874955,"{3: 4, 24: 1, 31: 3, 8: 8}","[3, 8, 24, 31]",3488241313,Li4Cr1Ga3O8
Li4Cr3O8,mp-771884,0.24109999999999987,1.85769067,0.08445123244443398,"{3: 4, 24: 3, 8: 8}","[3, 8, 24]",3488243,Li4Cr3O8
Li4MnCr3O8,mp-756944,0.6756000000000002,3.89337828,0.0316382664999999,"{3: 4, 25: 1, 24: 3, 8: 8}","[3, 8, 24, 25]",3488243251,Li4Mn1Cr3O8
Li4Cr3CoO8,mp-768946,0.46950000000000003,3.41017797,0.011532009999999815,"{3: 4, 24: 3, 27: 1, 8: 8}","[3, 8, 24, 27]",3488243271,Li4Cr3Co1O8
Li4Cr3NiO8,mp-755661,0.0,3.16368684,0.017036284843750416,"{3: 4, 24: 3, 28: 1, 8: 8}","[3, 8, 24, 28]",3488243281,Li4Cr3Ni1O8
Li4Cr3GaO8,mp-755522,2.9587,2.93139437,0.01819399703124347,"{3: 4, 24: 3, 31: 1, 8: 8}","[3, 8, 24, 31]",3488243311,Li4Cr3Ga1O8
Li4MnCo2NiO8,mp-1222620,0.8306999999999998,2.85957268,0.08167897156249726,"{3: 4, 25: 1, 27: 2, 28: 1, 8: 8}","[3, 8, 25, 27, 28]",3488251272281,Li4Mn1Co2Ni1O8
Li4MnCo3O8,mp-1174093,0.4879000000000002,3.51216071,0.058020521718747275,"{3: 4, 25: 1, 27: 3, 8: 8}","[3, 8, 25, 27]",3488251273,Li4Mn1Co3O8
Li4MnNi3O8,mp-1177345,0.0,3.19195318,0.008294953854167453,"{3: 4, 25: 1, 28: 3, 8: 8}","[3, 8, 25, 28]",3488251283,Li4Mn1Ni3O8
Li4Mn3O8,mp-779008,1.6716,1.52113298,0.026494299333322147,"{3: 4, 25: 3, 8: 8}","[3, 8, 25]",3488253,Li4Mn3O8
Li4Mn3CoO8,mp-1297796,0.0,3.82957024,0.029935628281243076,"{3: 4, 25: 3, 27: 1, 8: 8}","[3, 8, 25, 27]",3488253271,Li4Mn3Co1O8
Li4Mn3NiO8,mp-760206,0.0,3.69171514,0.026144067187495956,"{3: 4, 25: 3, 28: 1, 8: 8}","[3, 8, 25, 28]",3488253281,Li4Mn3Ni1O8
Li4Mn3NbO8,mp-1304742,0.9673999999999996,3.10581939,0.07437291421874992,"{3: 4, 25: 3, 41: 1, 8: 8}","[3, 8, 25, 41]",3488253411,Li4Mn3Nb1O8
Li4Mn3SnO8,mp-757409,0.0,4.12797399,0.03893115203125053,"{3: 4, 25: 3, 50: 1, 8: 8}","[3, 8, 25, 50]",3488253501,Li4Mn3Sn1O8
Li4Mn3SbO8,mp-1290409,0.7800000000000002,4.04002605,0.045139271874999665,"{3: 4, 25: 3, 51: 1, 8: 8}","[3, 8, 25, 51]",3488253511,Li4Mn3Sb1O8