formula,material_id,band_gap,efermi,energy_above_hull,comp_atoms,sorted_keys_comp_atoms,comp_number,new_formula
Li3(NiO2)5,mp-1311345,0.3803000000000001,3.07703361,0.03295658337962948,"{3: 3, 28: 5, 8: 10}","[3, 8, 28]",33810285,Li3Ni5O10
Li3Tl,mp-7396,0.0,3.67076318,0.0,"{3: 3, 81: 1}","[3, 81]",33811,Li3Tl1
Li3VP3O11,mp-758336,0.0,3.71562437,0.0733736449768454,"{3: 3, 23: 1, 15: 3, 8: 11}","[3, 8, 15, 23]",33811153231,Li3V1P3O11
Li3NbP3O11,mp-757765,0.7053000000000003,4.32808988,0.10942740166170584,"{3: 3, 41: 1, 15: 3, 8: 11}","[3, 8, 15, 41]",33811153411,Li3Nb1P3O11
Li3P3WO11,mp-758366,1.0703,3.33635115,0.07683909620372376,"{3: 3, 15: 3, 74: 1, 8: 11}","[3, 8, 15, 74]",33811153741,Li3P3W1O11
Li3V8O11,mp-1177632,0.20950000000000024,5.807116,0.07686626623105752,"{3: 3, 23: 8, 8: 11}","[3, 8, 23]",33811238,Li3V8O11
Li3Nb6O11,mp-756137,0.0,3.85648636,0.08942576558333215,"{3: 3, 41: 6, 8: 11}","[3, 8, 41]",33811416,Li3Nb6O11
Li3ClO,mp-985585,4.6766000000000005,0.95576858,0.02902484300000019,"{3: 3, 17: 1, 8: 1}","[3, 8, 17]",3381171,Li3Cl1O1
Li3V4O11F,mp-765601,1.7752999999999999,0.34318857,0.07330611815789112,"{3: 3, 23: 4, 8: 11, 9: 1}","[3, 8, 9, 23]",3381191234,Li3V4O11F1
NaLi3V4O12,mp-1220781,3.0329,-0.49926996,0.022405236750000057,"{11: 1, 3: 3, 23: 4, 8: 12}","[3, 8, 11, 23]",33812111234,Na1Li3V4O12
Li3Sc2(PO4)3,mp-6565,4.7407,0.78336355,0.0,"{3: 3, 21: 2, 15: 3, 8: 12}","[3, 8, 15, 21]",33812153212,Li3Sc2P3O12
Li3Ti2(PO4)3,mp-25839,0.12950000000000017,4.57022544,0.055309880607138595,"{3: 3, 22: 2, 15: 3, 8: 12}","[3, 8, 15, 22]",33812153222,Li3Ti2P3O12
Li3MnV(PO4)3,mp-778000,0.7010999999999998,2.45790511,0.014632692187493745,"{3: 3, 25: 1, 23: 1, 15: 3, 8: 12}","[3, 8, 15, 23, 25]",33812153231251,Li3Mn1V1P3O12
Li3V2(PO4)3,mp-6396,1.7296,2.32002374,0.0,"{3: 3, 23: 2, 15: 3, 8: 12}","[3, 8, 15, 23]",33812153232,Li3V2P3O12
Li3Cr2(PO4)3,mp-780606,2.9720999999999997,1.25937579,0.0,"{3: 3, 24: 2, 15: 3, 8: 12}","[3, 8, 15, 24]",33812153242,Li3Cr2P3O12
Li3Mn2(PO4)3,mp-26039,0.9717,1.32088999,0.0028933422500339034,"{3: 3, 25: 2, 15: 3, 8: 12}","[3, 8, 15, 25]",33812153252,Li3Mn2P3O12
Li3Co2(PO4)3,mp-26087,0.8677999999999999,0.89490954,0.019317928812487395,"{3: 3, 27: 2, 15: 3, 8: 12}","[3, 8, 15, 27]",33812153272,Li3Co2P3O12
Li3Ni2(PO4)3,mp-26275,0.10630000000000006,1.39059193,0.0620515023333299,"{3: 3, 28: 2, 15: 3, 8: 12}","[3, 8, 15, 28]",33812153282,Li3Ni2P3O12
Li3Mo2(PO4)3,mp-27003,3.6982,2.29302037,0.0,"{3: 3, 42: 2, 15: 3, 8: 12}","[3, 8, 15, 42]",33812153422,Li3Mo2P3O12
Li3In2(PO4)3,mp-6425,3.7684,1.4845883,0.0,"{3: 3, 49: 2, 15: 3, 8: 12}","[3, 8, 15, 49]",33812153492,Li3In2P3O12
Li3Sn2(PO4)3,mp-26701,2.1582000000000003,2.7830235,0.03513174208333236,"{3: 3, 50: 2, 15: 3, 8: 12}","[3, 8, 15, 50]",33812153502,Li3Sn2P3O12
Li3Sb2(PO4)3,mp-684539,3.4768,2.305035,0.05018141025000489,"{3: 3, 51: 2, 15: 3, 8: 12}","[3, 8, 15, 51]",33812153512,Li3Sb2P3O12
Li3P3(WO6)2,mp-777465,3.6739,2.03588326,0.03637096287500263,"{3: 3, 15: 3, 74: 2, 8: 12}","[3, 8, 15, 74]",33812153742,Li3P3W2O12
Li3Bi2(PO4)3,mp-684504,3.8832000000000004,1.6204406,0.037332288624996934,"{3: 3, 83: 2, 15: 3, 8: 12}","[3, 8, 15, 83]",33812153832,Li3Bi2P3O12
Li3V(SO4)3,mp-772425,0.0,2.03644291,0.07879372552632002,"{3: 3, 23: 1, 16: 3, 8: 12}","[3, 8, 16, 23]",33812163231,Li3V1S3O12
Li3Ti2V3O12,mp-760212,0.9330999999999998,1.71099195,0.10256126025000434,"{3: 3, 22: 2, 23: 3, 8: 12}","[3, 8, 22, 23]",33812222233,Li3Ti2V3O12
Li3Ti2V5O12,mp-1177731,0.0,4.7063571,0.08682638613636406,"{3: 3, 22: 2, 23: 5, 8: 12}","[3, 8, 22, 23]",33812222235,Li3Ti2V5O12
Li3Ti2Mn5O12,mp-758512,0.25039999999999996,3.60625801,0.08819846424242428,"{3: 3, 22: 2, 25: 5, 8: 12}","[3, 8, 22, 25]",33812222255,Li3Ti2Mn5O12
Li3Ti2(GeO4)3,mp-1013749,0.0,0.97770809,0.101871780425002,"{3: 3, 22: 2, 32: 3, 8: 12}","[3, 8, 22, 32]",33812222323,Li3Ti2Ge3O12
Li3Ti4MnO12,mp-756540,0.0,1.97813711,0.12400401805833461,"{3: 3, 22: 4, 25: 1, 8: 12}","[3, 8, 22, 25]",33812224251,Li3Ti4Mn1O12
Li3VO12,mp-1106342,0.09969999999999996,-0.3995455,0.47771259125000043,"{3: 3, 23: 1, 8: 12}","[3, 8, 23]",33812231,Li3V1O12
Li3Nb4VO12,mp-753504,0.0,4.37783113,0.028146736468759315,"{3: 3, 41: 4, 23: 1, 8: 12}","[3, 8, 23, 41]",33812231414,Li3Nb4V1O12
Li3V(TeO3)4,mp-756304,1.6770999999999998,3.32794146,0.07159823949997701,"{3: 3, 23: 1, 52: 4, 8: 12}","[3, 8, 23, 52]",33812231524,Li3V1Te4O12
Li3V2(GeO4)3,mp-1013916,0.0,2.05298756,0.13015500112500344,"{3: 3, 23: 2, 32: 3, 8: 12}","[3, 8, 23, 32]",33812232323,Li3V2Ge3O12
Li3Mn2V3O12,mp-774814,1.0554999999999999,0.30853554,0.02254029987502104,"{3: 3, 25: 2, 23: 3, 8: 12}","[3, 8, 23, 25]",33812233252,Li3Mn2V3O12
Li3V3(CoO6)2,mp-774919,1.2374,-0.11267065,0.0889373767499837,"{3: 3, 23: 3, 27: 2, 8: 12}","[3, 8, 23, 27]",33812233272,Li3V3Co2O12
Li3MnV4O12,mp-1666401,1.3841,2.40067343,0.04978171400000608,"{3: 3, 25: 1, 23: 4, 8: 12}","[3, 8, 23, 25]",33812234251,Li3Mn1V4O12
Li3V4NiO12,mp-756454,0.07750000000000012,3.54447411,0.09843591450000577,"{3: 3, 23: 4, 28: 1, 8: 12}","[3, 8, 23, 28]",33812234281,Li3V4Ni1O12
Li3V4SnO12,mp-754315,1.1183000000000005,3.14699226,0.08831260749999892,"{3: 3, 23: 4, 50: 1, 8: 12}","[3, 8, 23, 50]",33812234501,Li3V4Sn1O12
Li3V5O12,mp-776224,1.5843000000000003,0.94792616,0.054394436124993284,"{3: 3, 23: 5, 8: 12}","[3, 8, 23]",33812235,Li3V5O12
Li3V5Cr2O12,mp-754708,0.41300000000000026,4.19624481,0.0826711962499953,"{3: 3, 23: 5, 24: 2, 8: 12}","[3, 8, 23, 24]",33812235242,Li3V5Cr2O12
Li3Mn2V5O12,mp-757617,0.2513000000000001,3.79206821,0.09605730420454073,"{3: 3, 25: 2, 23: 5, 8: 12}","[3, 8, 23, 25]",33812235252,Li3Mn2V5O12
Li3V7O12,mp-752640,1.0818999999999996,3.96472452,0.08175431397726562,"{3: 3, 23: 7, 8: 12}","[3, 8, 23]",33812237,Li3V7O12
Li3Mn5Cr2O12,mp-850947,0.05410000000000004,3.09061855,0.17987378871211313,"{3: 3, 25: 5, 24: 2, 8: 12}","[3, 8, 24, 25]",33812242255,Li3Mn5Cr2O12
Li3Cr2(GeO4)3,mp-1012879,0.0,1.25719832,0.15444943395833732,"{3: 3, 24: 2, 32: 3, 8: 12}","[3, 8, 24, 32]",33812242323,Li3Cr2Ge3O12
Li3Cr2(AsO4)3,mp-779404,2.6701999999999995,2.19910373,0.015214599458335698,"{3: 3, 24: 2, 33: 3, 8: 12}","[3, 8, 24, 33]",33812242333,Li3Cr2As3O12
Li3Cr3(CoO6)2,mp-765542,0.7384999999999999,1.09105572,0.08063550952083531,"{3: 3, 24: 3, 27: 2, 8: 12}","[3, 8, 24, 27]",33812243272,Li3Cr3Co2O12
Li3Cr3(NiO6)2,mp-772885,0.7284999999999999,1.5145306,0.06334764858334196,"{3: 3, 24: 3, 28: 2, 8: 12}","[3, 8, 24, 28]",33812243282,Li3Cr3Ni2O12
Li3MnNb4O12,mp-780417,0.0,4.129148,0.032361907562497905,"{3: 3, 25: 1, 41: 4, 8: 12}","[3, 8, 25, 41]",33812251414,Li3Mn1Nb4O12
Li3Mn(SbO3)4,mp-757166,0.0,5.83981105,0.06368955228124662,"{3: 3, 25: 1, 51: 4, 8: 12}","[3, 8, 25, 51]",33812251514,Li3Mn1Sb4O12
Li3Mn2Ni5O12,mp-758846,0.0,3.29058126,0.05923634042614179,"{3: 3, 25: 2, 28: 5, 8: 12}","[3, 8, 25, 28]",33812252285,Li3Mn2Ni5O12
Li3Mn2(SeO3)4,mp-1211552,0.7033,1.51618042,0.0,"{3: 3, 25: 2, 34: 4, 8: 12}","[3, 8, 25, 34]",33812252344,Li3Mn2Se4O12
Li3Mn5(CoO6)2,mp-775491,0.0,3.06039247,0.10107995033334483,"{3: 3, 25: 5, 27: 2, 8: 12}","[3, 8, 25, 27]",33812255272,Li3Mn5Co2O12
Li3Mn5(NiO6)2,mp-758709,0.0,3.66936592,0.0708702852651486,"{3: 3, 25: 5, 28: 2, 8: 12}","[3, 8, 25, 28]",33812255282,Li3Mn5Ni2O12
Li3Mn7O12,mp-1177687,0.03180000000000005,3.27105441,0.0674504051515159,"{3: 3, 25: 7, 8: 12}","[3, 8, 25]",33812257,Li3Mn7O12
Li3Co2(GeO4)3,mp-1013807,0.0,1.86630996,0.15994603591250023,"{3: 3, 27: 2, 32: 3, 8: 12}","[3, 8, 27, 32]",33812272323,Li3Co2Ge3O12
Li3Nb4NiO12,mp-756616,0.2808999999999999,3.84539218,0.07981946124999872,"{3: 3, 41: 4, 28: 1, 8: 12}","[3, 8, 28, 41]",33812281414,Li3Nb4Ni1O12
Li3Ni(SbO3)4,mp-849457,0.0,6.15483748,0.05981503790624565,"{3: 3, 28: 1, 51: 4, 8: 12}","[3, 8, 28, 51]",33812281514,Li3Ni1Sb4O12
Li3Ni2(GeO4)3,mp-1013796,0.0,1.43338538,0.20592613024999817,"{3: 3, 28: 2, 32: 3, 8: 12}","[3, 8, 28, 32]",33812282323,Li3Ni2Ge3O12
Li3Ni7O12,mp-1177647,0.0,3.46390431,0.051225462613638584,"{3: 3, 28: 7, 8: 12}","[3, 8, 28]",33812287,Li3Ni7O12
Li3Nb4ZnO12,mp-756376,0.0,4.00340096,0.038267380562501785,"{3: 3, 41: 4, 30: 1, 8: 12}","[3, 8, 30, 41]",33812301414,Li3Nb4Zn1O12
Li3Ge3(MoO6)2,mp-1013795,0.0,3.29364981,0.09927725249999586,"{3: 3, 32: 3, 42: 2, 8: 12}","[3, 8, 32, 42]",33812323422,Li3Ge3Mo2O12
Sr3Li3La5O12,mp-761869,3.0223000000000004,4.42709299,0.03864295128623052,"{38: 3, 3: 3, 57: 5, 8: 12}","[3, 8, 38, 57]",33812383575,Sr3Li3La5O12
Li3ZrNb(TeO6)2,mp-754249,1.8758999999999997,2.60539357,0.021247231193609828,"{3: 3, 40: 1, 41: 1, 52: 2, 8: 12}","[3, 8, 40, 41, 52]",33812401411522,Li3Zr1Nb1Te2O12
Li3Nb3TeO12,mp-754751,2.0593,1.64322052,0.018303648552633334,"{3: 3, 41: 3, 52: 1, 8: 12}","[3, 8, 41, 52]",33812413521,Li3Nb3Te1O12
Li3Nb4O12,mp-706276,0.0,0.62230989,0.06761432677632406,"{3: 3, 41: 4, 8: 12}","[3, 8, 41]",33812414,Li3Nb4O12
Li3Nb4SnO12,mp-753319,0.0,4.67513865,0.08882497350000662,"{3: 3, 41: 4, 50: 1, 8: 12}","[3, 8, 41, 50]",33812414501,Li3Nb4Sn1O12
Li3La3(MoO6)2,mp-1185315,2.8495,6.18606516,0.0,"{3: 3, 57: 3, 42: 2, 8: 12}","[3, 8, 42, 57]",33812422573,Li3La3Mo2O12
Li3Pr3(TeO6)2,mp-1211386,3.1280999999999994,3.1088656,0.0,"{3: 3, 59: 3, 52: 2, 8: 12}","[3, 8, 52, 59]",33812522593,Li3Pr3Te2O12
Li3Nd3(TeO6)2,mp-677627,3.1313999999999997,2.51959658,0.0,"{3: 3, 60: 3, 52: 2, 8: 12}","[3, 8, 52, 60]",33812522603,Li3Nd3Te2O12
Li3Sm3(TeO6)2,mp-1211256,3.4655000000000005,5.82974168,0.0,"{3: 3, 62: 3, 52: 2, 8: 12}","[3, 8, 52, 62]",33812522623,Li3Sm3Te2O12
Li3Eu3(TeO6)2,mp-1211152,0.08360000000000012,2.68642302,0.003070289687503447,"{3: 3, 63: 3, 52: 2, 8: 12}","[3, 8, 52, 63]",33812522633,Li3Eu3Te2O12
Li3Gd3(TeO6)2,mp-1212457,2.8187,2.97445161,0.0,"{3: 3, 64: 3, 52: 2, 8: 12}","[3, 8, 52, 64]",33812522643,Li3Gd3Te2O12
Li3Tb3(TeO6)2,mp-1211213,3.5219,5.99054495,0.0,"{3: 3, 65: 3, 52: 2, 8: 12}","[3, 8, 52, 65]",33812522653,Li3Tb3Te2O12
Li3Dy3(TeO6)2,mp-1210935,3.5476999999999994,6.01982322,0.0,"{3: 3, 66: 3, 52: 2, 8: 12}","[3, 8, 52, 66]",33812522663,Li3Dy3Te2O12
Li3Ho3(TeO6)2,mp-1211542,3.5705,6.00932891,0.0,"{3: 3, 67: 3, 52: 2, 8: 12}","[3, 8, 52, 67]",33812522673,Li3Ho3Te2O12
Li3Er3(TeO6)2,mp-1210989,3.5823,6.03581788,0.0,"{3: 3, 68: 3, 52: 2, 8: 12}","[3, 8, 52, 68]",33812522683,Li3Er3Te2O12
Li3Tm3(TeO6)2,mp-1211248,3.1382,3.01924908,0.0,"{3: 3, 69: 3, 52: 2, 8: 12}","[3, 8, 52, 69]",33812522693,Li3Tm3Te2O12
Li3Lu3(TeO6)2,mp-1211646,3.1062,2.59619112,0.0,"{3: 3, 71: 3, 52: 2, 8: 12}","[3, 8, 52, 71]",33812522713,Li3Lu3Te2O12
Li3Nd3(WO6)2,mp-557717,3.6605999999999996,1.5037388,0.0,"{3: 3, 60: 3, 74: 2, 8: 12}","[3, 8, 60, 74]",33812603742,Li3Nd3W2O12
K9Li3I2O13,mp-556215,0.7629999999999999,2.80403188,0.05310665777777768,"{19: 9, 3: 3, 53: 2, 8: 13}","[3, 8, 19, 53]",33813199532,K9Li3I2O13
Li3Ti6O13,mp-754801,0.0,3.81136214,0.07066709318182696,"{3: 3, 22: 6, 8: 13}","[3, 8, 22]",33813226,Li3Ti6O13
Li3V6O13,mp-542665,0.6651000000000002,2.68555884,0.09810912005680805,"{3: 3, 23: 6, 8: 13}","[3, 8, 23]",33813236,Li3V6O13
Li3BrO,mp-28593,4.277500000000001,1.07549235,0.03706398000000011,"{3: 3, 35: 1, 8: 1}","[3, 8, 35]",3381351,Li3Br1O1
Na5Li3Ti5O14,mp-774609,3.1413,1.68997536,0.01983502522222924,"{11: 5, 3: 3, 22: 5, 8: 14}","[3, 8, 11, 22]",33814115225,Na5Li3Ti5O14
Li3AlMo2(AsO7)2,mp-560164,2.8901,1.27694791,0.015887175795454844,"{3: 3, 13: 1, 42: 2, 33: 2, 8: 14}","[3, 8, 13, 33, 42]",33814131332422,Li3Al1Mo2As2O14
Li3Mo2P3O14,mp-699602,1.2828000000000004,2.05797274,0.08957459880687679,"{3: 3, 42: 2, 15: 3, 8: 14}","[3, 8, 15, 42]",33814153422,Li3Mo2P3O14
Li3VCr(P2O7)2,mp-752491,0.6295999999999999,3.45919116,0.01837775298007127,"{3: 3, 23: 1, 24: 1, 15: 4, 8: 14}","[3, 8, 15, 23, 24]",33814154231241,Li3V1Cr1P4O14
Li3MnV(P2O7)2,mp-850951,2.1375,1.63941531,0.0,"{3: 3, 25: 1, 23: 1, 15: 4, 8: 14}","[3, 8, 15, 23, 25]",33814154231251,Li3Mn1V1P4O14
Li3Mn2(P2O7)2,mp-781754,0.0,1.76213953,0.004387376413044208,"{3: 3, 25: 2, 15: 4, 8: 14}","[3, 8, 15, 25]",33814154252,Li3Mn2P4O14
Li3Ti7O14,mp-1177528,0.0,4.79100005,0.012840214895833313,"{3: 3, 22: 7, 8: 14}","[3, 8, 22]",33814227,Li3Ti7O14
Li3V5O14,mp-755775,2.3933,-1.07984129,0.09673290022727432,"{3: 3, 23: 5, 8: 14}","[3, 8, 23]",33814235,Li3V5O14
Li3Co11O14,mp-757926,0.0,3.76979211,0.2847215510714287,"{3: 3, 27: 11, 8: 14}","[3, 8, 27]",338142711,Li3Co11O14
Li3Ti(Si2O5)3,mp-772545,4.256200000000001,5.39455117,0.0551663017800017,"{3: 3, 22: 1, 14: 6, 8: 15}","[3, 8, 14, 22]",33815146221,Li3Ti1Si6O15
Li3V(Si2O5)3,mp-1265172,2.3996999999999997,4.86356407,0.03346825788334673,"{3: 3, 23: 1, 14: 6, 8: 15}","[3, 8, 14, 23]",33815146231,Li3V1Si6O15
Li3Cr(Si2O5)3,mp-765207,3.2396000000000003,1.85968087,0.04300805460001378,"{3: 3, 24: 1, 14: 6, 8: 15}","[3, 8, 14, 24]",33815146241,Li3Cr1Si6O15
Li3Mn(Si2O5)3,mp-758981,0.9430000000000001,2.17537145,0.054934142427208954,"{3: 3, 25: 1, 14: 6, 8: 15}","[3, 8, 14, 25]",33815146251,Li3Mn1Si6O15
Li3Si6NiO15,mp-757292,2.1011,1.73619008,0.09119443350444723,"{3: 3, 14: 6, 28: 1, 8: 15}","[3, 8, 14, 28]",33815146281,Li3Si6Ni1O15
Li3MgTi8O16,mp-1177654,0.0,5.44039413,0.03357255821429206,"{3: 3, 12: 1, 22: 8, 8: 16}","[3, 8, 12, 22]",33816121228,Li3Mg1Ti8O16
Li3MgV8O16,mp-771733,0.0,3.68590224,0.022930029062498747,"{3: 3, 12: 1, 23: 8, 8: 16}","[3, 8, 12, 23]",33816121238,Li3Mg1V8O16
Li3Mg3Ti6O16,mp-773055,0.0,5.30417279,0.014435979464289872,"{3: 3, 12: 3, 22: 6, 8: 16}","[3, 8, 12, 22]",33816123226,Li3Mg3Ti6O16
Li3Ti3(PO4)4,mp-758035,0.0,4.08872664,0.07867299896978253,"{3: 3, 22: 3, 15: 4, 8: 16}","[3, 8, 15, 22]",33816154223,Li3Ti3P4O16
Li3V3(PO4)4,mp-32528,2.0374,1.68059528,0.011393101538459405,"{3: 3, 23: 3, 15: 4, 8: 16}","[3, 8, 15, 23]",33816154233,Li3V3P4O16
Li3Cr3(PO4)4,mp-26205,2.442,1.19683382,0.018320069230759017,"{3: 3, 24: 3, 15: 4, 8: 16}","[3, 8, 15, 24]",33816154243,Li3Cr3P4O16
Li3Mn3(PO4)4,mp-26143,1.0226,1.10998409,0.003012091923098481,"{3: 3, 25: 3, 15: 4, 8: 16}","[3, 8, 15, 25]",33816154253,Li3Mn3P4O16
Li3Co3(PO4)4,mp-31614,0.7309000000000001,1.33546761,0.039704555721144175,"{3: 3, 27: 3, 15: 4, 8: 16}","[3, 8, 15, 27]",33816154273,Li3Co3P4O16
Li3Ni3(PO4)4,mp-26525,0.026000000000000023,1.20882632,0.07937900719551472,"{3: 3, 28: 3, 15: 4, 8: 16}","[3, 8, 15, 28]",33816154283,Li3Ni3P4O16
Li3Mo3(PO4)4,mp-26351,3.0696,2.9889264,0.018272265032036827,"{3: 3, 42: 3, 15: 4, 8: 16}","[3, 8, 15, 42]",33816154423,Li3Mo3P4O16
Li3Sn3(PO4)4,mp-757551,0.25239999999999974,3.32035666,0.06424464596154333,"{3: 3, 50: 3, 15: 4, 8: 16}","[3, 8, 15, 50]",33816154503,Li3Sn3P4O16
Li3Sb3(PO4)4,mp-27111,2.9248000000000003,2.12697871,0.04628716717948578,"{3: 3, 51: 3, 15: 4, 8: 16}","[3, 8, 15, 51]",33816154513,Li3Sb3P4O16
Li3Bi3(PO4)4,mp-759263,3.3336000000000006,2.60972407,0.0963690686538472,"{3: 3, 83: 3, 15: 4, 8: 16}","[3, 8, 15, 83]",33816154833,Li3Bi3P4O16
Li3V2P5O16,mp-25811,2.4835000000000003,3.47059269,0.03526606309418412,"{3: 3, 23: 2, 15: 5, 8: 16}","[3, 8, 15, 23]",33816155232,Li3V2P5O16
Li3Cr2P5O16,mp-26425,2.3727,2.89606521,0.03671120310896914,"{3: 3, 24: 2, 15: 5, 8: 16}","[3, 8, 15, 24]",33816155242,Li3Cr2P5O16
Li3Mn2P5O16,mp-26187,3.9853000000000005,1.60584077,0.014541953782024386,"{3: 3, 25: 2, 15: 5, 8: 16}","[3, 8, 15, 25]",33816155252,Li3Mn2P5O16
Li3Co2P5O16,mp-26203,3.2819999999999996,1.30461034,0.017535839391039865,"{3: 3, 27: 2, 15: 5, 8: 16}","[3, 8, 15, 27]",33816155272,Li3Co2P5O16
Li3Ni2P5O16,mp-26191,4.0992,1.37099058,0.014403235128210845,"{3: 3, 28: 2, 15: 5, 8: 16}","[3, 8, 15, 28]",33816155282,Li3Ni2P5O16
Li3Sn2P5O16,mp-684470,3.8177,1.80490661,0.036610731250005024,"{3: 3, 50: 2, 15: 5, 8: 16}","[3, 8, 15, 50]",33816155502,Li3Sn2P5O16
K8Li3Cr4O16,mp-782640,0.0,1.24045361,0.03744636190323192,"{19: 8, 3: 3, 24: 4, 8: 16}","[3, 8, 19, 24]",33816198244,K8Li3Cr4O16
K8Li3Mn4O16,mp-758155,0.0286,-0.10215643,0.02885524667741457,"{19: 8, 3: 3, 25: 4, 8: 16}","[3, 8, 19, 25]",33816198254,K8Li3Mn4O16
Li3Ti6Co3O16,mp-772982,0.0,4.9520934,0.02981946955357273,"{3: 3, 22: 6, 27: 3, 8: 16}","[3, 8, 22, 27]",33816226273,Li3Ti6Co3O16
Li3Ti6Zn3O16,mp-773081,0.0,4.85435503,0.013107922946419492,"{3: 3, 22: 6, 30: 3, 8: 16}","[3, 8, 22, 30]",33816226303,Li3Ti6Zn3O16
Li3Ti8O16,mp-531914,0.0,4.5673297,0.02316906277777875,"{3: 3, 22: 8, 8: 16}","[3, 8, 22]",33816228,Li3Ti8O16
Li3V6O16,mp-756397,0.0,2.1452741,0.021704391800019707,"{3: 3, 23: 6, 8: 16}","[3, 8, 23]",33816236,Li3V6O16
Li3V8O16,mp-1177934,1.0935000000000001,2.42145369,0.06051538083333163,"{3: 3, 23: 8, 8: 16}","[3, 8, 23]",33816238,Li3V8O16
Li3V8ZnO16,mp-1222531,0.0,3.79493728,0.041041624970235446,"{3: 3, 23: 8, 30: 1, 8: 16}","[3, 8, 23, 30]",33816238301,Li3V8Zn1O16
Li3Mn5Cr3O16,mp-774662,1.3377999999999999,1.70957523,0.06602202704475424,"{3: 3, 25: 5, 24: 3, 8: 16}","[3, 8, 24, 25]",33816243255,Li3Mn5Cr3O16
Li3Mn7O16,mp-770710,0.0,1.35772105,0.04108840672275971,"{3: 3, 25: 7, 8: 16}","[3, 8, 25]",33816257,Li3Mn7O16
Li3Mn8O16,mp-531365,0.0,2.57892341,0.03182563855864107,"{3: 3, 25: 8, 8: 16}","[3, 8, 25]",33816258,Li3Mn8O16
Li3Co13O16,mp-867584,0.0,3.90691772,0.09868460984375016,"{3: 3, 27: 13, 8: 16}","[3, 8, 27]",338162713,Li3Co13O16
Li3Co3(Ge3O8)2,mp-772493,0.0,5.27017055,0.05886052250000162,"{3: 3, 27: 3, 32: 6, 8: 16}","[3, 8, 27, 32]",33816273326,Li3Co3Ge6O16
Li3(NiO2)8,mp-694965,0.0,2.5850207,0.06129836641975128,"{3: 3, 28: 8, 8: 16}","[3, 8, 28]",33816288,Li3Ni8O16
Li3Zn3(Ge3O8)2,mp-772979,0.0,5.45372589,0.05152375651785768,"{3: 3, 30: 3, 32: 6, 8: 16}","[3, 8, 30, 32]",33816303326,Li3Zn3Ge6O16
Li3Mo3P3O17,mp-557652,1.7785000000000002,1.50170665,0.007495414278880119,"{3: 3, 42: 3, 15: 3, 8: 17}","[3, 8, 15, 42]",33817153423,Li3Mo3P3O17
Li3V2P5O18,mp-697772,1.1034,1.75722896,0.07581492851189076,"{3: 3, 23: 2, 15: 5, 8: 18}","[3, 8, 15, 23]",33818155232,Li3V2P5O18
Li3Cr2P5O18,mp-26684,0.0,1.23187487,0.09166750720237893,"{3: 3, 24: 2, 15: 5, 8: 18}","[3, 8, 15, 24]",33818155242,Li3Cr2P5O18
Li3Mo2P5O18,mp-585177,1.4358000000000002,1.88321547,0.05751714333333258,"{3: 3, 42: 2, 15: 5, 8: 18}","[3, 8, 15, 42]",33818155422,Li3Mo2P5O18
Li3Sb2P5O18,mp-26586,1.8144999999999998,2.14957589,0.0357854647321556,"{3: 3, 51: 2, 15: 5, 8: 18}","[3, 8, 15, 51]",33818155512,Li3Sb2P5O18
Li3Bi2P5O18,mp-26245,0.2165999999999999,1.04459065,0.04799091785713738,"{3: 3, 83: 2, 15: 5, 8: 18}","[3, 8, 15, 83]",33818155832,Li3Bi2P5O18
Li3Sn(PO3)6,mp-673096,0.0,2.17794831,0.08316767254463286,"{3: 3, 50: 1, 15: 6, 8: 18}","[3, 8, 15, 50]",33818156501,Li3Sn1P6O18
Li3Mn5OF11,mp-760153,2.2314,3.28442634,0.0591723562499995,"{3: 3, 25: 5, 8: 1, 9: 11}","[3, 8, 9, 25]",3381911255,Li3Mn5O1F11
Li3Co5OF11,mp-754832,2.6076,3.36104396,0.05431376787499964,"{3: 3, 27: 5, 8: 1, 9: 11}","[3, 8, 9, 27]",3381911275,Li3Co5O1F11
Li3Ni5OF11,mp-753724,3.6106000000000003,1.45029633,0.057591673874987315,"{3: 3, 28: 5, 8: 1, 9: 11}","[3, 8, 9, 28]",3381911285,Li3Ni5O1F11
Li3Cr4PO19,mp-729255,0.2200000000000002,-2.21910561,0.2926187780771592,"{3: 3, 24: 4, 15: 1, 8: 19}","[3, 8, 15, 24]",33819151244,Li3Cr4P1O19
K3Li3P6O19,mp-1197664,0.0002999999999999947,-0.13086152,0.08597748866935628,"{19: 3, 3: 3, 15: 6, 8: 19}","[3, 8, 15, 19]",33819156193,K3Li3P6O19
Li3MnOF3,mp-755504,2.1946000000000003,2.29885512,0.11104121999999972,"{3: 3, 25: 1, 8: 1, 9: 3}","[3, 8, 9, 25]",338193251,Li3Mn1O1F3
Li3CoOF3,mp-759806,0.10860000000000003,2.45792383,0.05734824249999981,"{3: 3, 27: 1, 8: 1, 9: 3}","[3, 8, 9, 27]",338193271,Li3Co1O1F3
Li3NiOF3,mp-752550,1.9121000000000001,3.00728772,0.047341250624999276,"{3: 3, 28: 1, 8: 1, 9: 3}","[3, 8, 9, 28]",338193281,Li3Ni1O1F3
Li3Nb7O19,mp-772176,2.0609,1.39078603,0.085691822586206,"{3: 3, 41: 7, 8: 19}","[3, 8, 41]",33819417,Li3Nb7O19
Li3VOF4,mp-780660,1.5642,2.99218116,0.09991684416666402,"{3: 3, 23: 1, 8: 1, 9: 4}","[3, 8, 9, 23]",338194231,Li3V1O1F4
Li3MnOF4,mp-1276200,2.0076,-0.53839051,0.07494120189814701,"{3: 3, 25: 1, 8: 1, 9: 4}","[3, 8, 9, 25]",338194251,Li3Mn1O1F4
Li3VOF5,mp-760816,2.1558,-0.25077736,0.01956006575000835,"{3: 3, 23: 1, 8: 1, 9: 5}","[3, 8, 9, 23]",338195231,Li3V1O1F5