formula,material_id,band_gap,efermi,energy_above_hull,comp_atoms,sorted_keys_comp_atoms,comp_number,new_formula
LiEuF2,mp-1211617,0.0,3.43243612,0.3361254981249999,"{3: 1, 63: 1, 9: 2}","[3, 9, 63]",3192631,Li1Eu1F2
LiTbF2,mp-1211007,0.15810000000000013,3.61824934,0.5030204306249999,"{3: 1, 65: 1, 9: 2}","[3, 9, 65]",3192651,Li1Tb1F2
LiDyF2,mp-1211162,0.0889000000000002,3.55435513,0.5098811797916643,"{3: 1, 66: 1, 9: 2}","[3, 9, 66]",3192661,Li1Dy1F2
LiHoF2,mp-1211001,0.10159999999999991,3.69668972,0.49981724749999934,"{3: 1, 67: 1, 9: 2}","[3, 9, 67]",3192671,Li1Ho1F2
LiErF2,mp-1211287,0.0,3.5476095,0.5236972489583334,"{3: 1, 68: 1, 9: 2}","[3, 9, 68]",3192681,Li1Er1F2
LiTmF2,mp-1210968,0.0,3.67709181,0.4125394753472218,"{3: 1, 69: 1, 9: 2}","[3, 9, 69]",3192691,Li1Tm1F2
LiLuF2,mp-1211015,0.0,3.58772957,0.5635521279166653,"{3: 1, 71: 1, 9: 2}","[3, 9, 71]",3192711,Li1Lu1F2
LiBiF2,mp-1211242,0.3064,3.69212219,0.32372821249999806,"{3: 1, 83: 1, 9: 2}","[3, 9, 83]",3192831,Li1Bi1F2
LiF3,mp-1185348,0.0,-2.28144751,0.14988033999999928,"{3: 1, 9: 3}","[3, 9]",3193,Li1F3
LiCaF3,mp-1017626,6.5153,-0.29004037,0.18743932199999946,"{3: 1, 20: 1, 9: 3}","[3, 9, 20]",3193201,Li1Ca1F3
LiVF3,mp-752764,2.5687999999999995,2.03102695,0.018508798999994802,"{3: 1, 23: 1, 9: 3}","[3, 9, 23]",3193231,Li1V1F3
LiMnF3,mp-777355,3.5243,0.03019416,0.021236209249996918,"{3: 1, 25: 1, 9: 3}","[3, 9, 25]",3193251,Li1Mn1F3
LiCoF3,mp-759500,2.833,2.44242144,0.08800685599999714,"{3: 1, 27: 1, 9: 3}","[3, 9, 27]",3193271,Li1Co1F3
LiNiF3,mp-758501,4.5441,-0.48133952,0.01896355650000281,"{3: 1, 28: 1, 9: 3}","[3, 9, 28]",3193281,Li1Ni1F3
LiNp3,mp-1185274,0.0,15.95098676,0.44010144510416893,"{3: 1, 93: 3}","[3, 93]",31933,Li1Np3
LiV8F33,mp-781739,1.1614,-1.68649934,0.03330152059523783,"{3: 1, 23: 8, 9: 33}","[3, 9, 23]",31933238,Li1V8F33
LiMn8F33,mp-765136,1.0547999999999997,-3.22950827,0.02798548540676027,"{3: 1, 25: 8, 9: 33}","[3, 9, 25]",31933258,Li1Mn8F33
LiAgF3,mp-752699,0.0,-1.0254418,0.04922472699999858,"{3: 1, 47: 1, 9: 3}","[3, 9, 47]",3193471,Li1Ag1F3
Cs2LiF3,mp-553988,5.659000000000001,-1.37238004,0.04828632916666642,"{55: 2, 3: 1, 9: 3}","[3, 9, 55]",3193552,Cs2Li1F3
LiScF4,mp-559598,6.1137,-1.26596686,0.03340935250000143,"{3: 1, 21: 1, 9: 4}","[3, 9, 21]",3194211,Li1Sc1F4
LiVF4,mp-754895,2.4354,-0.12643999,0.0,"{3: 1, 23: 1, 9: 4}","[3, 9, 23]",3194231,Li1V1F4
LiCrF4,mp-759949,3.0313,-1.49312541,0.040724316874997335,"{3: 1, 24: 1, 9: 4}","[3, 9, 24]",3194241,Li1Cr1F4
LiMnF4,mp-558059,0.6967,-0.39304106,0.0,"{3: 1, 25: 1, 9: 4}","[3, 9, 25]",3194251,Li1Mn1F4
LiCoF4,mp-554689,1.9285,-1.90593437,0.0,"{3: 1, 27: 1, 9: 4}","[3, 9, 27]",3194271,Li1Co1F4
LiPu3,mp-1185480,0.0,12.99685541,0.7930550316666682,"{3: 1, 94: 3}","[3, 94]",31943,Li1Pu3
LiAgF4,mp-765559,1.1276,-2.87920756,0.0,"{3: 1, 47: 1, 9: 4}","[3, 9, 47]",3194471,Li1Ag1F4
LiAg2F4,mp-752666,0.0,-1.04257796,0.02873768428571566,"{3: 1, 47: 2, 9: 4}","[3, 9, 47]",3194472,Li1Ag2F4
LiInF4,mp-8892,4.0149,-0.60091062,0.0,"{3: 1, 49: 1, 9: 4}","[3, 9, 49]",3194491,Li1In1F4
LiSbF4,mp-1190441,5.135,-0.13097265,0.0009501893750023527,"{3: 1, 51: 1, 9: 4}","[3, 9, 51]",3194511,Li1Sb1F4
Cs3LiF4,mp-559766,5.6548,-1.42529759,0.012425062187499947,"{55: 3, 3: 1, 9: 4}","[3, 9, 55]",3194553,Cs3Li1F4
LiLuF4,mp-561430,7.754200000000001,-2.00572587,0.0,"{3: 1, 71: 1, 9: 4}","[3, 9, 71]",3194711,Li1Lu1F4
LiAuF4,mp-554442,1.9808999999999999,-1.08687858,0.0,"{3: 1, 79: 1, 9: 4}","[3, 9, 79]",3194791,Li1Au1F4
LiBiF4,mp-28567,4.8473,0.36807236,0.0,"{3: 1, 83: 1, 9: 4}","[3, 9, 83]",3194831,Li1Bi1F4
Li19V8(BO3)16,mp-1178191,0.5949000000000002,1.99477143,0.07867971089973125,"{3: 19, 23: 8, 5: 16, 8: 48}","[3, 5, 8, 23]",319516848238,Li19V8B16O48
KLiGdF5,mp-1211585,4.5921,-2.20251536,0.0,"{19: 1, 3: 1, 64: 1, 9: 5}","[3, 9, 19, 64]",3195191641,K1Li1Gd1F5
KLiTbF5,mp-1211435,7.3874,-2.39168502,0.0,"{19: 1, 3: 1, 65: 1, 9: 5}","[3, 9, 19, 65]",3195191651,K1Li1Tb1F5
KLiDyF5,mp-1211461,7.3887,-2.4108396,0.0,"{19: 1, 3: 1, 66: 1, 9: 5}","[3, 9, 19, 66]",3195191661,K1Li1Dy1F5
KLiHoF5,mp-1211494,7.378,-2.44613055,0.0,"{19: 1, 3: 1, 67: 1, 9: 5}","[3, 9, 19, 67]",3195191671,K1Li1Ho1F5
KLiErF5,mp-1211459,7.4694,-2.34141709,0.0014861681944431382,"{19: 1, 3: 1, 68: 1, 9: 5}","[3, 9, 19, 68]",3195191681,K1Li1Er1F5
KLiTmF5,mp-1194722,7.3809,-2.35928371,0.002222004166643643,"{19: 1, 3: 1, 69: 1, 9: 5}","[3, 9, 19, 69]",3195191691,K1Li1Tm1F5
KLiLuF5,mp-1211480,7.4932,-2.31197744,0.0,"{19: 1, 3: 1, 71: 1, 9: 5}","[3, 9, 19, 71]",3195191711,K1Li1Lu1F5
LiVF5,mp-761275,1.5917,-1.99753276,0.0015216778571405243,"{3: 1, 23: 1, 9: 5}","[3, 9, 23]",3195231,Li1V1F5
LiV2F5,mp-758252,2.2369,1.30528082,0.06369697937499996,"{3: 1, 23: 2, 9: 5}","[3, 9, 23]",3195232,Li1V2F5
LiMnF5,mp-753247,0.2643000000000004,-3.21285028,0.015321563273814398,"{3: 1, 25: 1, 9: 5}","[3, 9, 25]",3195251,Li1Mn1F5
LiMn2F5,mp-779085,3.0025,-0.6743531,0.03133148062500002,"{3: 1, 25: 2, 9: 5}","[3, 9, 25]",3195252,Li1Mn2F5
LiNbF5,mp-761164,0.0633999999999999,1.1923394,0.08813234076190568,"{3: 1, 41: 1, 9: 5}","[3, 9, 41]",3195411,Li1Nb1F5
LiAg2F5,mp-760273,0.0,-1.57118439,0.07972020421875037,"{3: 1, 47: 2, 9: 5}","[3, 9, 47]",3195472,Li1Ag2F5
LiCeF5,mp-1195868,2.2896,-1.30940816,0.0,"{3: 1, 58: 1, 9: 5}","[3, 9, 58]",3195581,Li1Ce1F5
LiBiF5,mp-752483,0.0,-1.32211812,0.06513066142857138,"{3: 1, 83: 1, 9: 5}","[3, 9, 83]",3195831,Li1Bi1F5
LiThF5,mp-1196169,6.5143,-1.37528962,0.0,"{3: 1, 90: 1, 9: 5}","[3, 9, 90]",3195901,Li1Th1F5
LiUF5,mp-27403,0.0,3.53166532,0.0,"{3: 1, 92: 1, 9: 5}","[3, 9, 92]",3195921,Li1U1F5
Cs2NaLiF6,mp-989559,0.0,-2.43178965,0.0,"{55: 2, 11: 1, 3: 1, 9: 6}","[3, 9, 11, 55]",3196111552,Cs2Na1Li1F6
Na2LiAlF6,mp-6604,7.6173,-1.37486321,0.010146466999999326,"{11: 2, 3: 1, 13: 1, 9: 6}","[3, 9, 11, 13]",3196112131,Na2Li1Al1F6
Na2LiScF6,mp-1113900,6.059800000000001,-2.0525,0.07875260583333255,"{11: 2, 3: 1, 21: 1, 9: 6}","[3, 9, 11, 21]",3196112211,Na2Li1Sc1F6
Na2LiTiF6,mp-1113901,0.0,3.6026148,0.06713659091666635,"{11: 2, 3: 1, 22: 1, 9: 6}","[3, 9, 11, 22]",3196112221,Na2Li1Ti1F6
Na2LiVF6,mp-1114229,0.0,1.48153131,0.13730785199999396,"{11: 2, 3: 1, 23: 1, 9: 6}","[3, 9, 11, 23]",3196112231,Na2Li1V1F6
Na2LiCrF6,mp-1114241,4.323,3.75569059,0.04913444208332862,"{11: 2, 3: 1, 24: 1, 9: 6}","[3, 9, 11, 24]",3196112241,Na2Li1Cr1F6
Na2LiMnF6,mp-1114240,0.0,0.69467051,0.10461474675001536,"{11: 2, 3: 1, 25: 1, 9: 6}","[3, 9, 11, 25]",3196112251,Na2Li1Mn1F6
Na2LiNiF6,mp-1114109,0.0,-0.65756232,0.06463079583333542,"{11: 2, 3: 1, 28: 1, 9: 6}","[3, 9, 11, 28]",3196112281,Na2Li1Ni1F6
Na2LiGaF6,mp-1114242,5.7453,-1.91916667,0.019078542666666642,"{11: 2, 3: 1, 31: 1, 9: 6}","[3, 9, 11, 31]",3196112311,Na2Li1Ga1F6
Na2LiAsF6,mp-1110998,4.3114,0.40020833,0.09459736524999762,"{11: 2, 3: 1, 33: 1, 9: 6}","[3, 9, 11, 33]",3196112331,Na2Li1As1F6
Na2LiNbF6,mp-1110637,0.0,3.11920357,0.18370168924999852,"{11: 2, 3: 1, 41: 1, 9: 6}","[3, 9, 11, 41]",3196112411,Na2Li1Nb1F6
Na2LiRuF6,mp-1110634,0.0,1.81956016,0.051654969083334557,"{11: 2, 3: 1, 44: 1, 9: 6}","[3, 9, 11, 44]",3196112441,Na2Li1Ru1F6
Na2LiRhF6,mp-1114234,1.8437999999999999,0.58833333,0.037087602999998914,"{11: 2, 3: 1, 45: 1, 9: 6}","[3, 9, 11, 45]",3196112451,Na2Li1Rh1F6
Na2LiPdF6,mp-1114237,0.0,0.49295928,0.10691902433332778,"{11: 2, 3: 1, 46: 1, 9: 6}","[3, 9, 11, 46]",3196112461,Na2Li1Pd1F6
Na2LiInF6,mp-1110904,4.8635,-1.4925,0.09833388349999872,"{11: 2, 3: 1, 49: 1, 9: 6}","[3, 9, 11, 49]",3196112491,Na2Li1In1F6
Na2LiSbF6,mp-1110657,3.6063,1.16020833,0.18038191700000183,"{11: 2, 3: 1, 51: 1, 9: 6}","[3, 9, 11, 51]",3196112511,Na2Li1Sb1F6
Na2LiIrF6,mp-1114239,2.1677,1.54833333,0.031441088600001166,"{11: 2, 3: 1, 77: 1, 9: 6}","[3, 9, 11, 77]",3196112771,Na2Li1Ir1F6
Na2LiAuF6,mp-1110991,0.4175,-0.31958333,0.19720161000000225,"{11: 2, 3: 1, 79: 1, 9: 6}","[3, 9, 11, 79]",3196112791,Na2Li1Au1F6
Na2LiTlF6,mp-1110629,3.372,-1.5525,0.05761538724999937,"{11: 2, 3: 1, 81: 1, 9: 6}","[3, 9, 11, 81]",3196112811,Na2Li1Tl1F6
Na2LiBiF6,mp-1110905,4.3529,-0.15958333,0.158474526,"{11: 2, 3: 1, 83: 1, 9: 6}","[3, 9, 11, 83]",3196112831,Na2Li1Bi1F6
LiMgAlF6,mp-1193222,7.5661000000000005,-1.08540062,0.0,"{3: 1, 12: 1, 13: 1, 9: 6}","[3, 9, 12, 13]",3196121131,Li1Mg1Al1F6
LiMgCoF6,mp-1222326,2.4806,-1.54076738,0.06915022499999868,"{3: 1, 12: 1, 27: 1, 9: 6}","[3, 9, 12, 27]",3196121271,Li1Mg1Co1F6
K2LiAlF6,mp-556996,7.2639,-1.66346259,0.0,"{19: 2, 3: 1, 13: 1, 9: 6}","[3, 9, 13, 19]",3196131192,K2Li1Al1F6
LiCaAlF6,mp-6134,7.6448,-1.56207559,0.0,"{3: 1, 20: 1, 13: 1, 9: 6}","[3, 9, 13, 20]",3196131201,Li1Ca1Al1F6
Rb2LiAlF6,mp-1113747,7.248,-1.74583333,0.0006329308333334893,"{37: 2, 3: 1, 13: 1, 9: 6}","[3, 9, 13, 37]",3196131372,Rb2Li1Al1F6
SrLiAlF6,mp-6591,7.3154,-1.93181731,0.0,"{38: 1, 3: 1, 13: 1, 9: 6}","[3, 9, 13, 38]",3196131381,Sr1Li1Al1F6
LiAlPdF6,mp-9055,1.0557,0.52232232,0.01981773537037057,"{3: 1, 13: 1, 46: 1, 9: 6}","[3, 9, 13, 46]",3196131461,Li1Al1Pd1F6
Cs2LiAlF6,mp-1206808,6.8832,-1.82513675,0.0,"{55: 2, 3: 1, 13: 1, 9: 6}","[3, 9, 13, 55]",3196131552,Cs2Li1Al1F6
LiSmAlF6,mp-8315,0.0,5.3654015,0.24764692370370334,"{3: 1, 62: 1, 13: 1, 9: 6}","[3, 9, 13, 62]",3196131621,Li1Sm1Al1F6
LiPF6,mp-9143,7.5394,-2.51130773,0.0,"{3: 1, 15: 1, 9: 6}","[3, 9, 15]",3196151,Li1P1F6
Li19Mn8C16(SO16)4,mp-776592,0.1016999999999999,1.00641951,0.06587919759008987,"{3: 19, 25: 8, 6: 16, 16: 4, 8: 64}","[3, 6, 8, 16, 25]",319616864164258,Li19Mn8C16S4O64
K2LiScF6,mp-1111110,6.773300000000001,-2.40583333,0.0,"{19: 2, 3: 1, 21: 1, 9: 6}","[3, 9, 19, 21]",3196192211,K2Li1Sc1F6
K2LiTiF6,mp-1111107,0.0,3.0725832,0.003204362000000849,"{19: 2, 3: 1, 22: 1, 9: 6}","[3, 9, 19, 22]",3196192221,K2Li1Ti1F6
K2LiVF6,mp-1111921,0.0,0.74774443,0.03412935487500146,"{19: 2, 3: 1, 23: 1, 9: 6}","[3, 9, 19, 23]",3196192231,K2Li1V1F6
K2LiCrF6,mp-1111927,4.1644,2.88737754,0.0,"{19: 2, 3: 1, 24: 1, 9: 6}","[3, 9, 19, 24]",3196192241,K2Li1Cr1F6
K2LiMnF6,mp-1111670,0.0,0.09157051,0.019628481000000697,"{19: 2, 3: 1, 25: 1, 9: 6}","[3, 9, 19, 25]",3196192251,K2Li1Mn1F6
K2LiCoF6,mp-1111150,0.0,-0.45485693,0.0,"{19: 2, 3: 1, 27: 1, 9: 6}","[3, 9, 19, 27]",3196192271,K2Li1Co1F6
K2LiNiF6,mp-1111147,0.0,-1.25780664,0.022245482000003314,"{19: 2, 3: 1, 28: 1, 9: 6}","[3, 9, 19, 28]",3196192281,K2Li1Ni1F6
K2LiGaF6,mp-1111112,6.1271,-2.35916667,0.0,"{19: 2, 3: 1, 31: 1, 9: 6}","[3, 9, 19, 31]",3196192311,K2Li1Ga1F6
K2LiAsF6,mp-1111928,4.5591,-0.15958333,0.002892717124995059,"{19: 2, 3: 1, 33: 1, 9: 6}","[3, 9, 19, 33]",3196192331,K2Li1As1F6
K2LiNbF6,mp-1111109,0.0,2.71892605,0.09493682295000205,"{19: 2, 3: 1, 41: 1, 9: 6}","[3, 9, 19, 41]",3196192411,K2Li1Nb1F6
K2LiMoF6,mp-1110837,4.4161,4.66267797,0.0,"{19: 2, 3: 1, 42: 1, 9: 6}","[3, 9, 19, 42]",3196192421,K2Li1Mo1F6
K2LiRuF6,mp-1111923,0.0,1.37496162,0.0,"{19: 2, 3: 1, 44: 1, 9: 6}","[3, 9, 19, 44]",3196192441,K2Li1Ru1F6
K2LiRhF6,mp-1111665,1.7665,0.14166667,0.0,"{19: 2, 3: 1, 45: 1, 9: 6}","[3, 9, 19, 45]",3196192451,K2Li1Rh1F6
K2LiPdF6,mp-1205646,0.37870000000000004,-0.17400852,0.020373289999996658,"{19: 2, 3: 1, 46: 1, 9: 6}","[3, 9, 19, 46]",3196192461,K2Li1Pd1F6
K2LiInF6,mp-1111671,5.2984,-1.82583333,0.0,"{19: 2, 3: 1, 49: 1, 9: 6}","[3, 9, 19, 49]",3196192491,K2Li1In1F6
K2LiSbF6,mp-1110835,4.1086,0.68041667,0.07328382549999901,"{19: 2, 3: 1, 51: 1, 9: 6}","[3, 9, 19, 51]",3196192511,K2Li1Sb1F6
K2LiCeF6,mp-1112201,0.5647999999999995,3.58833333,0.08892348475000134,"{19: 2, 3: 1, 58: 1, 9: 6}","[3, 9, 19, 58]",3196192581,K2Li1Ce1F6
K2LiNdF6,mp-1110836,6.379099999999999,-2.63916667,0.08822010831249028,"{19: 2, 3: 1, 60: 1, 9: 6}","[3, 9, 19, 60]",3196192601,K2Li1Nd1F6
K2LiTaF6,mp-1112863,0.3073999999999999,3.4275,0.22319725960000625,"{19: 2, 3: 1, 73: 1, 9: 6}","[3, 9, 19, 73]",3196192731,K2Li1Ta1F6
K2LiIrF6,mp-1111926,2.0831999999999997,1.10166667,0.01829661299999863,"{19: 2, 3: 1, 77: 1, 9: 6}","[3, 9, 19, 77]",3196192771,K2Li1Ir1F6
K2LiAuF6,mp-1111111,0.44989999999999997,-0.7525,0.09953489100000112,"{19: 2, 3: 1, 79: 1, 9: 6}","[3, 9, 19, 79]",3196192791,K2Li1Au1F6
K2LiTlF6,mp-1111658,3.5058,-1.85916667,0.005783712958332465,"{19: 2, 3: 1, 81: 1, 9: 6}","[3, 9, 19, 81]",3196192811,K2Li1Tl1F6
K2LiBiF6,mp-1110838,4.8822,-0.51958333,0.05544520524999985,"{19: 2, 3: 1, 83: 1, 9: 6}","[3, 9, 19, 83]",3196192831,K2Li1Bi1F6
LiCaVF6,mp-1211094,2.6309,0.00859792,0.0,"{3: 1, 20: 1, 23: 1, 9: 6}","[3, 9, 20, 23]",3196201231,Li1Ca1V1F6
LiCaCrF6,mp-556792,4.0967,-1.04716067,0.0,"{3: 1, 20: 1, 24: 1, 9: 6}","[3, 9, 20, 24]",3196201241,Li1Ca1Cr1F6
LiCaCoF6,mp-555143,0.0,-0.26804485,0.013648328333331072,"{3: 1, 20: 1, 27: 1, 9: 6}","[3, 9, 20, 27]",3196201271,Li1Ca1Co1F6
LiCaNiF6,mp-559584,0.0,-1.33391318,0.0,"{3: 1, 20: 1, 28: 1, 9: 6}","[3, 9, 20, 28]",3196201281,Li1Ca1Ni1F6
LiCaGaF6,mp-12829,6.4003,-2.33064527,0.0,"{3: 1, 20: 1, 31: 1, 9: 6}","[3, 9, 20, 31]",3196201311,Li1Ca1Ga1F6
Rb2LiScF6,mp-1113703,6.7042,-2.35916667,0.0,"{37: 2, 3: 1, 21: 1, 9: 6}","[3, 9, 21, 37]",3196211372,Rb2Li1Sc1F6
Cs2LiScF6,mp-1113081,6.6268,-1.905,0.02266399300000188,"{55: 2, 3: 1, 21: 1, 9: 6}","[3, 9, 21, 55]",3196211552,Cs2Li1Sc1F6
LiTiMnF6,mp-17467,0.09660000000000002,3.26448765,0.023841912222222206,"{3: 1, 22: 1, 25: 1, 9: 6}","[3, 9, 22, 25]",3196221251,Li1Ti1Mn1F6
LiTiCoF6,mp-1211111,0.0028999999999999027,2.95790117,0.11308747972221944,"{3: 1, 22: 1, 27: 1, 9: 6}","[3, 9, 22, 27]",3196221271,Li1Ti1Co1F6
LiTiNiF6,mp-1210957,0.24520000000000008,3.31035442,0.09679697157407308,"{3: 1, 22: 1, 28: 1, 9: 6}","[3, 9, 22, 28]",3196221281,Li1Ti1Ni1F6
Rb2LiTiF6,mp-1113704,0.0,3.0151686,0.0,"{37: 2, 3: 1, 22: 1, 9: 6}","[3, 9, 22, 37]",3196221372,Rb2Li1Ti1F6
SrLiTiF6,mp-1208599,0.0,2.82674613,0.01811019166666572,"{38: 1, 3: 1, 22: 1, 9: 6}","[3, 9, 22, 38]",3196221381,Sr1Li1Ti1F6
LiVF6,mp-2710677,3.0939,-4.03899405,0.0,"{3: 1, 23: 1, 9: 6}","[3, 9, 23]",3196231,Li1V1F6
LiMnVF6,mp-1193542,2.3554,0.25506469,0.00480552685185387,"{3: 1, 25: 1, 23: 1, 9: 6}","[3, 9, 23, 25]",3196231251,Li1Mn1V1F6
Rb2LiVF6,mp-1113694,0.0,0.87852634,0.003611295499987399,"{37: 2, 3: 1, 23: 1, 9: 6}","[3, 9, 23, 37]",3196231372,Rb2Li1V1F6
SrLiVF6,mp-1208625,2.6226,2.24920353,0.0,"{38: 1, 3: 1, 23: 1, 9: 6}","[3, 9, 23, 38]",3196231381,Sr1Li1V1F6
LiVCdF6,mp-1210866,2.5717999999999996,-0.18309797,0.0026161033333611527,"{3: 1, 23: 1, 48: 1, 9: 6}","[3, 9, 23, 48]",3196231481,Li1V1Cd1F6
LiV2F6,mp-559701,0.0,2.06145547,0.007587577777777632,"{3: 1, 23: 2, 9: 6}","[3, 9, 23]",3196232,Li1V2F6
SrLiCrF6,mp-1208634,4.3642,2.81283977,0.0,"{38: 1, 3: 1, 24: 1, 9: 6}","[3, 9, 24, 38]",3196241381,Sr1Li1Cr1F6
LiCrCdF6,mp-1211098,3.9378,2.40602247,0.0,"{3: 1, 24: 1, 48: 1, 9: 6}","[3, 9, 24, 48]",3196241481,Li1Cr1Cd1F6
Cs2LiCrF6,mp-1206440,4.3359000000000005,-1.19883146,0.0,"{55: 2, 3: 1, 24: 1, 9: 6}","[3, 9, 24, 55]",3196241552,Cs2Li1Cr1F6
LiMnF6,mp-752752,0.0,-3.70982159,0.0,"{3: 1, 25: 1, 9: 6}","[3, 9, 25]",3196251,Li1Mn1F6
LiMnGaF6,mp-504460,3.7836,-0.53453743,0.0,"{3: 1, 25: 1, 31: 1, 9: 6}","[3, 9, 25, 31]",3196251311,Li1Mn1Ga1F6
Rb2LiMnF6,mp-1113711,0.0,0.00696679,0.061861960999994636,"{37: 2, 3: 1, 25: 1, 9: 6}","[3, 9, 25, 37]",3196251372,Rb2Li1Mn1F6
LiMn2F6,mp-757174,0.0,0.5263384,0.013974964166663995,"{3: 1, 25: 2, 9: 6}","[3, 9, 25]",3196252,Li1Mn2F6
LiCoNiF6,mp-1222369,1.7138999999999998,-1.13800815,0.002659737222221459,"{3: 1, 27: 1, 28: 1, 9: 6}","[3, 9, 27, 28]",3196271281,Li1Co1Ni1F6
Rb2LiCoF6,mp-1113736,2.8411,1.24836996,0.0,"{37: 2, 3: 1, 27: 1, 9: 6}","[3, 9, 27, 37]",3196271372,Rb2Li1Co1F6
SrLiCoF6,mp-554131,1.7699,-1.88996858,0.042132915000000715,"{38: 1, 3: 1, 27: 1, 9: 6}","[3, 9, 27, 38]",3196271381,Sr1Li1Co1F6
LiCdCoF6,mp-558057,0.0,-0.56661028,0.025714041111110753,"{3: 1, 48: 1, 27: 1, 9: 6}","[3, 9, 27, 48]",3196271481,Li1Cd1Co1F6
Rb2LiNiF6,mp-1113709,0.0,-1.36830055,0.047657322500001875,"{37: 2, 3: 1, 28: 1, 9: 6}","[3, 9, 28, 37]",3196281372,Rb2Li1Ni1F6
SrLiNiF6,mp-559663,0.0,-1.56793954,0.0,"{38: 1, 3: 1, 28: 1, 9: 6}","[3, 9, 28, 38]",3196281381,Sr1Li1Ni1F6
LiNiRhF6,mp-1222366,1.6961,0.76334004,0.0,"{3: 1, 28: 1, 45: 1, 9: 6}","[3, 9, 28, 45]",3196281451,Li1Ni1Rh1F6
LiZnF6,mp-2647071,0.0,-3.53757047,0.0534448415625004,"{3: 1, 30: 1, 9: 6}","[3, 9, 30]",3196301,Li1Zn1F6
LiZnRhF6,mp-1222336,1.5896,0.03770193,0.0,"{3: 1, 30: 1, 45: 1, 9: 6}","[3, 9, 30, 45]",3196301451,Li1Zn1Rh1F6
LiZnInF6,mp-1210934,4.052,-1.16224735,0.019219302037038588,"{3: 1, 30: 1, 49: 1, 9: 6}","[3, 9, 30, 49]",3196301491,Li1Zn1In1F6
Rb2LiGaF6,mp-14638,6.1124,-2.38866926,0.0,"{37: 2, 3: 1, 31: 1, 9: 6}","[3, 9, 31, 37]",3196311372,Rb2Li1Ga1F6
SrLiGaF6,mp-1208619,6.3568999999999996,3.61073732,0.0,"{38: 1, 3: 1, 31: 1, 9: 6}","[3, 9, 31, 38]",3196311381,Sr1Li1Ga1F6
LiGaPdF6,mp-9245,0.0,0.41699582,0.007748530864198244,"{3: 1, 31: 1, 46: 1, 9: 6}","[3, 9, 31, 46]",3196311461,Li1Ga1Pd1F6
Cs2LiGaF6,mp-6654,6.1433,-2.38303828,0.0,"{55: 2, 3: 1, 31: 1, 9: 6}","[3, 9, 31, 55]",3196311552,Cs2Li1Ga1F6
LiTl2GaF6,mp-989577,4.262300000000001,0.94697041,0.0,"{3: 1, 81: 2, 31: 1, 9: 6}","[3, 9, 31, 81]",3196311812,Li1Tl2Ga1F6
LiAsF6,mp-9144,5.1404,-3.13908986,0.0,"{3: 1, 33: 1, 9: 6}","[3, 9, 33]",3196331,Li1As1F6
Rb2LiAsF6,mp-1113748,4.5851,-0.27291667,0.0,"{37: 2, 3: 1, 33: 1, 9: 6}","[3, 9, 33, 37]",3196331372,Rb2Li1As1F6
Rb2LiNbF6,mp-1110630,0.0,2.71277504,0.08129740175000055,"{37: 2, 3: 1, 41: 1, 9: 6}","[3, 9, 37, 41]",3196372411,Rb2Li1Nb1F6
Rb2LiMoF6,mp-1110654,4.622999999999999,4.84376924,0.0,"{37: 2, 3: 1, 42: 1, 9: 6}","[3, 9, 37, 42]",3196372421,Rb2Li1Mo1F6
Rb2LiRuF6,mp-1113705,0.0,1.32274036,0.0,"{37: 2, 3: 1, 44: 1, 9: 6}","[3, 9, 37, 44]",3196372441,Rb2Li1Ru1F6
Rb2LiRhF6,mp-1113707,1.7225,0.12166667,0.0,"{37: 2, 3: 1, 45: 1, 9: 6}","[3, 9, 37, 45]",3196372451,Rb2Li1Rh1F6
Rb2LiPdF6,mp-1113706,0.0,-0.04083076,0.04159979775000089,"{37: 2, 3: 1, 46: 1, 9: 6}","[3, 9, 37, 46]",3196372461,Rb2Li1Pd1F6
Rb2LiInF6,mp-1113733,5.2622,-1.81916667,0.0,"{37: 2, 3: 1, 49: 1, 9: 6}","[3, 9, 37, 49]",3196372491,Rb2Li1In1F6
Rb2LiSbF6,mp-1110651,4.2054,0.57416667,0.01836166175000198,"{37: 2, 3: 1, 51: 1, 9: 6}","[3, 9, 37, 51]",3196372511,Rb2Li1Sb1F6
Rb2LiCeF6,mp-1110655,0.5522,3.57,0.02347147374999814,"{37: 2, 3: 1, 58: 1, 9: 6}","[3, 9, 37, 58]",3196372581,Rb2Li1Ce1F6
Rb2LiPrF6,mp-1110652,6.547000000000001,-2.51833333,0.0626875250000003,"{37: 2, 3: 1, 59: 1, 9: 6}","[3, 9, 37, 59]",3196372591,Rb2Li1Pr1F6
Rb2LiNdF6,mp-1110653,6.6083,-2.54583333,0.05083280400000145,"{37: 2, 3: 1, 60: 1, 9: 6}","[3, 9, 37, 60]",3196372601,Rb2Li1Nd1F6
Rb2LiTaF6,mp-1110650,0.0,3.67340067,0.2376124715066661,"{37: 2, 3: 1, 73: 1, 9: 6}","[3, 9, 37, 73]",3196372731,Rb2Li1Ta1F6
Rb2LiIrF6,mp-1113710,2.024,1.06833333,0.034208538250000586,"{37: 2, 3: 1, 77: 1, 9: 6}","[3, 9, 37, 77]",3196372771,Rb2Li1Ir1F6
Rb2LiAuF6,mp-1113735,0.4775,-0.79916667,0.09124064599999748,"{37: 2, 3: 1, 79: 1, 9: 6}","[3, 9, 37, 79]",3196372791,Rb2Li1Au1F6
Rb2LiTlF6,mp-1113693,3.4666,-1.87916667,0.0,"{37: 2, 3: 1, 81: 1, 9: 6}","[3, 9, 37, 81]",3196372811,Rb2Li1Tl1F6
Rb2LiBiF6,mp-1110656,4.9741,-0.53958333,0.011539821500002212,"{37: 2, 3: 1, 83: 1, 9: 6}","[3, 9, 37, 83]",3196372831,Rb2Li1Bi1F6
LiNbF6,mp-1078799,4.7969,-3.96425296,0.0,"{3: 1, 41: 1, 9: 6}","[3, 9, 41]",3196411,Li1Nb1F6
Cs2LiNbF6,mp-1112580,0.0,3.13003971,0.11591229949999615,"{55: 2, 3: 1, 41: 1, 9: 6}","[3, 9, 41, 55]",3196411552,Cs2Li1Nb1F6
Cs2LiMoF6,mp-1110974,4.8178,5.40612806,0.0,"{55: 2, 3: 1, 42: 1, 9: 6}","[3, 9, 42, 55]",3196421552,Cs2Li1Mo1F6
LiRuF6,mp-1078834,0.9999,-1.80409823,0.0,"{3: 1, 44: 1, 9: 6}","[3, 9, 44]",3196441,Li1Ru1F6
LiRhF6,mp-11171,0.0,-2.06744738,0.0,"{3: 1, 45: 1, 9: 6}","[3, 9, 45]",3196451,Li1Rh1F6
Cs2LiPdF6,mp-1112572,0.0,0.35870372,0.0869505926249925,"{55: 2, 3: 1, 46: 1, 9: 6}","[3, 9, 46, 55]",3196461552,Cs2Li1Pd1F6
LiAgF6,mp-859118,0.45920000000000005,-2.99858374,0.06984488187499327,"{3: 1, 47: 1, 9: 6}","[3, 9, 47]",3196471,Li1Ag1F6
LiAg2F6,mp-765566,0.0,-1.42670581,0.023861040185181537,"{3: 1, 47: 2, 9: 6}","[3, 9, 47]",3196472,Li1Ag2F6