formula,material_id,band_gap,efermi,energy_above_hull,comp_atoms,sorted_keys_comp_atoms,comp_number,new_formula
NaLiB2(H5N)2,mp-1203079,4.0857,2.6281151,0.09907675114583103,"{11: 1, 3: 1, 5: 2, 1: 10, 7: 2}","[1, 3, 5, 7, 11]",110315272111,Na1Li1B2H10N2
LiB6(H5O)2,mp-1198595,5.3429,3.30550538,0.12105385748144037,"{3: 1, 5: 6, 1: 10, 8: 2}","[1, 3, 5, 8]",110315682,Li1B6H10O2
LiMnP3(H5O7)2,mp-1204876,4.0589,0.06116208,0.033185965344825874,"{3: 1, 25: 1, 15: 3, 1: 10, 8: 14}","[1, 3, 8, 15, 25]",11031814153251,Li1Mn1P3H10O14
K2LiV5H10O19,mp-1203349,2.5943,-0.79922151,0.024092448175695225,"{19: 2, 3: 1, 23: 5, 1: 10, 8: 19}","[1, 3, 8, 19, 23]",11031819192235,K2Li1V5H10O19
Li2H10C8O7F18,mp-1199620,5.4884,-1.875084,0.19412254416666475,"{3: 2, 1: 10, 6: 8, 8: 7, 9: 18}","[1, 3, 6, 8, 9]",110326887918,Li2H10C8O7F18
Li2Sn(H5O4)2,mp-1195757,4.465,3.89273369,0.0,"{3: 2, 50: 1, 1: 10, 8: 8}","[1, 3, 8, 50]",1103288501,Li2Sn1H10O8
Li4BH10N3,mp-1201205,3.588,-1.42426133,0.05916480569444538,"{3: 4, 5: 1, 1: 10, 7: 3}","[1, 3, 5, 7]",110345173,Li4B1H10N3
NaLi4(H2N)5,mp-1221130,2.6774,-0.83200984,0.0017297200000001567,"{11: 1, 3: 4, 1: 10, 7: 5}","[1, 3, 7, 11]",1103475111,Na1Li4H10N5
LiB2H11N2,mp-1196441,4.508900000000001,-1.6068041,0.07247056046874878,"{3: 1, 5: 2, 1: 11, 7: 2}","[1, 3, 5, 7]",111315272,Li1B2H11N2
LiMn2P4H11O18,mp-780468,4.4277,0.68630273,0.043060408553233565,"{3: 1, 25: 2, 15: 4, 1: 11, 8: 18}","[1, 3, 8, 15, 25]",11131818154252,Li1Mn2P4H11O18
Li2(BH)11,mp-1210701,3.8952999999999998,2.05271529,0.09810739662202117,"{3: 2, 5: 11, 1: 11}","[1, 3, 5]",11132511,Li2B11H11
LiMg(AlH4)3,mp-1180600,5.0326,-2.35313531,0.032821187205881674,"{3: 1, 12: 1, 13: 3, 1: 12}","[1, 3, 12, 13]",11231121133,Li1Mg1Al3H12
LiB(H3N)4,mp-1201648,5.2719000000000005,2.80272208,0.23396853796296213,"{3: 1, 5: 1, 1: 12, 7: 4}","[1, 3, 5, 7]",112315174,Li1B1H12N4
LiZn(BH4)3,mp-1204713,4.8749,-3.457036,0.02788677536765416,"{3: 1, 30: 1, 5: 3, 1: 12}","[1, 3, 5, 30]",1123153301,Li1Zn1B3H12
LiAl(H3C)4,mp-1204749,4.4613,-2.40073805,0.057167785763889256,"{3: 1, 13: 1, 1: 12, 6: 4}","[1, 3, 6, 13]",1123164131,Li1Al1H12C4
LiH12AuC4(SO3)4,mp-1196087,2.0848,-0.08829253,0.3076391981617652,"{3: 1, 1: 12, 79: 1, 6: 4, 16: 4, 8: 12}","[1, 3, 6, 8, 16, 79]",1123164812164791,Li1H12Au1C4S4O12
Li(H3N)4,mp-707454,0.0,0.87641104,0.028140178529412196,"{3: 1, 1: 12, 7: 4}","[1, 3, 7]",1123174,Li1H12N4
RbLiH12Se3N4,mp-866716,0.8006,0.60639806,0.0,"{37: 1, 3: 1, 1: 12, 34: 3, 7: 4}","[1, 3, 7, 34, 37]",1123174343371,Rb1Li1H12Se3N4
LiTe(H3N)4,mp-773582,1.2814999999999999,0.5513294,0.0,"{3: 1, 52: 1, 1: 12, 7: 4}","[1, 3, 7, 52]",1123174521,Li1Te1H12N4
LiMnP(H6O5)2,mp-850407,4.1674,-0.68235769,0.037917680300000534,"{3: 1, 25: 1, 15: 1, 1: 12, 8: 10}","[1, 3, 8, 15, 25]",11231810151251,Li1Mn1P1H12O10
Na3LiMo2(H6O7)2,mp-735483,4.6221,-1.65292499,0.008728226875000189,"{11: 3, 3: 1, 42: 2, 1: 12, 8: 14}","[1, 3, 8, 11, 42]",11231814113422,Na3Li1Mo2H12O14
LiNiH12(SO7)2,mp-781684,0.47409999999999997,-0.67494002,0.06441962562499892,"{3: 1, 28: 1, 1: 12, 16: 2, 8: 14}","[1, 3, 8, 16, 28]",11231814162281,Li1Ni1H12S2O14
LiVP4(H2O3)6,mp-778976,2.9371,0.33560635,0.05779120648859948,"{3: 1, 23: 1, 15: 4, 1: 12, 8: 18}","[1, 3, 8, 15, 23]",11231818154231,Li1V1P4H12O18
Li2H12C3SN6O7,mp-722272,5.0205,-0.80914702,0.0028289384231383607,"{3: 2, 1: 12, 6: 3, 16: 1, 7: 6, 8: 7}","[1, 3, 6, 7, 8, 16]",11232637687161,Li2H12C3S1N6O7
Li2H12C8N2O13,mp-1211107,2.4009,0.86291564,0.10579409111486271,"{3: 2, 1: 12, 6: 8, 7: 2, 8: 13}","[1, 3, 6, 7, 8]",112326872813,Li2H12C8N2O13
Li2CoH12(SO7)2,mp-770638,3.3284000000000002,-0.02851532,0.068448860887103,"{3: 2, 27: 1, 1: 12, 16: 2, 8: 14}","[1, 3, 8, 16, 27]",11232814162271,Li2Co1H12S2O14
Li2NiH12(SO7)2,mp-771658,4.8361,-0.49477678,0.0453213330645168,"{3: 2, 28: 1, 1: 12, 16: 2, 8: 14}","[1, 3, 8, 16, 28]",11232814162281,Li2Ni1H12S2O14
Li2V2P2(H4O5)3,mp-831190,2.1731,1.18878655,0.036825581439401844,"{3: 2, 23: 2, 15: 2, 1: 12, 8: 15}","[1, 3, 8, 15, 23]",11232815152232,Li2V2P2H12O15
Li2Mn2P2(H4O5)3,mp-1177931,2.0708,-0.43302267,0.05849860173611443,"{3: 2, 25: 2, 15: 2, 1: 12, 8: 15}","[1, 3, 8, 15, 25]",11232815152252,Li2Mn2P2H12O15
Li2VP4(H2O3)6,mp-780300,2.6006,2.09857459,0.029240368123119254,"{3: 2, 23: 1, 15: 4, 1: 12, 8: 18}","[1, 3, 8, 15, 23]",11232818154231,Li2V1P4H12O18
Li2CrP4(H2O3)6,mp-778674,2.4080000000000004,2.06616491,0.033896985168915705,"{3: 2, 24: 1, 15: 4, 1: 12, 8: 18}","[1, 3, 8, 15, 24]",11232818154241,Li2Cr1P4H12O18
Li2Ga3Te6(HO2)12,mp-1181127,0.0,-0.04304387,0.0585144496648935,"{3: 2, 31: 3, 52: 6, 1: 12, 8: 24}","[1, 3, 8, 31, 52]",11232824313526,Li2Ga3Te6H12O24
Li3CrH12(CO3)6,mp-774905,0.0,0.17732625,0.04439214234374944,"{3: 3, 24: 1, 1: 12, 6: 6, 8: 18}","[1, 3, 6, 8, 24]",1123366818241,Li3Cr1H12C6O18
Li3V(H6O5)2,mp-1193122,4.0668,2.17324927,0.008036281346158525,"{3: 3, 23: 1, 1: 12, 8: 10}","[1, 3, 8, 23]",11233810231,Li3V1H12O10
Li3Mn4P3H12O19,mp-759055,2.5572,0.98203863,0.07617068652437986,"{3: 3, 25: 4, 15: 3, 1: 12, 8: 19}","[1, 3, 8, 15, 25]",11233819153254,Li3Mn4P3H12O19
Li4Zn(H2N)6,mp-1194891,2.6176,1.4801319,0.0,"{3: 4, 30: 1, 1: 12, 7: 6}","[1, 3, 7, 30]",1123476301,Li4Zn1H12N6
LiH,mp-23703,2.981,-0.99767685,0.0,"{3: 1, 1: 1}","[1, 3]",1131,Li1H1
LiHS,mp-644419,3.5253,-0.10720894,0.0,"{3: 1, 1: 1, 16: 1}","[1, 3, 16]",1131161,Li1H1S1
LiCa3As2H,mp-1192528,1.4416999999999995,2.72117019,0.0,"{3: 1, 20: 3, 33: 2, 1: 1}","[1, 3, 20, 33]",1131203332,Li1Ca3As2H1
Sr3LiAs2H,mp-1192357,1.4556,2.26704998,0.0,"{38: 3, 3: 1, 33: 2, 1: 1}","[1, 3, 33, 38]",1131332383,Sr3Li1As2H1
LiHPd,mp-1018133,0.0,3.93875244,0.0,"{3: 1, 1: 1, 46: 1}","[1, 3, 46]",1131461,Li1H1Pd1
LiBH,mp-23694,0.0,1.54563464,0.12600371779761765,"{3: 1, 5: 1, 1: 1}","[1, 3, 5]",113151,Li1B1H1
NaLiSiB3HO8,mp-558267,5.0818,0.62636467,0.0,"{11: 1, 3: 1, 14: 1, 5: 3, 1: 1, 8: 8}","[1, 3, 5, 8, 11, 14]",11315388111141,Na1Li1Si1B3H1O8
LiHCO2,mp-738714,4.8357,-2.39023112,0.10445376224999858,"{3: 1, 1: 1, 6: 1, 8: 2}","[1, 3, 6, 8]",11316182,Li1H1C1O2
LiH(CO2)2,mp-1210976,2.9357,-1.5715467,0.41482261531249964,"{3: 1, 1: 1, 6: 2, 8: 4}","[1, 3, 6, 8]",11316284,Li1H1C2O4
LiCa2HC3,mp-1104693,1.2992,3.79123141,0.0,"{3: 1, 20: 2, 1: 1, 6: 3}","[1, 3, 6, 20]",113163202,Li1Ca2H1C3
LiHO,mp-23856,4.0057,-1.90379562,0.0,"{3: 1, 1: 1, 8: 1}","[1, 3, 8]",113181,Li1H1O1
KLiMnP3HO10,mp-759967,3.4165,1.2333532,0.04453103781142698,"{19: 1, 3: 1, 25: 1, 15: 3, 1: 1, 8: 10}","[1, 3, 8, 15, 19, 25]",1131810153191251,K1Li1Mn1P3H1O10
LiVP3HO10,mp-849372,1.9301,0.34551091,0.036547883282179505,"{3: 1, 23: 1, 15: 3, 1: 1, 8: 10}","[1, 3, 8, 15, 23]",1131810153231,Li1V1P3H1O10
LiMnP3HO10,mp-849312,3.7843,-0.4445769,0.03318649260416695,"{3: 1, 25: 1, 15: 3, 1: 1, 8: 10}","[1, 3, 8, 15, 25]",1131810153251,Li1Mn1P3H1O10
RbLiMnP3HO10,mp-760023,3.3554999999999997,1.40732009,0.018424930637252146,"{37: 1, 3: 1, 25: 1, 15: 3, 1: 1, 8: 10}","[1, 3, 8, 15, 25, 37]",1131810153251371,Rb1Li1Mn1P3H1O10
CsLiMnP3HO10,mp-752778,2.0233000000000003,2.82416033,0.04867522977939753,"{55: 1, 3: 1, 25: 1, 15: 3, 1: 1, 8: 10}","[1, 3, 8, 15, 25, 55]",1131810153251551,Cs1Li1Mn1P3H1O10
LiCa2Mn2Si5HO15,mp-1202461,3.4069000000000003,3.10937681,0.0,"{3: 1, 20: 2, 25: 2, 14: 5, 1: 1, 8: 15}","[1, 3, 8, 14, 20, 25]",1131815145202252,Li1Ca2Mn2Si5H1O15
LiCd4Ge5HO15,mp-24405,1.8714,0.35336719,0.012719445745196012,"{3: 1, 48: 4, 32: 5, 1: 1, 8: 15}","[1, 3, 8, 32, 48]",1131815325484,Li1Cd4Ge5H1O15
LiHO2,mp-632417,0.0,-1.37314339,0.4348323245833319,"{3: 1, 1: 1, 8: 2}","[1, 3, 8]",113182,Li1H1O2
LiTlPHO3,mp-772968,3.7371999999999996,1.20583274,0.0,"{3: 1, 81: 1, 15: 1, 1: 1, 8: 3}","[1, 3, 8, 15, 81]",113183151811,Li1Tl1P1H1O3
LiHSeO3,mp-23843,4.3019,-0.59750214,0.0,"{3: 1, 1: 1, 34: 1, 8: 3}","[1, 3, 8, 34]",113183341,Li1H1Se1O3
LiLa2HO3,mp-24148,1.9577999999999998,7.05460997,0.020477670357140987,"{3: 1, 57: 2, 1: 1, 8: 3}","[1, 3, 8, 57]",113183572,Li1La2H1O3
LiCe2HO3,mp-24149,0.0,8.29436424,0.03493744374999963,"{3: 1, 58: 2, 1: 1, 8: 3}","[1, 3, 8, 58]",113183582,Li1Ce2H1O3
LiNd2HO3,mp-24150,1.8718999999999997,3.43868563,0.020565308214283817,"{3: 1, 60: 2, 1: 1, 8: 3}","[1, 3, 8, 60]",113183602,Li1Nd2H1O3
LiHSO4,mp-643458,5.9636,-1.02322675,0.0,"{3: 1, 1: 1, 16: 1, 8: 4}","[1, 3, 8, 16]",113184161,Li1H1S1O4
RbLiMoHO4,mp-1209550,2.6601999999999997,1.01619521,0.3913680685937333,"{37: 1, 3: 1, 42: 1, 1: 1, 8: 4}","[1, 3, 8, 37, 42]",113184371421,Rb1Li1Mo1H1O4
LiTeHO4,mp-756477,1.4823,2.14471524,0.06786867505952632,"{3: 1, 52: 1, 1: 1, 8: 4}","[1, 3, 8, 52]",113184521,Li1Te1H1O4
LiAlPHO5,mp-644409,5.728999999999999,2.53292667,0.005211936543176421,"{3: 1, 13: 1, 15: 1, 1: 1, 8: 5}","[1, 3, 8, 13, 15]",113185131151,Li1Al1P1H1O5
LiVPHO5,mp-753560,1.8043,2.57525207,0.0,"{3: 1, 23: 1, 15: 1, 1: 1, 8: 5}","[1, 3, 8, 15, 23]",113185151231,Li1V1P1H1O5
LiCrPHO5,mp-753051,0.06679999999999975,3.44880785,0.0,"{3: 1, 24: 1, 15: 1, 1: 1, 8: 5}","[1, 3, 8, 15, 24]",113185151241,Li1Cr1P1H1O5
LiMnPHO5,mp-755477,1.4454,1.66607039,0.0006044875462940524,"{3: 1, 25: 1, 15: 1, 1: 1, 8: 5}","[1, 3, 8, 15, 25]",113185151251,Li1Mn1P1H1O5
LiCoPHO5,mp-754793,2.0953,1.85274468,0.02537158749999513,"{3: 1, 27: 1, 15: 1, 1: 1, 8: 5}","[1, 3, 8, 15, 27]",113185151271,Li1Co1P1H1O5
LiNiPHO5,mp-754131,0.006199999999999983,1.76950536,0.06346192833332598,"{3: 1, 28: 1, 15: 1, 1: 1, 8: 5}","[1, 3, 8, 15, 28]",113185151281,Li1Ni1P1H1O5
LiSnPHO5,mp-753239,2.3396,2.97638255,0.0487401210648164,"{3: 1, 50: 1, 15: 1, 1: 1, 8: 5}","[1, 3, 8, 15, 50]",113185151501,Li1Sn1P1H1O5
LiSbPHO5,mp-755185,2.5562,3.29571589,0.07638991226852099,"{3: 1, 51: 1, 15: 1, 1: 1, 8: 5}","[1, 3, 8, 15, 51]",113185151511,Li1Sb1P1H1O5
LiMnHSO5,mp-943469,3.3221,2.07378809,0.0034302156944328033,"{3: 1, 25: 1, 1: 1, 16: 1, 8: 5}","[1, 3, 8, 16, 25]",113185161251,Li1Mn1H1S1O5
LiCoHSO5,mp-942704,2.4131,1.64115849,0.013146945694444412,"{3: 1, 27: 1, 1: 1, 16: 1, 8: 5}","[1, 3, 8, 16, 27]",113185161271,Li1Co1H1S1O5
LiAlSi2HO7,mp-1191292,0.29410000000000003,0.12665209,0.0956309963194455,"{3: 1, 13: 1, 14: 2, 1: 1, 8: 7}","[1, 3, 8, 13, 14]",113187131142,Li1Al1Si2H1O7
LiVP2HO7,mp-753865,2.4173999999999998,3.78877081,0.044952901378202625,"{3: 1, 23: 1, 15: 2, 1: 1, 8: 7}","[1, 3, 8, 15, 23]",113187152231,Li1V1P2H1O7
LiCrP2HO7,mp-755270,2.6551,2.80072012,0.034949899717269695,"{3: 1, 24: 1, 15: 2, 1: 1, 8: 7}","[1, 3, 8, 15, 24]",113187152241,Li1Cr1P2H1O7
LiMnP2HO7,mp-754235,3.7928,2.34391509,0.027115932083328964,"{3: 1, 25: 1, 15: 2, 1: 1, 8: 7}","[1, 3, 8, 15, 25]",113187152251,Li1Mn1P2H1O7
LiZnP2HO7,mp-1211621,4.4957,0.37234077,0.0,"{3: 1, 30: 1, 15: 2, 1: 1, 8: 7}","[1, 3, 8, 15, 30]",113187152301,Li1Zn1P2H1O7
LiCd2HSe2O7,mp-697926,3.1466,0.41580164,0.0,"{3: 1, 48: 2, 1: 1, 34: 2, 8: 7}","[1, 3, 8, 34, 48]",113187342482,Li1Cd2H1Se2O7
LiVP2HO8,mp-1576561,1.5437999999999998,1.22603602,0.044235935320507735,"{3: 1, 23: 1, 15: 2, 1: 1, 8: 8}","[1, 3, 8, 15, 23]",113188152231,Li1V1P2H1O8
LiMn2P2HO8,mp-755339,3.418,1.64848805,0.036997299732133726,"{3: 1, 25: 2, 15: 2, 1: 1, 8: 8}","[1, 3, 8, 15, 25]",113188152252,Li1Mn2P2H1O8
LiV2P2HO9,mp-778168,0.8733999999999997,3.38438875,0.06997841983340791,"{3: 1, 23: 2, 15: 2, 1: 1, 8: 9}","[1, 3, 8, 15, 23]",113189152232,Li1V2P2H1O9
LiMn2P2HO9,mp-780733,0.6134000000000002,1.51317125,0.030472286361105105,"{3: 1, 25: 2, 15: 2, 1: 1, 8: 9}","[1, 3, 8, 15, 25]",113189152252,Li1Mn2P2H1O9
K2LiP3HO9,mp-1212200,3.5018000000000002,2.70876323,0.1803659928638437,"{19: 2, 3: 1, 15: 3, 1: 1, 8: 9}","[1, 3, 8, 15, 19]",113189153192,K2Li1P3H1O9
LiHF2,mp-24199,8.0448,-3.44629557,0.0,"{3: 1, 1: 1, 9: 2}","[1, 3, 9]",113192,Li1H1F2
Li2HN,mp-1189725,2.0831,0.50274726,0.0,"{3: 2, 1: 1, 7: 1}","[1, 3, 7]",113271,Li2H1N1
Li2HClO,mp-1120754,4.969200000000001,2.82306566,0.0,"{3: 2, 1: 1, 17: 1, 8: 1}","[1, 3, 8, 17]",113281171,Li2H1Cl1O1
Li2Al2Si4HO14,mp-1190535,0.7394000000000001,0.105173,0.1567974700724566,"{3: 2, 13: 2, 14: 4, 1: 1, 8: 14}","[1, 3, 8, 13, 14]",1132814132144,Li2Al2Si4H1O14
Li2HIO,mp-643069,4.3237,-0.78516399,0.0,"{3: 2, 1: 1, 53: 1, 8: 1}","[1, 3, 8, 53]",113281531,Li2H1I1O1
Li2V2P7HO24,mp-778184,1.4868000000000001,0.01327006,0.04410565122685206,"{3: 2, 23: 2, 15: 7, 1: 1, 8: 24}","[1, 3, 8, 15, 23]",1132824157232,Li2V2P7H1O24
Li2VPHO5,mp-1275571,2.6224,3.68973309,0.06384671421808097,"{3: 2, 23: 1, 15: 1, 1: 1, 8: 5}","[1, 3, 8, 15, 23]",113285151231,Li2V1P1H1O5
Li2CrPHO5,mp-779314,2.4368,2.68197987,0.08119535643749654,"{3: 2, 24: 1, 15: 1, 1: 1, 8: 5}","[1, 3, 8, 15, 24]",113285151241,Li2Cr1P1H1O5
Li2MnPHO5,mp-754995,3.1918999999999995,2.30633211,0.06005797925000156,"{3: 2, 25: 1, 15: 1, 1: 1, 8: 5}","[1, 3, 8, 15, 25]",113285151251,Li2Mn1P1H1O5
Li2CoPHO5,mp-1565574,2.84,1.82761224,0.06142739800000552,"{3: 2, 27: 1, 15: 1, 1: 1, 8: 5}","[1, 3, 8, 15, 27]",113285151271,Li2Co1P1H1O5
Li2ScP2HO8,mp-1222849,4.7658000000000005,0.90523788,0.0,"{3: 2, 21: 1, 15: 2, 1: 1, 8: 8}","[1, 3, 8, 15, 21]",113288152211,Li2Sc1P2H1O8
Li2VP2HO8,mp-754990,2.0854999999999997,2.05093088,0.0009663069817049674,"{3: 2, 23: 1, 15: 2, 1: 1, 8: 8}","[1, 3, 8, 15, 23]",113288152231,Li2V1P2H1O8
Li2MnP2HO8,mp-779443,0.7346999999999999,1.51002602,0.005188219196462285,"{3: 2, 25: 1, 15: 2, 1: 1, 8: 8}","[1, 3, 8, 15, 25]",113288152251,Li2Mn1P2H1O8
Li2InP2HO8,mp-1222810,3.9210000000000003,1.5515499,0.0,"{3: 2, 49: 1, 15: 2, 1: 1, 8: 8}","[1, 3, 8, 15, 49]",113288152491,Li2In1P2H1O8
LiMg4H13Os2,mp-696057,3.3137,1.52256445,1.6524499998560316e-05,"{3: 1, 12: 4, 1: 13, 76: 2}","[1, 3, 12, 76]",11331124762,Li1Mg4H13Os2
LiH13(CN2)2,mp-1202349,4.3641000000000005,1.95149265,0.12789296881250234,"{3: 1, 1: 13, 6: 2, 7: 4}","[1, 3, 6, 7]",113316274,Li1H13C2N4
Li3Cr2P4HO14,mp-753859,0.0,2.2483521,0.06277155798363854,"{3: 3, 24: 2, 15: 4, 1: 1, 8: 14}","[1, 3, 8, 15, 24]",1133814154242,Li3Cr2P4H1O14
Li3Mn2P4HO14,mp-780148,0.20709999999999962,2.60445607,0.050502287708338756,"{3: 3, 25: 2, 15: 4, 1: 1, 8: 14}","[1, 3, 8, 15, 25]",1133814154252,Li3Mn2P4H1O14
Li3NbHO2F7,mp-777766,2.5571,-0.26466313,0.11852476120535904,"{3: 3, 41: 1, 1: 1, 8: 2, 9: 7}","[1, 3, 8, 9, 41]",11338297411,Li3Nb1H1O2F7
Li3TeHO4,mp-696949,3.3657999999999997,0.70784245,0.0,"{3: 3, 52: 1, 1: 1, 8: 4}","[1, 3, 8, 52]",113384521,Li3Te1H1O4
Li3VP2HO8,mp-755739,2.8455999999999997,4.0072542,0.040697833048782606,"{3: 3, 23: 1, 15: 2, 1: 1, 8: 8}","[1, 3, 8, 15, 23]",113388152231,Li3V1P2H1O8
Li3CrP2HO8,mp-762840,2.4359,3.57841895,0.04723190558888657,"{3: 3, 24: 1, 15: 2, 1: 1, 8: 8}","[1, 3, 8, 15, 24]",113388152241,Li3Cr1P2H1O8
Li3MnP2HO8,mp-775205,4.1739999999999995,2.41835677,0.03532155933333847,"{3: 3, 25: 1, 15: 2, 1: 1, 8: 8}","[1, 3, 8, 15, 25]",113388152251,Li3Mn1P2H1O8
Li4HN,mp-30228,2.0727,0.15169331,0.0,"{3: 4, 1: 1, 7: 1}","[1, 3, 7]",113471,Li4H1N1
Li4P5HO15,mp-765567,5.6948,0.85843087,0.00287505160000201,"{3: 4, 15: 5, 1: 1, 8: 15}","[1, 3, 8, 15]",1134815155,Li4P5H1O15
Li5MnHO4,mp-759487,0.929,2.10795309,0.10199585454545357,"{3: 5, 25: 1, 1: 1, 8: 4}","[1, 3, 8, 25]",113584251,Li5Mn1H1O4
Li5CoHO4,mp-777549,1.9803000000000002,0.90788801,0.05087484911931739,"{3: 5, 27: 1, 1: 1, 8: 4}","[1, 3, 8, 27]",113584271,Li5Co1H1O4
Li5NiHO4,mp-1177168,2.5772999999999997,0.76747697,0.08463594147727171,"{3: 5, 28: 1, 1: 1, 8: 4}","[1, 3, 8, 28]",113584281,Li5Ni1H1O4
Li6Zr6HCl18,mp-1198972,0.09200000000000008,2.78895618,0.023465293225804373,"{3: 6, 40: 6, 1: 1, 17: 18}","[1, 3, 17, 40]",11361718406,Li6Zr6H1Cl18
Li9V2P4HO18,mp-849392,0.40470000000000006,3.40674426,0.08872239138477589,"{3: 9, 23: 2, 15: 4, 1: 1, 8: 18}","[1, 3, 8, 15, 23]",1139818154232,Li9V2P4H1O18
Li9Mn2P4HO18,mp-780127,1.0722,1.99760136,0.06584529687499696,"{3: 9, 25: 2, 15: 4, 1: 1, 8: 18}","[1, 3, 8, 15, 25]",1139818154252,Li9Mn2P4H1O18
LiVP3(H7O8)2,mp-780313,1.2366000000000001,3.14435019,0.03666914583882086,"{3: 1, 23: 1, 15: 3, 1: 14, 8: 16}","[1, 3, 8, 15, 23]",11431816153231,Li1V1P3H14O16
LiMgH14Cl3O7,mp-1222589,5.380599999999999,2.95486433,0.001510531574516527,"{3: 1, 12: 1, 1: 14, 17: 3, 8: 7}","[1, 3, 8, 12, 17]",1143187121173,Li1Mg1H14Cl3O7
Li2B3H14N,mp-1204484,6.3948,3.21423158,0.09053797262500218,"{3: 2, 5: 3, 1: 14, 7: 1}","[1, 3, 5, 7]",114325371,Li2B3H14N1
Li2SnH14Se3O7,mp-1195382,1.9732,1.59400007,0.0,"{3: 2, 50: 1, 1: 14, 34: 3, 8: 7}","[1, 3, 8, 34, 50]",1143287343501,Li2Sn1H14Se3O7
Li4Ca2B16(H2O5)7,mp-1195450,5.1414,-0.18030336,0.005295163661971358,"{3: 4, 20: 2, 5: 16, 1: 14, 8: 35}","[1, 3, 5, 8, 20]",11434516835202,Li4Ca2B16H14O35
LiBH15C5NO3,mp-556018,4.047000000000001,-0.3967107,0.3142087296153866,"{3: 1, 5: 1, 1: 15, 6: 5, 7: 1, 8: 3}","[1, 3, 5, 6, 7, 8]",1153151657183,Li1B1H15C5N1O3
LiB(H8O5)2,mp-1222914,5.0895,-2.09936354,0.01063853008928728,"{3: 1, 5: 1, 1: 16, 8: 10}","[1, 3, 5, 8]",1163151810,Li1B1H16O10
RbLiMg(BH4)4,mp-1219622,6.4948,-3.4742923,0.004985515797104156,"{37: 1, 3: 1, 12: 1, 5: 4, 1: 16}","[1, 3, 5, 12, 37]",1163154121371,Rb1Li1Mg1B4H16
LiSc(BH4)4,mp-1222578,4.6661,-3.82734614,0.0,"{3: 1, 21: 1, 5: 4, 1: 16}","[1, 3, 5, 21]",1163154211,Li1Sc1B4H16
RbLiMn(BH4)4,mp-1219628,2.1089,-1.67234939,0.0,"{37: 1, 3: 1, 25: 1, 5: 4, 1: 16}","[1, 3, 5, 25, 37]",1163154251371,Rb1Li1Mn1B4H16
LiAlH16(CN)4,mp-698470,3.6662,-0.50295478,0.11656302163461962,"{3: 1, 13: 1, 1: 16, 6: 4, 7: 4}","[1, 3, 6, 7, 13]",116316474131,Li1Al1H16C4N4
Li2MgB12(H4O7)4,mp-1195467,5.849600000000001,-1.06271309,0.005803171786182837,"{3: 2, 12: 1, 5: 12, 1: 16, 8: 28}","[1, 3, 5, 8, 12]",11632512828121,Li2Mg1B12H16O28
Li2VP4(H4O5)4,mp-758903,1.8897,3.00158582,0.014781171175713759,"{3: 2, 23: 1, 15: 4, 1: 16, 8: 20}","[1, 3, 8, 15, 23]",11632820154231,Li2V1P4H16O20
Li2CrP4(H4O5)4,mp-759552,0.3256999999999999,3.23148291,0.015225835377907337,"{3: 2, 24: 1, 15: 4, 1: 16, 8: 20}","[1, 3, 8, 15, 24]",11632820154241,Li2Cr1P4H16O20
Li2MnP4(H4O5)4,mp-759299,4.1836,0.72940616,0.015288130348836582,"{3: 2, 25: 1, 15: 4, 1: 16, 8: 20}","[1, 3, 8, 15, 25]",11632820154251,Li2Mn1P4H16O20
Li3B3(H8N)2,mp-1232407,5.961,2.96491241,0.1581103798611112,"{3: 3, 5: 3, 1: 16, 7: 2}","[1, 3, 5, 7]",116335372,Li3B3H16N2
Li3V(H4O3)4,mp-1201415,4.085100000000001,2.16730981,0.005819847499999753,"{3: 3, 23: 1, 1: 16, 8: 12}","[1, 3, 8, 23]",11633812231,Li3V1H16O12
Li3V5(H8O11)2,mp-1204473,2.4545,-0.72753721,0.0240530043478282,"{3: 3, 23: 5, 1: 16, 8: 22}","[1, 3, 8, 23]",11633822235,Li3V5H16O22
Li3AsH16(SO2)4,mp-1196446,2.3283,-0.03714212,0.0,"{3: 3, 33: 1, 1: 16, 16: 4, 8: 8}","[1, 3, 8, 16, 33]",1163388164331,Li3As1H16S4O8
KLi7(H2N)8,mp-707956,2.6055,0.27062212,0.021579544648439253,"{19: 1, 3: 7, 1: 16, 7: 8}","[1, 3, 7, 19]",1163778191,K1Li7H16N8
LiMgB3(H9N)2,mp-866665,6.5113,-2.58472324,0.061960014133335406,"{3: 1, 12: 1, 5: 3, 1: 18, 7: 2}","[1, 3, 5, 7, 12]",118315372121,Li1Mg1B3H18N2
LiB3H18N5,mp-604486,3.3036,-1.25003459,0.1160751056944429,"{3: 1, 5: 3, 1: 18, 7: 5}","[1, 3, 5, 7]",118315375,Li1B3H18N5
LiV5H18N2O19,mp-729119,2.4621,-0.78174178,0.08188040731482271,"{3: 1, 23: 5, 1: 18, 7: 2, 8: 19}","[1, 3, 7, 8, 23]",1183172819235,Li1V5H18N2O19
LiZr3H18N4F19,mp-601344,6.3872,-2.8654918,0.0,"{3: 1, 40: 3, 1: 18, 7: 4, 9: 19}","[1, 3, 7, 9, 40]",1183174919403,Li1Zr3H18N4F19
Na2LiV5H18O23,mp-1203476,2.4699999999999998,1.07432979,0.01581621750000828,"{11: 2, 3: 1, 23: 5, 1: 18, 8: 23}","[1, 3, 8, 11, 23]",11831823112235,Na2Li1V5H18O23
Li2SiH18(C3N2)2,mp-1197528,2.7831,2.55153049,0.15975091729838198,"{3: 2, 14: 1, 1: 18, 6: 6, 7: 4}","[1, 3, 6, 7, 14]",118326674141,Li2Si1H18C6N4
Li3SbH18S4O9,mp-777963,1.8864,-0.30345271,0.01318454035714467,"{3: 3, 51: 1, 1: 18, 16: 4, 8: 9}","[1, 3, 8, 16, 51]",1183389164511,Li3Sb1H18S4O9
Li4Co3P4(H3O4)6,mp-778187,2.9627,0.8930311,0.05053317886792286,"{3: 4, 27: 3, 15: 4, 1: 18, 8: 24}","[1, 3, 8, 15, 27]",11834824154273,Li4Co3P4H18O24
LiSiH19(C3N2)2,mp-1198718,3.1235999999999997,2.35500307,0.12736944532257866,"{3: 1, 14: 1, 1: 19, 6: 6, 7: 4}","[1, 3, 6, 7, 14]",119316674141,Li1Si1H19C6N4
LiZn2(BH4)5,mp-1198025,5.7198,-4.21263501,0.0,"{3: 1, 30: 2, 5: 5, 1: 20}","[1, 3, 5, 30]",1203155302,Li1Zn2B5H20