formula,material_id,band_gap,efermi,energy_above_hull,comp_atoms,sorted_keys_comp_atoms,comp_number,new_formula
Rb2LiTlBr6,mp-1114027,0.5529,-0.49916667,0.0,"{37: 2, 3: 1, 81: 1, 35: 6}","[3, 35, 37, 81]",31356372811,Rb2Li1Tl1Br6
Rb2LiBiBr6,mp-1110713,2.9149,-0.5525,0.03318222237500201,"{37: 2, 3: 1, 83: 1, 35: 6}","[3, 35, 37, 83]",31356372831,Rb2Li1Bi1Br6
Cs2LiMoBr6,mp-1111847,1.2684000000000002,1.23416667,0.047541044999999116,"{55: 2, 3: 1, 42: 1, 35: 6}","[3, 35, 42, 55]",31356421552,Cs2Li1Mo1Br6
Cs2LiInBr6,mp-989405,1.5789,0.00789992,0.0,"{55: 2, 3: 1, 49: 1, 35: 6}","[3, 35, 49, 55]",31356491552,Cs2Li1In1Br6
Cs2LiSbBr6,mp-1111835,2.3396,0.26708333,0.022989746499999963,"{55: 2, 3: 1, 51: 1, 35: 6}","[3, 35, 51, 55]",31356511552,Cs2Li1Sb1Br6
Cs2LiLaBr6,mp-1245352,3.7835,-0.33376406,0.01384164300000279,"{55: 2, 3: 1, 57: 1, 35: 6}","[3, 35, 55, 57]",31356552571,Cs2Li1La1Br6
Cs2LiCeBr6,mp-1111848,0.29090000000000016,2.19666667,0.0,"{55: 2, 3: 1, 58: 1, 35: 6}","[3, 35, 55, 58]",31356552581,Cs2Li1Ce1Br6
Cs2LiPrBr6,mp-1111839,3.9721,-0.64625,0.0,"{55: 2, 3: 1, 59: 1, 35: 6}","[3, 35, 55, 59]",31356552591,Cs2Li1Pr1Br6
Cs2LiNdBr6,mp-1111845,3.9972,-0.63958333,0.0,"{55: 2, 3: 1, 60: 1, 35: 6}","[3, 35, 55, 60]",31356552601,Cs2Li1Nd1Br6
Cs2LiTaBr6,mp-1111834,0.0,2.52484871,0.11279271572500082,"{55: 2, 3: 1, 73: 1, 35: 6}","[3, 35, 55, 73]",31356552731,Cs2Li1Ta1Br6
Cs2LiTlBr6,mp-1112670,0.5505,-0.27291667,0.030591878250000093,"{55: 2, 3: 1, 81: 1, 35: 6}","[3, 35, 55, 81]",31356552811,Cs2Li1Tl1Br6
Cs2LiBiBr6,mp-1111865,2.9154,-0.31833333,0.01117739400000195,"{55: 2, 3: 1, 83: 1, 35: 6}","[3, 35, 55, 83]",31356552831,Cs2Li1Bi1Br6
Rb2LiMoI6,mp-1110749,0.9751999999999996,2.0075,0.10602876958333374,"{37: 2, 3: 1, 42: 1, 53: 6}","[3, 37, 42, 53]",31372421536,Rb2Li1Mo1I6
Rb2LiSn4,mp-680436,0.9014000000000002,3.13920297,0.0,"{37: 2, 3: 1, 50: 4}","[3, 37, 50]",31372504,Rb2Li1Sn4
Rb2LiSbI6,mp-1110746,1.7214999999999998,1.12020833,0.052837472500002036,"{37: 2, 3: 1, 51: 1, 53: 6}","[3, 37, 51, 53]",31372511536,Rb2Li1Sb1I6
Rb2LiCeI6,mp-1110750,2.1287,2.73242938,0.028900313749999906,"{37: 2, 3: 1, 58: 1, 53: 6}","[3, 37, 53, 58]",31372536581,Rb2Li1Ce1I6
Rb2LiPrI6,mp-1110747,2.9512,0.58041667,0.04754602875000202,"{37: 2, 3: 1, 59: 1, 53: 6}","[3, 37, 53, 59]",31372536591,Rb2Li1Pr1I6
Rb2LiNdI6,mp-1110748,2.9632,0.61375,0.042163135500000504,"{37: 2, 3: 1, 60: 1, 53: 6}","[3, 37, 53, 60]",31372536601,Rb2Li1Nd1I6
Rb2LiTaI6,mp-1110745,0.0,3.05963392,0.14986519871875048,"{37: 2, 3: 1, 73: 1, 53: 6}","[3, 37, 53, 73]",31372536731,Rb2Li1Ta1I6
Rb2LiBiI6,mp-1110751,1.9334,0.86041667,0.0513581485000012,"{37: 2, 3: 1, 83: 1, 53: 6}","[3, 37, 53, 83]",31372536831,Rb2Li1Bi1I6
Rb3Li,mp-974950,0.0,-0.01208569,0.1435187310416668,"{37: 3, 3: 1}","[3, 37]",31373,Rb3Li1
Rb3LiPb4,mp-1209665,0.6894,3.0595856,0.0,"{37: 3, 3: 1, 82: 4}","[3, 37, 82]",31373824,Rb3Li1Pb4
Li13Mn2O12,mp-752819,0.0,0.18032975,0.1065084805555534,"{3: 13, 25: 2, 8: 12}","[3, 8, 25]",313812252,Li13Mn2O12
SrLiSb,mp-7756,0.6857999999999995,3.68770508,0.0,"{38: 1, 3: 1, 51: 1}","[3, 38, 51]",31381511,Sr1Li1Sb1
CsKNaLi13(SiO4)4,mp-720245,3.8945,0.97246793,0.08142831263888795,"{55: 1, 19: 1, 11: 1, 3: 13, 14: 4, 8: 16}","[3, 8, 11, 14, 19, 55]",313816111144191551,Cs1K1Na1Li13Si4O16
Li13Mn3Nb2O16,mp-764234,1.0312999999999999,2.17745822,0.09219282198528855,"{3: 13, 25: 3, 41: 2, 8: 16}","[3, 8, 25, 41]",313816253412,Li13Mn3Nb2O16
Li13Mn3(SbO8)2,mp-760049,1.1465,3.1150167,0.07346963573529752,"{3: 13, 25: 3, 51: 2, 8: 16}","[3, 8, 25, 51]",313816253512,Li13Mn3Sb2O16
SrLiTl2,mp-1097176,0.0,-2.22627765,1.4130688424999995,"{38: 1, 3: 1, 81: 2}","[3, 38, 81]",31381812,Sr1Li1Tl2
SrLiBi,mp-30456,0.5558000000000001,3.40067297,0.0,"{38: 1, 3: 1, 83: 1}","[3, 38, 83]",31381831,Sr1Li1Bi1
Li13Ni9O22,mp-769473,0.0,3.18790064,0.018385733560607243,"{3: 13, 28: 9, 8: 22}","[3, 8, 28]",313822289,Li13Ni9O22
Li13Mn8O24,mp-758228,0.0,1.32687045,0.06228161515555186,"{3: 13, 25: 8, 8: 24}","[3, 8, 25]",313824258,Li13Mn8O24
Li13Co11O24,mp-531078,0.20459999999999967,2.51230133,0.014519090625000786,"{3: 13, 27: 11, 8: 24}","[3, 8, 27]",3138242711,Li13Co11O24
Sr2LiRh,mp-1187090,0.12449999999999983,2.40110383,0.010137876505680321,"{38: 2, 3: 1, 45: 1}","[3, 38, 45]",31382451,Sr2Li1Rh1
Sr2LiPd,mp-1096504,0.0,-2.20022991,1.2788205066666667,"{38: 2, 3: 1, 46: 1}","[3, 38, 46]",31382461,Sr2Li1Pd1
Sr2LiCd,mp-1187087,0.0,1.61176705,0.0064028780555558384,"{38: 2, 3: 1, 48: 1}","[3, 38, 48]",31382481,Sr2Li1Cd1
Sr2LiIn,mp-867208,0.0,2.43801408,0.015573939807692838,"{38: 2, 3: 1, 49: 1}","[3, 38, 49]",31382491,Sr2Li1In1
Sr2LiSn,mp-1095830,0.0,-2.30724094,1.5861169862499997,"{38: 2, 3: 1, 50: 1}","[3, 38, 50]",31382501,Sr2Li1Sn1
Li13Mg(Ni6O13)2,mp-769522,0.0,3.54777905,0.009155799316230784,"{3: 13, 12: 1, 28: 12, 8: 26}","[3, 8, 12, 28]",3138261212812,Li13Mg1Ni12O26
Sr2LiIr,mp-1096097,0.00039999999999995595,-2.45859319,1.6424895624999998,"{38: 2, 3: 1, 77: 1}","[3, 38, 77]",31382771,Sr2Li1Ir1
Sr2LiPt,mp-862745,0.0,2.88135277,0.11923774220238226,"{38: 2, 3: 1, 78: 1}","[3, 38, 78]",31382781,Sr2Li1Pt1
Sr2LiHg,mp-1093971,0.0,-1.80627606,1.2372096234015593,"{38: 2, 3: 1, 80: 1}","[3, 38, 80]",31382801,Sr2Li1Hg1
Sr2LiTl,mp-862746,0.0,2.5377672,0.0,"{38: 2, 3: 1, 81: 1}","[3, 38, 81]",31382811,Sr2Li1Tl1
Sr2LiPb,mp-1093734,0.0,-2.22396144,1.5180125141666676,"{38: 2, 3: 1, 82: 1}","[3, 38, 82]",31382821,Sr2Li1Pb1
Li13Co15O28,mp-766887,0.03799999999999981,3.24474896,0.09226481062499925,"{3: 13, 27: 15, 8: 28}","[3, 8, 27]",3138282715,Li13Co15O28
Li13Ni15O28,mp-757347,0.0,3.8733794,0.009539497202382563,"{3: 13, 28: 15, 8: 28}","[3, 8, 28]",3138282815,Li13Ni15O28
Sr3Li,mp-1187126,0.0,1.23359947,0.07493362088068167,"{38: 3, 3: 1}","[3, 38]",31383,Sr3Li1
Li13Mn6(PO4)8,mp-1178075,0.0,6.12849791,0.09181498256434573,"{3: 13, 25: 6, 15: 8, 8: 32}","[3, 8, 15, 25]",313832158256,Li13Mn6P8O32
Li13Mn17O40,mp-759819,0.5161000000000002,2.61740834,0.013613862214310934,"{3: 13, 25: 17, 8: 40}","[3, 8, 25]",3138402517,Li13Mn17O40
Li13Nb14ZnO42,mp-768142,0.0,4.15075676,0.01210720258928255,"{3: 13, 41: 14, 30: 1, 8: 42}","[3, 8, 30, 41]",3138423014114,Li13Nb14Zn1O42
Li13Ti22O48,mp-530165,0.0,4.41075224,0.0078027332228831625,"{3: 13, 22: 22, 8: 48}","[3, 8, 22]",3138482222,Li13Ti22O48
Li13Mn21O48,mp-530398,0.0,2.5787235,0.011522344532497897,"{3: 13, 25: 21, 8: 48}","[3, 8, 25]",3138482521,Li13Mn21O48
Li13V24O52,mp-777360,0.5977000000000001,2.80629514,0.09689554103931819,"{3: 13, 23: 24, 8: 52}","[3, 8, 23]",3138522324,Li13V24O52
Li13Ti28O56,mp-774263,0.0,4.86391393,0.006604378350523632,"{3: 13, 22: 28, 8: 56}","[3, 8, 22]",3138562228,Li13Ti28O56
Li13Mn2O9,mp-764770,0.010199999999999987,0.99092727,0.05363263916666927,"{3: 13, 25: 2, 8: 9}","[3, 8, 25]",31389252,Li13Mn2O9
LiZrRh2,mp-865868,0.0,4.55743781,0.0,"{3: 1, 40: 1, 45: 2}","[3, 40, 45]",31401452,Li1Zr1Rh2
LiZrPd2,mp-1185423,0.0,4.04058016,0.026484790000001368,"{3: 1, 40: 1, 46: 2}","[3, 40, 46]",31401462,Li1Zr1Pd2
LiZrIr2,mp-865925,0.0,6.11575066,0.0,"{3: 1, 40: 1, 77: 2}","[3, 40, 77]",31401772,Li1Zr1Ir2
LiZrPt2,mp-865866,0.0,4.94347874,0.010696489289770739,"{3: 1, 40: 1, 78: 2}","[3, 40, 78]",31401782,Li1Zr1Pt2
LiZrAu2,mp-865924,0.0,4.27113926,0.0,"{3: 1, 40: 1, 79: 2}","[3, 40, 79]",31401792,Li1Zr1Au2
LiZrHg2,mp-1095873,0.19020000000000037,-2.56008393,1.7651145099999994,"{3: 1, 40: 1, 80: 2}","[3, 40, 80]",31401802,Li1Zr1Hg2
LiZr2Tc,mp-865893,0.0,4.39608774,0.0,"{3: 1, 40: 2, 43: 1}","[3, 40, 43]",31402431,Li1Zr2Tc1
LiZr2Ru,mp-1093827,0.0,-2.52371319,3.2392693816666664,"{3: 1, 40: 2, 44: 1}","[3, 40, 44]",31402441,Li1Zr2Ru1
LiZr2Re,mp-865872,0.0,4.19200416,0.011782068516669852,"{3: 1, 40: 2, 75: 1}","[3, 40, 75]",31402751,Li1Zr2Re1
LiZr2Os,mp-865870,0.0,4.58819274,0.0,"{3: 1, 40: 2, 76: 1}","[3, 40, 76]",31402761,Li1Zr2Os1
LiZr2Ir,mp-976330,0.0,5.25801277,0.026766439375006,"{3: 1, 40: 2, 77: 1}","[3, 40, 77]",31402771,Li1Zr2Ir1
LiZr2Pt,mp-1096455,0.0019000000000000128,-2.78976094,3.2654714891666643,"{3: 1, 40: 2, 78: 1}","[3, 40, 78]",31402781,Li1Zr2Pt1
LiZr2Pb,mp-1222406,0.0,4.45171644,0.3584702453333346,"{3: 1, 40: 2, 82: 1}","[3, 40, 82]",31402821,Li1Zr2Pb1
LiBe,mp-2475638,0.0,1.61618248,0.16217515083333334,"{3: 1, 4: 1}","[3, 4]",3141,Li1Be1
LiNbRu2,mp-1185361,0.0,5.33124493,0.011685360833329383,"{3: 1, 41: 1, 44: 2}","[3, 41, 44]",31411442,Li1Nb1Ru2
LiNbRh2,mp-864631,0.0,5.21388245,0.0,"{3: 1, 41: 1, 45: 2}","[3, 41, 45]",31411452,Li1Nb1Rh2
LiBeP,mp-9915,1.1585,4.38722932,0.0,"{3: 1, 4: 1, 15: 1}","[3, 4, 15]",3141151,Li1Be1P1
LiNbIr2,mp-977563,0.0,6.65287163,0.0,"{3: 1, 41: 1, 77: 2}","[3, 41, 77]",31411772,Li1Nb1Ir2
Li14MgSi4,mp-1222798,0.09899999999999998,1.93532854,0.0,"{3: 14, 12: 1, 14: 4}","[3, 12, 14]",314121144,Li14Mg1Si4
LiBeAs,mp-9562,1.0077000000000003,3.86092244,0.0,"{3: 1, 4: 1, 33: 1}","[3, 4, 33]",3141331,Li1Be1As1
LiBePd2,mp-862312,0.0,4.05730143,0.0,"{3: 1, 4: 1, 46: 2}","[3, 4, 46]",3141462,Li1Be1Pd2
LiBeB,mp-1018783,0.0,3.03279953,0.0,"{3: 1, 4: 1, 5: 1}","[3, 4, 5]",314151,Li1Be1B1
LiBeSb,mp-1100398,1.0104999999999995,5.28458485,0.0,"{3: 1, 4: 1, 51: 1}","[3, 4, 51]",3141511,Li1Be1Sb1
LiBeBO3,mp-1020026,6.0842,0.56879199,0.013394735416661696,"{3: 1, 4: 1, 5: 1, 8: 3}","[3, 4, 5, 8]",31415183,Li1Be1B1O3
Sr2LiBeB3O8,mp-1020647,4.7198,1.03961493,0.0,"{38: 2, 3: 1, 4: 1, 5: 3, 8: 8}","[3, 4, 5, 8, 38]",31415388382,Sr2Li1Be1B3O8
Li14Mn2S9,mp-756198,1.5171,1.77459451,0.007765854000002292,"{3: 14, 25: 2, 16: 9}","[3, 16, 25]",314169252,Li14Mn2S9
Li14Co2S9,mp-768268,0.20350000000000001,2.03042355,0.06918415563333191,"{3: 14, 27: 2, 16: 9}","[3, 16, 27]",314169272,Li14Co2S9
LiBeN,mp-29463,2.0846999999999998,1.80795907,0.0,"{3: 1, 4: 1, 7: 1}","[3, 4, 7]",314171,Li1Be1N1
LiBeNF4,mp-731921,2.8777,-3.36527631,0.37048315821428535,"{3: 1, 4: 1, 7: 1, 9: 4}","[3, 4, 7, 9]",31417194,Li1Be1N1F4
LiTaBe,mp-631449,0.0,2.20563396,1.4476501417460286,"{3: 1, 73: 1, 4: 1}","[3, 4, 73]",3141731,Li1Ta1Be1
LiBePt2,mp-862316,0.0,5.86336041,0.0,"{3: 1, 4: 1, 78: 2}","[3, 4, 78]",3141782,Li1Be1Pt2
LiBeAu2,mp-982974,0.0,4.64801728,0.0057941406249995,"{3: 1, 4: 1, 79: 2}","[3, 4, 79]",3141792,Li1Be1Au2
LiBeO3,mp-982975,0.0,1.11066553,0.5701234884285729,"{3: 1, 4: 1, 8: 3}","[3, 4, 8]",314183,Li1Be1O3
LiBePO5,mp-1204508,0.0,-0.14094479,0.21101511841796317,"{3: 1, 4: 1, 15: 1, 8: 5}","[3, 4, 8, 15]",314185151,Li1Be1P1O5
LiBeAsO5,mp-1201175,1.0529,-0.65528721,0.22258597593750284,"{3: 1, 4: 1, 33: 1, 8: 5}","[3, 4, 8, 33]",314185331,Li1Be1As1O5
NaLiBeF4,mp-1209980,7.676499999999999,4.54391541,0.0034549429166661483,"{11: 1, 3: 1, 4: 1, 9: 4}","[3, 4, 9, 11]",314194111,Na1Li1Be1F4
KLiBeF4,mp-6253,6.861800000000001,-3.5101608,0.0,"{19: 1, 3: 1, 4: 1, 9: 4}","[3, 4, 9, 19]",314194191,K1Li1Be1F4
CsLiBeF4,mp-18704,7.0366,-2.7856198,0.0,"{55: 1, 3: 1, 4: 1, 9: 4}","[3, 4, 9, 55]",314194551,Cs1Li1Be1F4
Cs2LiMoI6,mp-1112836,0.9856000000000003,2.17416667,0.08588373770833524,"{55: 2, 3: 1, 42: 1, 53: 6}","[3, 42, 53, 55]",31421536552,Cs2Li1Mo1I6
LiBe2Rh,mp-1239018,0.0,3.44074506,0.7311955872916678,"{3: 1, 4: 2, 45: 1}","[3, 4, 45]",3142451,Li1Be2Rh1
LiIn(TeMo)6,mp-1223004,0.03160000000000007,5.30337642,0.23248862464285658,"{3: 1, 49: 1, 52: 6, 42: 6}","[3, 42, 49, 52]",31426491526,Li1In1Te6Mo6
LiBe2Os,mp-1096433,0.5736000000000003,-3.13082587,2.9141901918872546,"{3: 1, 4: 2, 76: 1}","[3, 4, 76]",3142761,Li1Be2Os1
LiBe2Ir,mp-862377,0.0,4.96250795,0.0,"{3: 1, 4: 2, 77: 1}","[3, 4, 77]",3142771,Li1Be2Ir1
LiBe2Pt,mp-1185317,0.0,4.76183967,0.0,"{3: 1, 4: 2, 78: 1}","[3, 4, 78]",3142781,Li1Be2Pt1
LiBe2Au,mp-1097294,1.3302,-2.45005827,1.7906398050000008,"{3: 1, 4: 2, 79: 1}","[3, 4, 79]",3142791,Li1Be2Au1
Na2LiBe2F7,mp-12240,7.155200000000001,-2.99828356,0.0,"{11: 2, 3: 1, 4: 2, 9: 7}","[3, 4, 9, 11]",314297112,Na2Li1Be2F7
Na3LiBe2F8,mp-556906,6.719200000000001,-2.49593204,0.0075284623511899795,"{11: 3, 3: 1, 4: 2, 9: 8}","[3, 4, 9, 11]",314298113,Na3Li1Be2F8
LiDy2Tc,mp-862588,0.0,3.53172989,0.03129211697916645,"{3: 1, 66: 2, 43: 1}","[3, 43, 66]",31431662,Li1Dy2Tc1
LiHo2Tc,mp-867289,0.0,3.42178116,0.026427416041666874,"{3: 1, 67: 2, 43: 1}","[3, 43, 67]",31431672,Li1Ho2Tc1
LiEr2Tc,mp-867139,0.0,3.44083319,0.02110186947916759,"{3: 1, 68: 2, 43: 1}","[3, 43, 68]",31431682,Li1Er2Tc1
LiTm2Tc,mp-862545,0.0,3.33953803,0.04407979083333302,"{3: 1, 69: 2, 43: 1}","[3, 43, 69]",31431692,Li1Tm2Tc1
LiLu2Tc,mp-977386,0.0,3.13685822,0.03354738083333686,"{3: 1, 71: 2, 43: 1}","[3, 43, 71]",31431712,Li1Lu2Tc1
LiHf2Tc,mp-976600,0.0,4.90534788,0.0325120033333306,"{3: 1, 72: 2, 43: 1}","[3, 43, 72]",31431722,Li1Hf2Tc1
LiTh2Tc,mp-1185450,0.0,6.5715877,0.05871225541666547,"{3: 1, 90: 2, 43: 1}","[3, 43, 90]",31431902,Li1Th2Tc1
LiTc2Pd,mp-631334,0.0,5.82207154,0.7886566224999996,"{3: 1, 43: 2, 46: 1}","[3, 43, 46]",31432461,Li1Tc2Pd1
LiIn2Ru,mp-672340,0.0,7.53105976,0.037866556666667606,"{3: 1, 49: 2, 44: 1}","[3, 44, 49]",31441492,Li1In2Ru1
LiSn4Ru,mp-21297,0.0,7.84998703,0.0,"{3: 1, 50: 4, 44: 1}","[3, 44, 50]",31441504,Li1Sn4Ru1
LiLa2Ru,mp-867905,0.0,7.27048061,0.07811138452380995,"{3: 1, 57: 2, 44: 1}","[3, 44, 57]",31441572,Li1La2Ru1
LiCe2Ru,mp-973561,0.0,6.99681816,0.13503314652777743,"{3: 1, 58: 2, 44: 1}","[3, 44, 58]",31441582,Li1Ce2Ru1
LiPr2Ru,mp-861661,0.0,3.82713924,0.02362326479166299,"{3: 1, 59: 2, 44: 1}","[3, 44, 59]",31441592,Li1Pr2Ru1
LiNd2Ru,mp-977539,0.0,3.77741468,0.019966269348955734,"{3: 1, 60: 2, 44: 1}","[3, 44, 60]",31441602,Li1Nd2Ru1
LiPm2Ru,mp-863675,0.0,3.79292474,0.0,"{3: 1, 61: 2, 44: 1}","[3, 44, 61]",31441612,Li1Pm2Ru1
LiSm2Ru,mp-865708,0.0,3.50742146,0.006810339973956303,"{3: 1, 62: 2, 44: 1}","[3, 44, 62]",31441622,Li1Sm2Ru1
LiGd2Ru,mp-866058,0.0,3.63946191,0.0,"{3: 1, 64: 2, 44: 1}","[3, 44, 64]",31441642,Li1Gd2Ru1
LiDy2Ru,mp-867111,0.0,3.81521459,0.0,"{3: 1, 66: 2, 44: 1}","[3, 44, 66]",31441662,Li1Dy2Ru1
LiHo2Ru,mp-865959,0.0,3.71461024,0.0,"{3: 1, 67: 2, 44: 1}","[3, 44, 67]",31441672,Li1Ho2Ru1
LiEr2Ru,mp-862661,0.0,3.43011308,0.0,"{3: 1, 68: 2, 44: 1}","[3, 44, 68]",31441682,Li1Er2Ru1
LiTm2Ru,mp-862614,0.0,3.63393504,0.0,"{3: 1, 69: 2, 44: 1}","[3, 44, 69]",31441692,Li1Tm2Ru1
LiLu2Ru,mp-977393,0.0,3.32431315,0.0,"{3: 1, 71: 2, 44: 1}","[3, 44, 71]",31441712,Li1Lu2Ru1
LiAc2Ru,mp-862686,0.0,6.11394334,0.0,"{3: 1, 89: 2, 44: 1}","[3, 44, 89]",31441892,Li1Ac2Ru1
LiTaRu2,mp-861954,0.0,5.56434755,0.0,"{3: 1, 73: 1, 44: 2}","[3, 44, 73]",31442731,Li1Ta1Ru2
LiRu2W,mp-861666,0.0,6.34214948,0.0,"{3: 1, 44: 2, 74: 1}","[3, 44, 74]",31442741,Li1Ru2W1
LiPaRu2,mp-865029,0.0,8.3654998,0.0,"{3: 1, 91: 1, 44: 2}","[3, 44, 91]",31442911,Li1Pa1Ru2
LiNpRu2,mp-1185267,0.0,8.85610508,0.09717050197916421,"{3: 1, 93: 1, 44: 2}","[3, 44, 93]",31442931,Li1Np1Ru2
Li14Be6(BO3)9,mp-1210986,0.008400000000000019,0.21744774,0.0,"{3: 14, 4: 6, 5: 9, 8: 27}","[3, 4, 5, 8]",3144659827,Li14Be6B9O27
LiEr4Be4(SiO7)2,mp-1236794,0.0,8.12330688,0.14813994945000442,"{3: 1, 68: 4, 4: 4, 14: 2, 8: 14}","[3, 4, 8, 14, 68]",3144814142684,Li1Er4Be4Si2O14
LiRh,mp-600561,0.0,3.32371411,0.0,"{3: 1, 45: 1}","[3, 45]",31451,Li1Rh1
LiCd2Rh,mp-867115,0.0,2.64653932,0.0,"{3: 1, 48: 2, 45: 1}","[3, 45, 48]",31451482,Li1Cd2Rh1
LiInRh,mp-1207156,0.0,6.31896746,0.024632655000001336,"{3: 1, 49: 1, 45: 1}","[3, 45, 49]",31451491,Li1In1Rh1
LiIn2Rh,mp-13396,0.0,8.09266731,0.0,"{3: 1, 49: 2, 45: 1}","[3, 45, 49]",31451492,Li1In2Rh1
LiSn4Rh,mp-16648,0.0,7.84614923,0.0,"{3: 1, 50: 4, 45: 1}","[3, 45, 50]",31451504,Li1Sn4Rh1
LiPr2Rh,mp-1185400,0.0,3.85992615,0.07066697024999957,"{3: 1, 59: 2, 45: 1}","[3, 45, 59]",31451592,Li1Pr2Rh1
LiNd2Rh,mp-1185389,0.0,3.73284677,0.06047445916666483,"{3: 1, 60: 2, 45: 1}","[3, 45, 60]",31451602,Li1Nd2Rh1
LiPm2Rh,mp-863673,0.0,3.75271559,0.0,"{3: 1, 61: 2, 45: 1}","[3, 45, 61]",31451612,Li1Pm2Rh1
LiGd2Rh,mp-1185609,0.0,3.38020123,2.485673194166665,"{3: 1, 64: 2, 45: 1}","[3, 45, 64]",31451642,Li1Gd2Rh1
LiDy2Rh,mp-1185331,0.0,3.74182723,0.01711975845237923,"{3: 1, 66: 2, 45: 1}","[3, 45, 66]",31451662,Li1Dy2Rh1
LiHo2Rh,mp-865954,0.0,3.62940003,0.011670419345239047,"{3: 1, 67: 2, 45: 1}","[3, 45, 67]",31451672,Li1Ho2Rh1
LiEr2Rh,mp-862660,0.0,3.75139393,0.007605393166666197,"{3: 1, 68: 2, 45: 1}","[3, 45, 68]",31451682,Li1Er2Rh1
LiTm2Rh,mp-867162,0.0,3.7166254,0.0,"{3: 1, 69: 2, 45: 1}","[3, 45, 69]",31451692,Li1Tm2Rh1
LiLu2Rh,mp-977405,0.0,3.52677672,0.0,"{3: 1, 71: 2, 45: 1}","[3, 45, 71]",31451712,Li1Lu2Rh1
LiIrRh,mp-631269,0.0,4.96654659,0.7929151483333321,"{3: 1, 77: 1, 45: 1}","[3, 45, 77]",31451771,Li1Ir1Rh1
LiHg2Rh,mp-1093670,0.24580000000000002,-3.15616654,1.3098369487500001,"{3: 1, 80: 2, 45: 1}","[3, 45, 80]",31451802,Li1Hg2Rh1
LiTl2Rh,mp-861725,0.0,6.51985791,0.0,"{3: 1, 81: 2, 45: 1}","[3, 45, 81]",31451812,Li1Tl2Rh1
LiInRh2,mp-862775,0.0,5.65577202,0.0111117833333374,"{3: 1, 49: 1, 45: 2}","[3, 45, 49]",31452491,Li1In1Rh2
LiSnRh2,mp-864784,0.0,6.69865258,0.0,"{3: 1, 50: 1, 45: 2}","[3, 45, 50]",31452501,Li1Sn1Rh2
LiSbRh2,mp-861667,0.0,7.85466923,0.0,"{3: 1, 51: 1, 45: 2}","[3, 45, 51]",31452511,Li1Sb1Rh2
LiTmRh2,mp-976259,0.0,4.10310742,0.01998325499999698,"{3: 1, 69: 1, 45: 2}","[3, 45, 69]",31452691,Li1Tm1Rh2
LiLuRh2,mp-1185393,0.30249999999999977,3.82972379,0.023328457500003452,"{3: 1, 71: 1, 45: 2}","[3, 45, 71]",31452711,Li1Lu1Rh2
LiHfRh2,mp-867148,0.0,5.0478309,0.0,"{3: 1, 72: 1, 45: 2}","[3, 45, 72]",31452721,Li1Hf1Rh2
LiTaRh2,mp-861951,0.0,5.5599254,0.0,"{3: 1, 73: 1, 45: 2}","[3, 45, 73]",31452731,Li1Ta1Rh2
LiRh2W,mp-1096467,0.2301000000000002,-3.65925888,2.9188080662499942,"{3: 1, 45: 2, 74: 1}","[3, 45, 74]",31452741,Li1Rh2W1
LiRh2Pb,mp-861663,0.0,6.27540469,0.0,"{3: 1, 45: 2, 82: 1}","[3, 45, 82]",31452821,Li1Rh2Pb1
LiBiRh2,mp-861903,0.0,6.82565658,0.0,"{3: 1, 83: 1, 45: 2}","[3, 45, 83]",31452831,Li1Bi1Rh2
LiAcRh2,mp-1185329,0.29550000000000054,5.50814824,0.0,"{3: 1, 89: 1, 45: 2}","[3, 45, 89]",31452891,Li1Ac1Rh2
LiThRh2,mp-1185462,0.0,5.97235041,0.0,"{3: 1, 90: 1, 45: 2}","[3, 45, 90]",31452901,Li1Th1Rh2
LiNpRh2,mp-1185270,0.0,8.15354548,0.0,"{3: 1, 93: 1, 45: 2}","[3, 45, 93]",31452931,Li1Np1Rh2
LiRh3,mp-1001787,0.0,5.24584483,0.0,"{3: 1, 45: 3}","[3, 45]",31453,Li1Rh3
LiSn5Rh3,mp-638141,0.0,8.06104075,0.0,"{3: 1, 50: 5, 45: 3}","[3, 45, 50]",31453505,Li1Sn5Rh3
LiPd,mp-2744,0.0,2.64572742,0.0,"{3: 1, 46: 1}","[3, 46]",31461,Li1Pd1
LiAg2Pd,mp-974634,0.0,2.22785047,0.014468547499998152,"{3: 1, 47: 2, 46: 1}","[3, 46, 47]",31461472,Li1Ag2Pd1
LiCd2Pd,mp-867196,0.0,2.76806682,0.0,"{3: 1, 48: 2, 46: 1}","[3, 46, 48]",31461482,Li1Cd2Pd1
LiIn2Pd,mp-20801,0.0,7.67341299,0.0,"{3: 1, 49: 2, 46: 1}","[3, 46, 49]",31461492,Li1In2Pd1
LiLu2Pd,mp-973286,0.0,3.41005396,0.019585576666667492,"{3: 1, 71: 2, 46: 1}","[3, 46, 71]",31461712,Li1Lu2Pd1
LiPdW2,mp-631333,0.0,5.34712169,0.9946117150000013,"{3: 1, 46: 1, 74: 2}","[3, 46, 74]",31461742,Li1Pd1W2
LiPdAu2,mp-861930,0.0,3.67147309,0.0,"{3: 1, 46: 1, 79: 2}","[3, 46, 79]",31461792,Li1Pd1Au2
LiHg2Pd,mp-861896,0.0,3.16042105,0.0,"{3: 1, 80: 2, 46: 1}","[3, 46, 80]",31461802,Li1Hg2Pd1
LiTl2Pd,mp-1185239,0.0,6.10015748,0.010634181250004815,"{3: 1, 81: 2, 46: 1}","[3, 46, 81]",31461812,Li1Tl2Pd1
LiPdPb2,mp-1096683,0.33909999999999973,-3.17032884,1.5726418562500029,"{3: 1, 46: 1, 82: 2}","[3, 46, 82]",31461822,Li1Pd1Pb2
LiBi2Pd,mp-1096232,0.24449999999999994,-3.67197785,1.5297954412499992,"{3: 1, 83: 2, 46: 1}","[3, 46, 83]",31461832,Li1Bi2Pd1
LiAgPd2,mp-1093802,0.27239999999999975,-3.85491889,1.9552458266666672,"{3: 1, 47: 1, 46: 2}","[3, 46, 47]",31462471,Li1Ag1Pd2
LiCdPd2,mp-867924,0.0,2.90110697,0.0,"{3: 1, 48: 1, 46: 2}","[3, 46, 48]",31462481,Li1Cd1Pd2
LiInPd2,mp-867926,0.0,5.56589049,0.0,"{3: 1, 49: 1, 46: 2}","[3, 46, 49]",31462491,Li1In1Pd2
LiSnPd2,mp-7243,0.0,6.31295667,0.0,"{3: 1, 50: 1, 46: 2}","[3, 46, 50]",31462501,Li1Sn1Pd2
Li(Sn3Pd)2,mp-569331,0.0,7.50302337,0.0,"{3: 1, 50: 6, 46: 2}","[3, 46, 50]",31462506,Li1Sn6Pd2
LiSbPd2,mp-861736,0.0,6.32483166,0.0,"{3: 1, 51: 1, 46: 2}","[3, 46, 51]",31462511,Li1Sb1Pd2
LiTePd2,mp-861733,0.0,6.2251998,0.07680727550000022,"{3: 1, 52: 1, 46: 2}","[3, 46, 52]",31462521,Li1Te1Pd2