formula,material_id,band_gap,efermi,energy_above_hull,comp_atoms,sorted_keys_comp_atoms,comp_number,new_formula
LiVBO4,mp-756511,2.5334000000000003,1.95183553,0.05507659142855381,"{3: 1, 23: 1, 5: 1, 8: 4}","[3, 5, 8, 23]",315184231,Li1V1B1O4
LiMnBO4,mp-1176642,1.0745000000000002,2.90500493,0.062301210068029356,"{3: 1, 25: 1, 5: 1, 8: 4}","[3, 5, 8, 25]",315184251,Li1Mn1B1O4
LiGeBO4,mp-8873,4.526400000000001,0.65414942,0.004399628214284412,"{3: 1, 32: 1, 5: 1, 8: 4}","[3, 5, 8, 32]",315184321,Li1Ge1B1O4
LiNdBO4,mp-1104249,0.2064999999999999,1.65963645,0.16163344381904743,"{3: 1, 60: 1, 5: 1, 8: 4}","[3, 5, 8, 60]",315184601,Li1Nd1B1O4
LiV2BO5,mp-770361,1.4777999999999998,3.51540601,0.008975472083319502,"{3: 1, 23: 2, 5: 1, 8: 5}","[3, 5, 8, 23]",315185232,Li1V2B1O5
LiBi2BO5,mp-768636,1.7318000000000007,4.52949673,0.09842523166665806,"{3: 1, 83: 2, 5: 1, 8: 5}","[3, 5, 8, 83]",315185832,Li1Bi2B1O5
LiUBO5,mp-556156,1.9059,1.46107554,0.004834398125000305,"{3: 1, 92: 1, 5: 1, 8: 5}","[3, 5, 8, 92]",315185921,Li1U1B1O5
LiSi2BO6,mp-556531,5.2825,1.22960876,0.005015607458338067,"{3: 1, 14: 2, 5: 1, 8: 6}","[3, 5, 8, 14]",315186142,Li1Si2B1O6
Na3LiMnBPO7,mp-759559,2.4324000000000003,2.18875649,0.08128001276785479,"{11: 3, 3: 1, 25: 1, 5: 1, 15: 1, 8: 7}","[3, 5, 8, 11, 15, 25]",315187113151251,Na3Li1Mn1B1P1O7
LiMg6BO7,mp-1031116,1.1802000000000001,5.56210529,0.3960794163076953,"{3: 1, 12: 6, 5: 1, 8: 7}","[3, 5, 8, 12]",315187126,Li1Mg6B1O7
LiMg6BO8,mp-1031151,3.871,4.03822239,0.25620747828125,"{3: 1, 12: 6, 5: 1, 8: 8}","[3, 5, 8, 12]",315188126,Li1Mg6B1O8
K2LiB(PO4)2,mp-1019782,5.3944,0.35125872,0.0,"{19: 2, 3: 1, 5: 1, 15: 2, 8: 8}","[3, 5, 8, 15, 19]",315188152192,K2Li1B1P2O8
LiB(SO4)2,mp-1020106,6.3873999999999995,-0.93225024,0.0,"{3: 1, 5: 1, 16: 2, 8: 8}","[3, 5, 8, 16]",315188162,Li1B1S2O8
LiBF4,mp-12403,8.246,-4.59716786,0.0,"{3: 1, 5: 1, 9: 4}","[3, 5, 9]",315194,Li1B1F4
LiMg9B20,mp-35040,0.0,5.84987977,0.023793727077520366,"{3: 1, 12: 9, 5: 20}","[3, 5, 12]",31520129,Li1Mg9B20
LiBiTe2,mp-1222394,0.3456999999999999,4.06965404,0.09624763125000335,"{3: 1, 83: 1, 52: 2}","[3, 52, 83]",31522831,Li1Bi1Te2
LiAcTe2,mp-864755,0.5574000000000003,5.56883723,0.0,"{3: 1, 89: 1, 52: 2}","[3, 52, 89]",31522891,Li1Ac1Te2
LiTe3,mp-27466,0.19479999999999986,4.78038992,0.0,"{3: 1, 52: 3}","[3, 52]",31523,Li1Te3
Li(BC)2,mp-1222682,0.0,2.31274867,0.2590609887000026,"{3: 1, 5: 2, 6: 2}","[3, 5, 6]",315262,Li1B2C2
LiV5(BO5)2,mp-756548,0.0,4.90075499,0.02150398617766669,"{3: 1, 23: 5, 5: 2, 8: 10}","[3, 5, 8, 23]",3152810235,Li1V5B2O10
LiB2O3,mp-1200259,0.8109000000000001,0.20240757,0.5590842024088447,"{3: 1, 5: 2, 8: 3}","[3, 5, 8]",315283,Li1B2O3
LiAlB2O5,mp-557104,5.1361,-0.24867002,0.000617109777774516,"{3: 1, 13: 1, 5: 2, 8: 5}","[3, 5, 8, 13]",315285131,Li1Al1B2O5
LiVB2O5,mp-768913,2.2631,1.97143143,0.04680984277775302,"{3: 1, 23: 1, 5: 2, 8: 5}","[3, 5, 8, 23]",315285231,Li1V1B2O5
LiCrB2O5,mp-768542,2.4890999999999996,1.52587479,0.05113055423610291,"{3: 1, 24: 1, 5: 2, 8: 5}","[3, 5, 8, 24]",315285241,Li1Cr1B2O5
LiMnB2O5,mp-768442,1.2317999999999998,1.11234141,0.04387597545139599,"{3: 1, 25: 1, 5: 2, 8: 5}","[3, 5, 8, 25]",315285251,Li1Mn1B2O5
LiCoB2O5,mp-770781,0.8749,-0.38308322,0.11337415862037314,"{3: 1, 27: 1, 5: 2, 8: 5}","[3, 5, 8, 27]",315285271,Li1Co1B2O5
LiB2SbO5,mp-770808,2.5311999999999997,1.80282919,0.09897958701388188,"{3: 1, 5: 2, 51: 1, 8: 5}","[3, 5, 8, 51]",315285511,Li1B2Sb1O5
LiBiB2O5,mp-768795,2.9716,2.55672807,0.05180501472222243,"{3: 1, 83: 1, 5: 2, 8: 5}","[3, 5, 8, 83]",315285831,Li1Bi1B2O5
LiMn2(BO3)2,mp-780663,0.24730000000000008,1.8921654,0.07136961959092147,"{3: 1, 25: 2, 5: 2, 8: 6}","[3, 5, 8, 25]",315286252,Li1Mn2B2O6
LiCo2(BO3)2,mp-763318,0.6716,1.276159,0.19852089807290874,"{3: 1, 27: 2, 5: 2, 8: 6}","[3, 5, 8, 27]",315286272,Li1Co2B2O6
Rb2LiNd(BO3)2,mp-1195542,4.255299999999999,0.40058233,0.0,"{37: 2, 3: 1, 60: 1, 5: 2, 8: 6}","[3, 5, 8, 37, 60]",315286372601,Rb2Li1Nd1B2O6
LiNb(BO3)2,mp-761857,2.7438000000000002,-0.59390247,0.08764134322447781,"{3: 1, 41: 1, 5: 2, 8: 6}","[3, 5, 8, 41]",315286411,Li1Nb1B2O6
LiB2SbO6,mp-761862,2.9711,0.59317779,0.07215697683331523,"{3: 1, 5: 2, 51: 1, 8: 6}","[3, 5, 8, 51]",315286511,Li1B2Sb1O6
Cs2LiNd(BO3)2,mp-1194993,4.4761999999999995,5.39944128,0.0,"{55: 2, 3: 1, 60: 1, 5: 2, 8: 6}","[3, 5, 8, 55, 60]",315286552601,Cs2Li1Nd1B2O6
LiBi(BO3)2,mp-1176797,1.3641999999999999,3.11872321,0.03184414696667037,"{3: 1, 83: 1, 5: 2, 8: 6}","[3, 5, 8, 83]",315286831,Li1Bi1B2O6
SrLiAl2B2O7,mp-1235374,0.0,5.59822936,0.18136540206729723,"{38: 1, 3: 1, 13: 2, 5: 2, 8: 7}","[3, 5, 8, 13, 38]",315287132381,Sr1Li1Al2B2O7
LiB3,mp-1222413,0.09189999999999987,3.63390307,0.0,"{3: 1, 5: 3}","[3, 5]",3153,Li1B3
LiI,mp-570935,4.3818,-0.05169839,0.0,"{3: 1, 53: 1}","[3, 53]",31531,Li1I1
SrLi(BS2)3,mp-558219,2.91,1.31127932,0.0,"{38: 1, 3: 1, 5: 3, 16: 6}","[3, 5, 16, 38]",3153166381,Sr1Li1B3S6
Li15Ge4,mp-1777,0.0,0.69898196,0.0,"{3: 15, 32: 4}","[3, 32]",315324,Li15Ge4
CsLiI2,mp-1190087,3.7263,0.34512691,0.02375432687500112,"{55: 1, 3: 1, 53: 2}","[3, 53, 55]",31532551,Cs1Li1I2
Cs2LiI3,mp-1103949,3.7681999999999998,3.82438846,0.013564423333333409,"{55: 2, 3: 1, 53: 3}","[3, 53, 55]",31533552,Cs2Li1I3
Cs3LiI4,mp-569238,3.8043,-0.35818601,0.018203995625001745,"{55: 3, 3: 1, 53: 4}","[3, 53, 55]",31534553,Cs3Li1I4
LiAuI4,mp-29520,0.7517999999999998,1.69050047,0.0,"{3: 1, 79: 1, 53: 4}","[3, 53, 79]",31534791,Li1Au1I4
Cs2LiCeI6,mp-1112680,0.2572000000000001,2.83666667,0.0,"{55: 2, 3: 1, 58: 1, 53: 6}","[3, 53, 55, 58]",31536552581,Cs2Li1Ce1I6
Cs2LiPrI6,mp-1113008,2.9608999999999996,0.78083333,0.0,"{55: 2, 3: 1, 59: 1, 53: 6}","[3, 53, 55, 59]",31536552591,Cs2Li1Pr1I6
Cs2LiNdI6,mp-1112834,2.9743000000000004,0.8075,0.0,"{55: 2, 3: 1, 60: 1, 53: 6}","[3, 53, 55, 60]",31536552601,Cs2Li1Nd1I6
Cs2LiTaI6,mp-1113000,0.0,3.28300037,0.12768847506250047,"{55: 2, 3: 1, 73: 1, 53: 6}","[3, 53, 55, 73]",31536552731,Cs2Li1Ta1I6
Cs2LiBiI6,mp-1112838,1.9323,1.04708333,0.0314215200000012,"{55: 2, 3: 1, 83: 1, 53: 6}","[3, 53, 55, 83]",31536552831,Cs2Li1Bi1I6
LiUI6,mp-1222392,0.6631999999999998,1.56865244,0.0,"{3: 1, 92: 1, 53: 6}","[3, 53, 92]",31536921,Li1U1I6
LiCa4(BN2)3,mp-6799,2.1934,2.86373228,0.0,"{3: 1, 20: 4, 5: 3, 7: 6}","[3, 5, 7, 20]",315376204,Li1Ca4B3N6
Sr4Li(BN2)3,mp-9723,2.0686,2.35822983,0.0,"{38: 4, 3: 1, 5: 3, 7: 6}","[3, 5, 7, 38]",315376384,Sr4Li1B3N6
LiEu4(BN2)3,mp-1097959,0.0,4.61009097,0.0,"{3: 1, 63: 4, 5: 3, 7: 6}","[3, 5, 7, 63]",315376634,Li1Eu4B3N6
LiBi4B3O11,mp-768774,3.3148999999999997,2.75339235,0.06938929315788744,"{3: 1, 83: 4, 5: 3, 8: 11}","[3, 5, 8, 83]",3153811834,Li1Bi4B3O11
LiNd6B3O13F2,mp-1185531,4.4538,6.04398683,0.0,"{3: 1, 60: 6, 5: 3, 8: 13, 9: 2}","[3, 5, 8, 9, 60]",315381392606,Li1Nd6B3O13F2
LiPr6B3O14,mp-1211486,4.3181,1.87512256,0.0,"{3: 1, 59: 6, 5: 3, 8: 14}","[3, 5, 8, 59]",3153814596,Li1Pr6B3O14
LiNd6B3O14,mp-1211241,4.4113,6.17309751,0.0,"{3: 1, 60: 6, 5: 3, 8: 14}","[3, 5, 8, 60]",3153814606,Li1Nd6B3O14
LiSm6B3O14,mp-1211144,4.510800000000001,1.71614544,0.0,"{3: 1, 62: 6, 5: 3, 8: 14}","[3, 5, 8, 62]",3153814626,Li1Sm6B3O14
LiEu6B3O14,mp-1213345,0.0,1.78548464,0.13801862333336068,"{3: 1, 63: 6, 5: 3, 8: 14}","[3, 5, 8, 63]",3153814636,Li1Eu6B3O14
LiGd6B3O14,mp-581285,2.8935999999999997,1.97755602,0.008145955578696018,"{3: 1, 64: 6, 5: 3, 8: 14}","[3, 5, 8, 64]",3153814646,Li1Gd6B3O14
LiTb6B3O14,mp-1211079,4.7094000000000005,1.86298833,0.0,"{3: 1, 65: 6, 5: 3, 8: 14}","[3, 5, 8, 65]",3153814656,Li1Tb6B3O14
LiDy6B3O14,mp-1211233,4.7578,1.83286476,0.0,"{3: 1, 66: 6, 5: 3, 8: 14}","[3, 5, 8, 66]",3153814666,Li1Dy6B3O14
LiHo6B3O14,mp-1211170,4.7947,1.73520127,0.0148424646527765,"{3: 1, 67: 6, 5: 3, 8: 14}","[3, 5, 8, 67]",3153814676,Li1Ho6B3O14
LiEr6B3O14,mp-1211593,4.8612,6.61595561,0.017893081961807056,"{3: 1, 68: 6, 5: 3, 8: 14}","[3, 5, 8, 68]",3153814686,Li1Er6B3O14
LiTm6B3O14,mp-1211183,4.8766,6.6058326,0.0,"{3: 1, 69: 6, 5: 3, 8: 14}","[3, 5, 8, 69]",3153814696,Li1Tm6B3O14
LiBi6B3O14,mp-778009,2.5046,4.15959571,0.04152647937498788,"{3: 1, 83: 6, 5: 3, 8: 14}","[3, 5, 8, 83]",3153814836,Li1Bi6B3O14
LiB3O5,mp-3660,6.3532,0.60535045,0.006568469722220804,"{3: 1, 5: 3, 8: 5}","[3, 5, 8]",315385,Li1B3O5
LiMn3(BO3)3,mp-776450,0.0,1.71447311,0.08309108410154309,"{3: 1, 25: 3, 5: 3, 8: 9}","[3, 5, 8, 25]",315389253,Li1Mn3B3O9
Sr4Li(BO3)3,mp-554003,4.1874,1.72892339,0.017461011617648126,"{38: 4, 3: 1, 5: 3, 8: 9}","[3, 5, 8, 38]",315389384,Sr4Li1B3O9
LiAlB4,mp-995282,0.0,5.4439783,0.13323522291666645,"{3: 1, 13: 1, 5: 4}","[3, 5, 13]",3154131,Li1Al1B4
Li15Pd4,mp-1197547,0.0,1.17868093,0.0,"{3: 15, 46: 4}","[3, 46]",315464,Li15Pd4
Sr2LiSc(B2O5)2,mp-8796,4.420299999999999,1.42251077,0.0019636626620354036,"{38: 2, 3: 1, 21: 1, 5: 4, 8: 10}","[3, 5, 8, 21, 38]",3154810211382,Sr2Li1Sc1B4O10
Sr2LiIn(B2O5)2,mp-14854,3.7657999999999996,1.8302702,0.010532221041654743,"{38: 2, 3: 1, 49: 1, 5: 4, 8: 10}","[3, 5, 8, 38, 49]",3154810382491,Sr2Li1In1B4O10
LiMn4(BO3)4,mp-850920,0.0,1.4490929,0.09641111113096557,"{3: 1, 25: 4, 5: 4, 8: 12}","[3, 5, 8, 25]",3154812254,Li1Mn4B4O12
NaLiB4O7,mp-553926,5.7974,0.69603958,0.0,"{11: 1, 3: 1, 5: 4, 8: 7}","[3, 5, 8, 11]",315487111,Na1Li1B4O7
KLiB4O7,mp-6648,5.0827,-0.40747904,0.0,"{19: 1, 3: 1, 5: 4, 8: 7}","[3, 5, 8, 19]",315487191,K1Li1B4O7
RbLiB4O7,mp-6787,4.8696,-0.30008103,0.0,"{37: 1, 3: 1, 5: 4, 8: 7}","[3, 5, 8, 37]",315487371,Rb1Li1B4O7
Cs3LiPb4,mp-1213704,0.7565,2.97276063,0.0,"{55: 3, 3: 1, 82: 4}","[3, 55, 82]",31553824,Cs3Li1Pb4
LiB5O13,mp-1180610,0.05820000000000003,-1.31954454,0.5278604850146182,"{3: 1, 5: 5, 8: 13}","[3, 5, 8]",3155813,Li1B5O13
Na2LiB5(PO7)2,mp-1020146,5.2247,-0.10733565,0.0,"{11: 2, 3: 1, 5: 5, 15: 2, 8: 14}","[3, 5, 8, 11, 15]",3155814112152,Na2Li1B5P2O14
LiSiB6,mp-973391,1.4627,5.24198678,0.0,"{3: 1, 14: 1, 5: 6}","[3, 5, 14]",3156141,Li1Si1B6
LiB6C,mp-569450,1.3921999999999999,4.52697635,0.0,"{3: 1, 5: 6, 6: 1}","[3, 5, 6]",315661,Li1B6C1
CsLi(B3O5)2,mp-1019715,5.2081,-1.09078179,0.0,"{55: 1, 3: 1, 5: 6, 8: 10}","[3, 5, 8, 55]",3156810551,Cs1Li1B6O10
LiB6S4(Cl3O4)2,mp-1196966,1.5093999999999999,-0.45434765,0.5758632730111115,"{3: 1, 5: 6, 16: 4, 17: 6, 8: 8}","[3, 5, 8, 16, 17]",315688164176,Li1B6S4Cl6O8
LiB6O9F,mp-558105,6.4556,-1.09514679,0.0,"{3: 1, 5: 6, 8: 9, 9: 1}","[3, 5, 8, 9]",31568991,Li1B6O9F1
LiLaAu2,mp-1185375,0.0,5.087956,0.010424881250001405,"{3: 1, 57: 1, 79: 2}","[3, 57, 79]",31571792,Li1La1Au2
LiLaHg2,mp-861624,0.0,4.1480684,0.0,"{3: 1, 57: 1, 80: 2}","[3, 57, 80]",31571802,Li1La1Hg2
LiLaTl2,mp-1185376,0.0,6.31215442,0.0,"{3: 1, 57: 1, 81: 2}","[3, 57, 81]",31571812,Li1La1Tl2
LiLaBi2,mp-1095149,0.0,5.66400408,0.0,"{3: 1, 57: 1, 83: 2}","[3, 57, 83]",31571832,Li1La1Bi2
Li15W7N19,mp-1245780,1.5830000000000002,1.34107161,0.0197496250786795,"{3: 15, 74: 7, 7: 19}","[3, 7, 74]",315719747,Li15W7N19
LiLa2Os,mp-867813,0.0,7.39770644,0.04574077750000072,"{3: 1, 57: 2, 76: 1}","[3, 57, 76]",31572761,Li1La2Os1
LiLa2Ir,mp-867806,0.0,7.53165173,0.08924704208333356,"{3: 1, 57: 2, 77: 1}","[3, 57, 77]",31572771,Li1La2Ir1
LiLa2Hg,mp-1096038,0.0,-1.78777874,2.217758244999999,"{3: 1, 57: 2, 80: 1}","[3, 57, 80]",31572801,Li1La2Hg1
LiLa2Tl,mp-1093905,0.0,-1.80772319,2.2276047150000005,"{3: 1, 57: 2, 81: 1}","[3, 57, 81]",31572811,Li1La2Tl1
LiLa3,mp-973415,0.0,6.75276815,0.14494223041666388,"{3: 1, 57: 3}","[3, 57]",31573,Li1La3
Li15Cr2N9,mp-530262,1.3186,1.99689262,0.0,"{3: 15, 24: 2, 7: 9}","[3, 7, 24]",31579242,Li15Cr2N9
Li15Au4,mp-567395,0.0,1.41842241,0.0,"{3: 15, 79: 4}","[3, 79]",315794,Li15Au4
Li15Cr2O12,mp-758530,0.0,1.14076319,0.07044912508620538,"{3: 15, 24: 2, 8: 12}","[3, 8, 24]",315812242,Li15Cr2O12
Li15Mn2O12,mp-758672,0.0,0.52891981,0.056325672241380076,"{3: 15, 25: 2, 8: 12}","[3, 8, 25]",315812252,Li15Mn2O12
LiCeHg2,mp-1185334,0.0,3.9344143,0.011344918333328735,"{3: 1, 58: 1, 80: 2}","[3, 58, 80]",31581802,Li1Ce1Hg2
LiCeTl2,mp-867295,0.0,6.06802363,0.0,"{3: 1, 58: 1, 81: 2}","[3, 58, 81]",31581812,Li1Ce1Tl2
Li15Bi4(PdO10)2,mp-25257,0.03420000000000001,1.94434823,0.026216205243903445,"{3: 15, 83: 4, 46: 2, 8: 20}","[3, 8, 46, 83]",315820462834,Li15Bi4Pd2O20
LiCe2Os,mp-1185224,0.0,7.00157355,0.052616313291667716,"{3: 1, 58: 2, 76: 1}","[3, 58, 76]",31582761,Li1Ce2Os1
LiCe2Pb,mp-1185218,0.0,6.2752218,0.18756872303571548,"{3: 1, 58: 2, 82: 1}","[3, 58, 82]",31582821,Li1Ce2Pb1
Li15(NiO2)14,mp-705910,0.0,3.26607739,0.041063713479529085,"{3: 15, 28: 14, 8: 28}","[3, 8, 28]",3158282814,Li15Ni14O28
LiCe3,mp-1185343,0.0,6.71688364,0.2648316679166669,"{3: 1, 58: 3}","[3, 58]",31583,Li1Ce3
Li15Cr15SiO32,mp-861689,1.3783999999999996,3.32015218,0.06930447119047134,"{3: 15, 24: 15, 14: 1, 8: 32}","[3, 8, 14, 24]",3158321412415,Li15Cr15Si1O32
Li15Mn15SiO32,mp-867892,0.21960000000000024,3.6234904,0.03776522289681683,"{3: 15, 25: 15, 14: 1, 8: 32}","[3, 8, 14, 25]",3158321412515,Li15Mn15Si1O32
Li15Mn8P8(O4F)8,mp-759732,0.22030000000000016,2.13630728,0.03249790679576847,"{3: 15, 25: 8, 15: 8, 8: 32, 9: 8}","[3, 8, 9, 15, 25]",31583298158258,Li15Mn8P8O32F8
Li15Ti11Nb5O42,mp-767393,2.2795,1.72264028,0.02714212547944328,"{3: 15, 22: 11, 41: 5, 8: 42}","[3, 8, 22, 41]",3158422211415,Li15Ti11Nb5O42
Li15Mn21O43,mp-698703,0.0,1.97020949,0.11210929101266487,"{3: 15, 25: 21, 8: 43}","[3, 8, 25]",3158432521,Li15Mn21O43
NaLi15V16O48,mp-1101663,3.0463000000000005,-0.50761827,0.021693518312496884,"{11: 1, 3: 15, 23: 16, 8: 48}","[3, 8, 11, 23]",3158481112316,Na1Li15V16O48
Li15Ni8(PO4)12,mp-1178182,0.0,0.8920684,0.06283258581826878,"{3: 15, 28: 8, 15: 12, 8: 48}","[3, 8, 15, 28]",3158481512288,Li15Ni8P12O48
Li15Nb16O48,mp-530846,0.0,0.75613635,0.014794038085449657,"{3: 15, 41: 16, 8: 48}","[3, 8, 41]",3158484116,Li15Nb16O48
Li15V6(P8O29)2,mp-1178192,1.0735,1.30435895,0.01450319806796152,"{3: 15, 23: 6, 15: 16, 8: 58}","[3, 8, 15, 23]",3158581516236,Li15V6P16O58
LiMn2(B4O7)2,mp-1235124,0.17510000000000048,6.30714153,0.19226123641427328,"{3: 1, 25: 2, 5: 8, 8: 14}","[3, 5, 8, 25]",3158814252,Li1Mn2B8O14
LiB9,mp-1105976,0.0,7.37870781,0.1308888520000009,"{3: 1, 5: 9}","[3, 5]",3159,Li1B9
LiPrAu2,mp-1185407,0.0,3.47703399,0.01661984562499974,"{3: 1, 59: 1, 79: 2}","[3, 59, 79]",31591792,Li1Pr1Au2
LiPrHg2,mp-865738,0.0,2.72292635,0.0,"{3: 1, 59: 1, 80: 2}","[3, 59, 80]",31591802,Li1Pr1Hg2
LiPrTl2,mp-865709,0.0,4.87231164,0.0001529079166715519,"{3: 1, 59: 1, 81: 2}","[3, 59, 81]",31591812,Li1Pr1Tl2
LiPr2Os,mp-977570,0.0,3.96862527,0.014200498083329904,"{3: 1, 59: 2, 76: 1}","[3, 59, 76]",31592761,Li1Pr2Os1
LiPr2Ir,mp-1185396,0.0,4.27348681,0.03343591679166735,"{3: 1, 59: 2, 77: 1}","[3, 59, 77]",31592771,Li1Pr2Ir1
LiPr3,mp-1185406,0.0,2.76623175,0.1417196054166645,"{3: 1, 59: 3}","[3, 59]",31593,Li1Pr3
SrLi(B3O5)3,mp-18495,5.6482,-0.41263063,0.0,"{38: 1, 3: 1, 5: 9, 8: 15}","[3, 5, 8, 38]",3159815381,Sr1Li1B9O15
LiNdAu2,mp-1185397,0.0,3.48121043,0.012961923749999826,"{3: 1, 60: 1, 79: 2}","[3, 60, 79]",31601792,Li1Nd1Au2
LiNdHg2,mp-861660,0.0,2.70052228,0.0,"{3: 1, 60: 1, 80: 2}","[3, 60, 80]",31601802,Li1Nd1Hg2
LiNdTl2,mp-866019,0.0,5.02444428,0.0,"{3: 1, 60: 1, 81: 2}","[3, 60, 81]",31601812,Li1Nd1Tl2
LiNd2Os,mp-977391,0.0,3.80115105,0.0,"{3: 1, 60: 2, 76: 1}","[3, 60, 76]",31602761,Li1Nd2Os1
LiNd2Ir,mp-865808,0.0,4.22988775,0.02299904691666299,"{3: 1, 60: 2, 77: 1}","[3, 60, 77]",31602771,Li1Nd2Ir1
LiC,mp-1378,3.2727,-0.75687253,0.01581632847222192,"{3: 1, 6: 1}","[3, 6]",3161,Li1C1
LiMg14C,mp-1026802,0.0,3.51295215,0.2573690676562499,"{3: 1, 12: 14, 6: 1}","[3, 6, 12]",31611214,Li1Mg14C1
LiMg6C,mp-1021342,0.0,3.48530784,0.3011865265624998,"{3: 1, 12: 6, 6: 1}","[3, 6, 12]",3161126,Li1Mg6C1
LiW6CCl18,mp-571612,0.0,2.49905283,0.012748751089746158,"{3: 1, 74: 6, 6: 1, 17: 18}","[3, 6, 17, 74]",31611718746,Li1W6C1Cl18
LiPmAu2,mp-862926,0.0,3.48387999,0.0,"{3: 1, 61: 1, 79: 2}","[3, 61, 79]",31611792,Li1Pm1Au2
LiPmHg2,mp-862927,0.0,2.69420011,0.0,"{3: 1, 61: 1, 80: 2}","[3, 61, 80]",31611802,Li1Pm1Hg2
LiPmTl2,mp-862928,0.0,4.92456444,0.0,"{3: 1, 61: 1, 81: 2}","[3, 61, 81]",31611812,Li1Pm1Tl2
LiC12,mp-1021323,0.0,5.10006627,0.0,"{3: 1, 6: 12}","[3, 6]",31612,Li1C12
LiPm2Os,mp-862841,0.0,3.91825284,0.0,"{3: 1, 61: 2, 76: 1}","[3, 61, 76]",31612761,Li1Pm2Os1
LiPm2Ir,mp-861956,0.0,4.1711881,0.0,"{3: 1, 61: 2, 77: 1}","[3, 61, 77]",31612771,Li1Pm2Ir1
LiPm2Pt,mp-862842,0.0,4.01731953,0.0,"{3: 1, 61: 2, 78: 1}","[3, 61, 78]",31612781,Li1Pm2Pt1
LiPm2Pb,mp-1185398,0.0,4.2455908,0.006430285000000424,"{3: 1, 61: 2, 82: 1}","[3, 61, 82]",31612821,Li1Pm2Pb1
LiPm3,mp-1185395,0.0,2.53770099,0.1556740560416685,"{3: 1, 61: 3}","[3, 61]",31613,Li1Pm3
LiAlC16Cl12(OF6)4,mp-1195533,4.679,-0.80050821,0.3330472860991396,"{3: 1, 13: 1, 6: 16, 17: 12, 8: 4, 9: 24}","[3, 6, 8, 9, 13, 17]",31616849241311712,Li1Al1C16Cl12O4F24
LiCN,mp-30057,5.5313,-3.85653625,0.3077016904166676,"{3: 1, 6: 1, 7: 1}","[3, 6, 7]",316171,Li1C1N1
LiCSN,mp-1188861,3.8542000000000005,0.65871534,0.040761351607143226,"{3: 1, 6: 1, 16: 1, 7: 1}","[3, 6, 7, 16]",316171161,Li1C1S1N1
LiCNO,mp-1222426,4.8114,4.46728489,0.05422587906249898,"{3: 1, 6: 1, 7: 1, 8: 1}","[3, 6, 7, 8]",31617181,Li1C1N1O1
Sr2LiCBr3N2,mp-569782,3.9725,0.88947419,0.0,"{38: 2, 3: 1, 6: 1, 35: 3, 7: 2}","[3, 6, 7, 35, 38]",316172353382,Sr2Li1C1Br3N2
LiEu2CBr3N2,mp-568863,0.7450999999999999,3.95957302,0.0,"{3: 1, 63: 2, 6: 1, 35: 3, 7: 2}","[3, 6, 7, 35, 63]",316172353632,Li1Eu2C1Br3N2
LiEu2CI3N2,mp-1200887,1.0260999999999996,4.70466969,0.0,"{3: 1, 63: 2, 6: 1, 53: 3, 7: 2}","[3, 6, 7, 53, 63]",316172533632,Li1Eu2C1I3N2
LiMg14CO16,mp-1035124,0.0,5.23237294,0.26482457283203154,"{3: 1, 12: 14, 6: 1, 8: 16}","[3, 6, 8, 12]",31618161214,Li1Mg14C1O16
LiCO2,mp-1190287,3.5989,-0.43460468,0.056494787656251155,"{3: 1, 6: 1, 8: 2}","[3, 6, 8]",316182,Li1C1O2
NaLiCO3,mp-559533,4.4629,4.87605625,0.0,"{11: 1, 3: 1, 6: 1, 8: 3}","[3, 6, 8, 11]",316183111,Na1Li1C1O3
KLiCO3,mp-562137,4.5495,-0.14298189,0.0,"{19: 1, 3: 1, 6: 1, 8: 3}","[3, 6, 8, 19]",316183191,K1Li1C1O3
LiMg30CO32,mp-1040064,0.4610000000000003,5.03353926,0.1348124409472664,"{3: 1, 12: 30, 6: 1, 8: 32}","[3, 6, 8, 12]",31618321230,Li1Mg30C1O32
LiVCO3F2,mp-766478,1.7853999999999999,1.01416564,0.07549136687500191,"{3: 1, 23: 1, 6: 1, 8: 3, 9: 2}","[3, 6, 8, 9, 23]",31618392231,Li1V1C1O3F2
LiCrCO3F2,mp-766487,2.5199000000000003,0.10833638,0.09015633874999995,"{3: 1, 24: 1, 6: 1, 8: 3, 9: 2}","[3, 6, 8, 9, 24]",31618392241,Li1Cr1C1O3F2
LiMnCO3F2,mp-766498,1.2612,-0.47216616,0.04500529869791858,"{3: 1, 25: 1, 6: 1, 8: 3, 9: 2}","[3, 6, 8, 9, 25]",31618392251,Li1Mn1C1O3F2
LiCS(OF)3,mp-636952,6.5704,-1.7618617,0.16433691236111247,"{3: 1, 6: 1, 16: 1, 8: 3, 9: 3}","[3, 6, 8, 9, 16]",31618393161,Li1C1S1O3F3
LiVCO4,mp-765999,1.3169,2.46862173,0.04003749541666313,"{3: 1, 23: 1, 6: 1, 8: 4}","[3, 6, 8, 23]",316184231,Li1V1C1O4
LiCrCO4,mp-765159,2.4796,2.12351416,0.029675039404758685,"{3: 1, 24: 1, 6: 1, 8: 4}","[3, 6, 8, 24]",316184241,Li1Cr1C1O4
LiMnCO4,mp-758472,0.7424999999999999,2.06154204,0.019551171369056597,"{3: 1, 25: 1, 6: 1, 8: 4}","[3, 6, 8, 25]",316184251,Li1Mn1C1O4
LiCoCO4,mp-758146,0.9274,1.67367411,0.0778867095833311,"{3: 1, 27: 1, 6: 1, 8: 4}","[3, 6, 8, 27]",316184271,Li1Co1C1O4
LiNiCO4,mp-757976,0.0,2.2383102,0.06794385726190111,"{3: 1, 28: 1, 6: 1, 8: 4}","[3, 6, 8, 28]",316184281,Li1Ni1C1O4
LiVCO5,mp-1176659,1.7315999999999998,2.1096373,0.06428962765625101,"{3: 1, 23: 1, 6: 1, 8: 5}","[3, 6, 8, 23]",316185231,Li1V1C1O5
NaLiMnPCO7,mp-760044,0.7532,0.92184567,0.0,"{11: 1, 3: 1, 25: 1, 15: 1, 6: 1, 8: 7}","[3, 6, 8, 11, 15, 25]",316187111151251,Na1Li1Mn1P1C1O7
Na2LiMnPCO7,mp-756734,3.0672,5.36223432,0.018531133589749338,"{11: 2, 3: 1, 25: 1, 15: 1, 6: 1, 8: 7}","[3, 6, 8, 11, 15, 25]",316187112151251,Na2Li1Mn1P1C1O7
LiSiPCO7,mp-768161,5.7639,0.83137577,0.09398139871212674,"{3: 1, 14: 1, 15: 1, 6: 1, 8: 7}","[3, 6, 8, 14, 15]",316187141151,Li1Si1P1C1O7
LiVSiCO7,mp-770650,1.8349,-0.5660772,0.09395528696969979,"{3: 1, 23: 1, 14: 1, 6: 1, 8: 7}","[3, 6, 8, 14, 23]",316187141231,Li1V1Si1C1O7