formula,material_id,band_gap,efermi,energy_above_hull,comp_atoms,sorted_keys_comp_atoms,comp_number,new_formula
Li5Ti2Mn5O12,mp-771262,0.11389999999999967,3.97500663,0.06012543687499772,"{3: 5, 22: 2, 25: 5, 8: 12}","[3, 8, 22, 25]",35812222255,Li5Ti2Mn5O12
Li5Ti2Co5O12,mp-763447,0.22500000000000053,3.77001237,0.09871041916666456,"{3: 5, 22: 2, 27: 5, 8: 12}","[3, 8, 22, 27]",35812222275,Li5Ti2Co5O12
Li5Ti2Ni5O12,mp-770539,0.0743999999999998,3.77888898,0.030449102638884895,"{3: 5, 22: 2, 28: 5, 8: 12}","[3, 8, 22, 28]",35812222285,Li5Ti2Ni5O12
Li5Mn5V2O12,mp-756887,0.04709999999999992,3.86831167,0.0892882696874917,"{3: 5, 25: 5, 23: 2, 8: 12}","[3, 8, 23, 25]",35812232255,Li5Mn5V2O12
Li5V2Co5O12,mp-771251,0.23229999999999995,3.53175684,0.3556657557142886,"{3: 5, 23: 2, 27: 5, 8: 12}","[3, 8, 23, 27]",35812232275,Li5V2Co5O12
Li5V2Ni5O12,mp-756881,0.9627000000000003,5.03217553,0.06706149708333253,"{3: 5, 23: 2, 28: 5, 8: 12}","[3, 8, 23, 28]",35812232285,Li5V2Ni5O12
Li5V5O12,mp-758739,0.6696,3.78396574,0.062142263636367545,"{3: 5, 23: 5, 8: 12}","[3, 8, 23]",35812235,Li5V5O12
Li5V5Cr2O12,mp-773065,0.0,4.91958395,0.056836381493056365,"{3: 5, 23: 5, 24: 2, 8: 12}","[3, 8, 23, 24]",35812235242,Li5V5Cr2O12
Li5Mn2V5O12,mp-774681,0.8405000000000005,4.23116401,0.07041322645833503,"{3: 5, 25: 2, 23: 5, 8: 12}","[3, 8, 23, 25]",35812235252,Li5Mn2V5O12
Li5V5(CoO6)2,mp-755938,1.3290000000000006,4.06069792,0.1322856931944454,"{3: 5, 23: 5, 27: 2, 8: 12}","[3, 8, 23, 27]",35812235272,Li5V5Co2O12
Li5V5(NiO6)2,mp-756056,0.9321000000000002,4.4438414,0.06229445562500313,"{3: 5, 23: 5, 28: 2, 8: 12}","[3, 8, 23, 28]",35812235282,Li5V5Ni2O12
Li5Nb2V5O12,mp-754737,0.0,5.32017479,0.0980282352430546,"{3: 5, 41: 2, 23: 5, 8: 12}","[3, 8, 23, 41]",35812235412,Li5Nb2V5O12
Li5V7O12,mp-764746,0.0,5.51677493,0.0510727931597188,"{3: 5, 23: 7, 8: 12}","[3, 8, 23]",35812237,Li5V7O12
Li5Mn5Cr2O12,mp-770946,0.0,3.54257739,0.0807019171666612,"{3: 5, 25: 5, 24: 2, 8: 12}","[3, 8, 24, 25]",35812242255,Li5Mn5Cr2O12
Li5Cr2Co5O12,mp-756713,0.0,3.22805341,0.2497930339583352,"{3: 5, 24: 2, 27: 5, 8: 12}","[3, 8, 24, 27]",35812242275,Li5Cr2Co5O12
Li5Cr2Ni5O12,mp-774237,0.0,3.73124677,0.049607249270832376,"{3: 5, 24: 2, 28: 5, 8: 12}","[3, 8, 24, 28]",35812242285,Li5Cr2Ni5O12
Li5Cr5O12,mp-758582,0.0,1.94764227,0.10172412722222646,"{3: 5, 24: 5, 8: 12}","[3, 8, 24]",35812245,Li5Cr5O12
Li5Mn2Co5O12,mp-753188,0.0,3.21524547,0.43617523583333373,"{3: 5, 25: 2, 27: 5, 8: 12}","[3, 8, 25, 27]",35812252275,Li5Mn2Co5O12
Li5Mn2Ni5O12,mp-771232,0.0,3.70688288,0.02586411138888778,"{3: 5, 25: 2, 28: 5, 8: 12}","[3, 8, 25, 28]",35812252285,Li5Mn2Ni5O12
Li5Mn5O12,mp-771669,0.2594000000000001,1.69417983,0.06378095856059218,"{3: 5, 25: 5, 8: 12}","[3, 8, 25]",35812255,Li5Mn5O12
Li5Mn5CoO12,mp-760336,0.1109,2.98402032,0.07787221471012629,"{3: 5, 25: 5, 27: 1, 8: 12}","[3, 8, 25, 27]",35812255271,Li5Mn5Co1O12
Li5Mn5(CoO6)2,mp-765629,0.2627999999999999,3.63177083,0.044001447916663494,"{3: 5, 25: 5, 27: 2, 8: 12}","[3, 8, 25, 27]",35812255272,Li5Mn5Co2O12
Li5Mn5(NiO6)2,mp-774245,0.3198000000000003,4.27140883,0.027876850208330417,"{3: 5, 25: 5, 28: 2, 8: 12}","[3, 8, 25, 28]",35812255282,Li5Mn5Ni2O12
Li5Mn5(SnO6)2,mp-771140,0.09750000000000014,4.50965403,0.04031254708333698,"{3: 5, 25: 5, 50: 2, 8: 12}","[3, 8, 25, 50]",35812255502,Li5Mn5Sn2O12
Li5Mn5(SbO6)2,mp-773202,0.0,5.06377634,0.07477646479167,"{3: 5, 25: 5, 51: 2, 8: 12}","[3, 8, 25, 51]",35812255512,Li5Mn5Sb2O12
Li5Mn6O12,mp-1638896,1.2066,2.38464137,0.027114572826062222,"{3: 5, 25: 6, 8: 12}","[3, 8, 25]",35812256,Li5Mn6O12
Li5Mn7O12,mp-754393,0.0,3.6371931,0.05080500687500056,"{3: 5, 25: 7, 8: 12}","[3, 8, 25]",35812257,Li5Mn7O12
Li5Co2Ni5O12,mp-765625,0.0,3.97162534,0.04191646263888682,"{3: 5, 27: 2, 28: 5, 8: 12}","[3, 8, 27, 28]",35812272285,Li5Co2Ni5O12
Li5Co4(NiO6)2,mp-760155,0.1640999999999999,2.19222292,0.07674072277173405,"{3: 5, 27: 4, 28: 2, 8: 12}","[3, 8, 27, 28]",35812274282,Li5Co4Ni2O12
Li5Co5(NiO6)2,mp-765645,0.04559999999999986,3.46628508,0.10695086833334155,"{3: 5, 27: 5, 28: 2, 8: 12}","[3, 8, 27, 28]",35812275282,Li5Co5Ni2O12
Li5Nb2Co5O12,mp-755029,0.0008999999999996788,4.80330999,0.08562613020833254,"{3: 5, 41: 2, 27: 5, 8: 12}","[3, 8, 27, 41]",35812275412,Li5Nb2Co5O12
Li5Co5(SnO6)2,mp-756714,0.0,4.68139704,0.06281197270833605,"{3: 5, 27: 5, 50: 2, 8: 12}","[3, 8, 27, 50]",35812275502,Li5Co5Sn2O12
Li5Co5(SbO6)2,mp-771036,0.0,5.93138574,0.07767743942707916,"{3: 5, 27: 5, 51: 2, 8: 12}","[3, 8, 27, 51]",35812275512,Li5Co5Sb2O12
Li5Co7O12,mp-756433,0.0,3.73290382,0.21313394145833353,"{3: 5, 27: 7, 8: 12}","[3, 8, 27]",35812277,Li5Co7O12
Li5Nb2Ni5O12,mp-756737,0.0,6.20769431,0.1013120982812481,"{3: 5, 41: 2, 28: 5, 8: 12}","[3, 8, 28, 41]",35812285412,Li5Nb2Ni5O12
Li5Ni5(SnO6)2,mp-772998,0.12299999999999933,4.40841077,0.014998214513892272,"{3: 5, 28: 5, 50: 2, 8: 12}","[3, 8, 28, 50]",35812285502,Li5Ni5Sn2O12
Li5Ni5(SbO6)2,mp-756974,0.0,6.6580897,0.08144855843749266,"{3: 5, 28: 5, 51: 2, 8: 12}","[3, 8, 28, 51]",35812285512,Li5Ni5Sb2O12
Li5(NiO2)6,mp-690572,0.0,3.59674137,0.01657709617753156,"{3: 5, 28: 6, 8: 12}","[3, 8, 28]",35812286,Li5Ni6O12
Li5Ni7O12,mp-756931,0.0,3.99235666,0.015147986944443304,"{3: 5, 28: 7, 8: 12}","[3, 8, 28]",35812287,Li5Ni7O12
Li5La3Nb2O12,mp-761986,3.5291,6.80885851,0.05329992022726682,"{3: 5, 57: 3, 41: 2, 8: 12}","[3, 8, 41, 57]",35812412573,Li5La3Nb2O12
Li5La3(SbO6)2,mp-775628,3.1339000000000006,4.67446417,0.056708977840909114,"{3: 5, 57: 3, 51: 2, 8: 12}","[3, 8, 51, 57]",35812512573,Li5La3Sb2O12
Li5Sm3(SbO6)2,mp-774794,3.3766000000000003,2.86775672,0.02506301130681443,"{3: 5, 62: 3, 51: 2, 8: 12}","[3, 8, 51, 62]",35812512623,Li5Sm3Sb2O12
Li5La3Ta2O12,mp-559776,3.9718999999999998,3.0166854,0.29481823238636373,"{3: 5, 57: 3, 73: 2, 8: 12}","[3, 8, 57, 73]",35812573732,Li5La3Ta2O12
Li5(BiO3)4,mp-867727,0.0,2.86126392,0.022686547291656645,"{3: 5, 83: 4, 8: 12}","[3, 8, 83]",35812834,Li5Bi4O12
Li5V4O12F,mp-759940,2.2269,0.56301688,0.05798278386363798,"{3: 5, 23: 4, 8: 12, 9: 1}","[3, 8, 9, 23]",3581291234,Li5V4O12F1
Li5V(P2O7)2,mp-758419,2.6612000000000005,1.80211934,0.06293083947916234,"{3: 5, 23: 1, 15: 4, 8: 14}","[3, 8, 15, 23]",35814154231,Li5V1P4O14
Li5Cr(P2O7)2,mp-1177176,2.7011,1.48562199,0.07094833041666337,"{3: 5, 24: 1, 15: 4, 8: 14}","[3, 8, 15, 24]",35814154241,Li5Cr1P4O14
CsLi5Mn(P2O7)2,mp-1195536,3.959,1.4608321,0.0,"{55: 1, 3: 5, 25: 1, 15: 4, 8: 14}","[3, 8, 15, 25, 55]",35814154251551,Cs1Li5Mn1P4O14
Li5Sn(P2O7)2,mp-757844,0.09850000000000003,3.45869865,0.08599432432288712,"{3: 5, 50: 1, 15: 4, 8: 14}","[3, 8, 15, 50]",35814154501,Li5Sn1P4O14
Li5Sb(P2O7)2,mp-761952,4.0344,1.9163929,0.05002329184027943,"{3: 5, 51: 1, 15: 4, 8: 14}","[3, 8, 15, 51]",35814154511,Li5Sb1P4O14
Li5Bi(P2O7)2,mp-1177146,4.1825,1.78776799,0.04674016996527808,"{3: 5, 83: 1, 15: 4, 8: 14}","[3, 8, 15, 83]",35814154831,Li5Bi1P4O14
Li5Mn7O15,mp-774493,0.0,2.58497819,0.07564056481480996,"{3: 5, 25: 7, 8: 15}","[3, 8, 25]",35815257,Li5Mn7O15
Li5Co4(SiO4)4,mp-758904,0.4256,1.87696224,0.05862722862068637,"{3: 5, 27: 4, 14: 4, 8: 16}","[3, 8, 14, 27]",35816144274,Li5Co4Si4O16
Li5Mn3Cr(PO4)4,mp-764909,0.0,5.51413917,0.09164673773276011,"{3: 5, 25: 3, 24: 1, 15: 4, 8: 16}","[3, 8, 15, 24, 25]",35816154241253,Li5Mn3Cr1P4O16
Li5Cr3(PO4)4,mp-1222580,2.1681999999999997,2.5820755,0.0024058910156314894,"{3: 5, 24: 3, 15: 4, 8: 16}","[3, 8, 15, 24]",35816154243,Li5Cr3P4O16
Li5Mn2Co2(PO4)4,mp-1177107,0.046499999999999986,4.81956048,0.09371001905172172,"{3: 5, 25: 2, 27: 2, 15: 4, 8: 16}","[3, 8, 15, 25, 27]",35816154252272,Li5Mn2Co2P4O16
Li5Mn3(PO4)4,mp-755112,0.0,2.4095636,0.012032993571432726,"{3: 5, 25: 3, 15: 4, 8: 16}","[3, 8, 15, 25]",35816154253,Li5Mn3P4O16
Li5Ti4Co3O16,mp-769510,0.33640000000000003,1.7421552,0.1113898624985099,"{3: 5, 22: 4, 27: 3, 8: 16}","[3, 8, 22, 27]",35816224273,Li5Ti4Co3O16
Li5Ti8O16,mp-758044,0.0,5.36102918,0.02091280224137826,"{3: 5, 22: 8, 8: 16}","[3, 8, 22]",35816228,Li5Ti8O16
Li5Mn6O16,mp-758809,0.0,1.1131394,0.08377046155555057,"{3: 5, 25: 6, 8: 16}","[3, 8, 25]",35816256,Li5Mn6O16
Li5Mn7O16,mp-530177,0.7793000000000001,2.09625893,0.0,"{3: 5, 25: 7, 8: 16}","[3, 8, 25]",35816257,Li5Mn7O16
Li5Co7O16,mp-771191,0.5879000000000001,1.77964152,0.0347047781513794,"{3: 5, 27: 7, 8: 16}","[3, 8, 27]",35816277,Li5Co7O16
Li5(CoO2)8,mp-766589,0.43100000000000005,2.12397762,0.031350225732758474,"{3: 5, 27: 8, 8: 16}","[3, 8, 27]",35816278,Li5Co8O16
Li5(NiO2)8,mp-758751,0.0,3.004914,0.03445576682471252,"{3: 5, 28: 8, 8: 16}","[3, 8, 28]",35816288,Li5Ni8O16
Li5Ni9O16,mp-758491,0.0,3.49898186,0.0729855299166644,"{3: 5, 28: 9, 8: 16}","[3, 8, 28]",35816289,Li5Ni9O16
Li5Mn4P4O16F,mp-759154,3.5293,2.50027645,0.07804455266666732,"{3: 5, 25: 4, 15: 4, 8: 16, 9: 1}","[3, 8, 9, 15, 25]",3581691154254,Li5Mn4P4O16F1
Li5V2P5O18,mp-26595,1.9323000000000001,2.21373416,0.02035948477777083,"{3: 5, 23: 2, 15: 5, 8: 18}","[3, 8, 15, 23]",35818155232,Li5V2P5O18
Li5Cr2P5O18,mp-26683,0.0,3.60918947,0.03442113266666702,"{3: 5, 24: 2, 15: 5, 8: 18}","[3, 8, 15, 24]",35818155242,Li5Cr2P5O18
Li5Mo2P5O18,mp-585269,0.0,3.5862269,0.020635714833328933,"{3: 5, 42: 2, 15: 5, 8: 18}","[3, 8, 15, 42]",35818155422,Li5Mo2P5O18
Li5Sb2P5O18,mp-26585,3.5081,2.79807331,0.026385133972222086,"{3: 5, 51: 2, 15: 5, 8: 18}","[3, 8, 15, 51]",35818155512,Li5Sb2P5O18
Li5Bi2P5O18,mp-26377,3.9139999999999997,2.13191507,0.023778060305559734,"{3: 5, 83: 2, 15: 5, 8: 18}","[3, 8, 15, 83]",35818155832,Li5Bi2P5O18
Li5Nb6NiO18,mp-775480,0.48550000000000004,4.40291108,0.054046345333334855,"{3: 5, 41: 6, 28: 1, 8: 18}","[3, 8, 28, 41]",35818281416,Li5Nb6Ni1O18
Li5Nb6O18,mp-531722,0.0,0.6205246,0.03776110047413539,"{3: 5, 41: 6, 8: 18}","[3, 8, 41]",35818416,Li5Nb6O18
Li5V2OF11,mp-760197,1.479,-0.9067292,0.04960800710528268,"{3: 5, 23: 2, 8: 1, 9: 11}","[3, 8, 9, 23]",3581911232,Li5V2O1F11
Li5Nb3OF18,mp-769316,4.2399000000000004,-2.05128824,0.08530720152777782,"{3: 5, 41: 3, 8: 1, 9: 18}","[3, 8, 9, 41]",3581918413,Li5Nb3O1F18
Li5MnOF5,mp-760276,0.5905000000000002,1.72493943,0.07026213791666525,"{3: 5, 25: 1, 8: 1, 9: 5}","[3, 8, 9, 25]",358195251,Li5Mn1O1F5
Li5CoOF5,mp-752884,0.06909999999999972,2.20696461,0.034228180624999105,"{3: 5, 27: 1, 8: 1, 9: 5}","[3, 8, 9, 27]",358195271,Li5Co1O1F5
Li5NiOF5,mp-753377,1.8952,2.59345501,0.0314530412500007,"{3: 5, 28: 1, 8: 1, 9: 5}","[3, 8, 9, 28]",358195281,Li5Ni1O1F5
Li5Mn4(Si3O10)2,mp-778120,0.0,2.56231633,0.07076145051191851,"{3: 5, 25: 4, 14: 6, 8: 20}","[3, 8, 14, 25]",35820146254,Li5Mn4Si6O20
Li5Co4(Si3O10)2,mp-849656,0.17579999999999996,1.91974207,0.0816795879523795,"{3: 5, 27: 4, 14: 6, 8: 20}","[3, 8, 14, 27]",35820146274,Li5Co4Si6O20
Li5TiMn9O20,mp-778500,0.0,2.89502262,0.015265664571423976,"{3: 5, 22: 1, 25: 9, 8: 20}","[3, 8, 22, 25]",35820221259,Li5Ti1Mn9O20
Li5Ti2Mn8O20,mp-771355,0.0,2.56720846,0.018447306142861386,"{3: 5, 22: 2, 25: 8, 8: 20}","[3, 8, 22, 25]",35820222258,Li5Ti2Mn8O20
Li5CoNi9O20,mp-1120825,0.0,2.64971005,0.05015156771428231,"{3: 5, 27: 1, 28: 9, 8: 20}","[3, 8, 27, 28]",35820271289,Li5Co1Ni9O20
Li5GaO2,mp-558082,0.2996,0.97456185,0.2856214815624991,"{3: 5, 31: 1, 8: 2}","[3, 8, 31]",3582311,Li5Ga1O2
Li5Br3O2,mp-726248,0.0,-0.45086575,0.1558308869999987,"{3: 5, 35: 3, 8: 2}","[3, 8, 35]",3582353,Li5Br3O2
Li5MgTi12O24,mp-767086,0.0,5.28700539,0.022020969999996254,"{3: 5, 12: 1, 22: 12, 8: 24}","[3, 8, 12, 22]",358241212212,Li5Mg1Ti12O24
Li5Cr6P5O24,mp-758754,0.5554000000000006,4.09984812,0.09269959424998842,"{3: 5, 24: 6, 15: 5, 8: 24}","[3, 8, 15, 24]",35824155246,Li5Cr6P5O24
Li5Ti3V2(PO4)6,mp-850911,0.08270000000000088,4.87900909,0.10075372988281472,"{3: 5, 22: 3, 23: 2, 15: 6, 8: 24}","[3, 8, 15, 22, 23]",35824156223232,Li5Ti3V2P6O24
Li5Ti3Mn2(PO4)6,mp-776210,0.06350000000000033,4.82107887,0.09723681565179465,"{3: 5, 22: 3, 25: 2, 15: 6, 8: 24}","[3, 8, 15, 22, 25]",35824156223252,Li5Ti3Mn2P6O24
Li5V3Bi2(PO4)6,mp-1177171,0.3195000000000001,3.89284555,0.09417007810416589,"{3: 5, 23: 3, 83: 2, 15: 6, 8: 24}","[3, 8, 15, 23, 83]",35824156233832,Li5V3Bi2P6O24
Li5V4(PO4)6,mp-849426,0.4039999999999999,2.41422648,0.004546468157042405,"{3: 5, 23: 4, 15: 6, 8: 24}","[3, 8, 15, 23]",35824156234,Li5V4P6O24
Li5Mn3Co2(PO4)6,mp-757824,0.8706999999999998,1.6192456,0.07069233762499927,"{3: 5, 25: 3, 27: 2, 15: 6, 8: 24}","[3, 8, 15, 25, 27]",35824156253272,Li5Mn3Co2P6O24
Li5Mn3Bi2(PO4)6,mp-775601,0.0,2.1971445,0.08663539199999626,"{3: 5, 25: 3, 83: 2, 15: 6, 8: 24}","[3, 8, 15, 25, 83]",35824156253832,Li5Mn3Bi2P6O24
Li5Mn5(PO4)6,mp-773009,0.5603999999999998,1.64891589,0.06132111950000585,"{3: 5, 25: 5, 15: 6, 8: 24}","[3, 8, 15, 25]",35824156255,Li5Mn5P6O24
Li5Sn5(PO4)6,mp-775971,0.25649999999999995,3.66332679,0.09722132983333065,"{3: 5, 50: 5, 15: 6, 8: 24}","[3, 8, 15, 50]",35824156505,Li5Sn5P6O24
Li5Ti12O24,mp-685809,0.0,4.70926479,0.016745190975603563,"{3: 5, 22: 12, 8: 24}","[3, 8, 22]",358242212,Li5Ti12O24
Li5Mn12O24,mp-705961,0.0,2.12601062,0.026043066087400923,"{3: 5, 25: 12, 8: 24}","[3, 8, 25]",358242512,Li5Mn12O24
Li5Mn5(SeO3)8,mp-1222696,0.8681999999999999,2.33301806,0.0,"{3: 5, 25: 5, 34: 8, 8: 24}","[3, 8, 25, 34]",35824255348,Li5Mn5Se8O24
Li5Mn4(P2O7)4,mp-1177149,0.2669999999999999,1.86735128,0.037295604388861925,"{3: 5, 25: 4, 15: 8, 8: 28}","[3, 8, 15, 25]",35828158254,Li5Mn4P8O28
Li5Ni6(P2O7)4,mp-886210,0.9115000000000002,5.26722903,0.03784402774822837,"{3: 5, 28: 6, 15: 8, 8: 28}","[3, 8, 15, 28]",35828158286,Li5Ni6P8O28
Li5La4TiNb7O28,mp-781824,0.7748999999999997,3.45494026,0.05050547766666469,"{3: 5, 57: 4, 22: 1, 41: 7, 8: 28}","[3, 8, 22, 41, 57]",35828221417574,Li5La4Ti1Nb7O28
Li5V3P8O29,mp-1177238,0.9305000000000001,0.53473563,0.03201534925924321,"{3: 5, 23: 3, 15: 8, 8: 29}","[3, 8, 15, 23]",35829158233,Li5V3P8O29
Li5Co2O2F5,mp-850204,0.0,2.5708452,0.08930253607142902,"{3: 5, 27: 2, 8: 2, 9: 5}","[3, 8, 9, 27]",358295272,Li5Co2O2F5
Li5Ni2O2F5,mp-765310,2.1843000000000004,3.00725293,0.02514879321428598,"{3: 5, 28: 2, 8: 2, 9: 5}","[3, 8, 9, 28]",358295282,Li5Ni2O2F5
Na4Li5(WO3)10,mp-1221439,1.1349999999999998,2.77279096,0.0546849907958773,"{11: 4, 3: 5, 74: 10, 8: 30}","[3, 8, 11, 74]",358301147410,Na4Li5W10O30
K3Li5Al6Si10(O5F)6,mp-735910,0.0,2.19601141,0.458876176437494,"{19: 3, 3: 5, 13: 6, 14: 10, 8: 30, 9: 6}","[3, 8, 9, 13, 14, 19]",35830961361410193,K3Li5Al6Si10O30F6
Li5Cr17(SiO16)2,mp-766075,0.7080000000000002,3.30754599,0.0744931221428633,"{3: 5, 24: 17, 14: 2, 8: 32}","[3, 8, 14, 24]",358321422417,Li5Cr17Si2O32
Li5Mn17(SiO16)2,mp-768071,0.3482000000000003,3.19145162,0.05655188675446432,"{3: 5, 25: 17, 14: 2, 8: 32}","[3, 8, 14, 25]",358321422517,Li5Mn17Si2O32
Li5V12O32,mp-766385,0.0,1.90531054,0.014197118877568471,"{3: 5, 23: 12, 8: 32}","[3, 8, 23]",358322312,Li5V12O32
Li5Ta12O32,mp-1177079,0.0,4.4140525,0.026184019276206172,"{3: 5, 73: 12, 8: 32}","[3, 8, 73]",358327312,Li5Ta12O32
NaLi5Ti3Cr3(PO4)9,mp-720533,2.191,1.33383797,0.02670726078946828,"{11: 1, 3: 5, 22: 3, 24: 3, 15: 9, 8: 36}","[3, 8, 11, 15, 22, 24]",35836111159223243,Na1Li5Ti3Cr3P9O36
Li5MnO3F,mp-759969,0.6309999999999998,2.88250081,0.08057284574999812,"{3: 5, 25: 1, 8: 3, 9: 1}","[3, 8, 9, 25]",358391251,Li5Mn1O3F1
Li5CoO3F,mp-760036,0.16860000000000008,2.46509624,0.1383708947812501,"{3: 5, 27: 1, 8: 3, 9: 1}","[3, 8, 9, 27]",358391271,Li5Co1O3F1
Li5NiO3F,mp-758448,0.9598,2.12761278,0.09542567899999899,"{3: 5, 28: 1, 8: 3, 9: 1}","[3, 8, 9, 28]",358391281,Li5Ni1O3F1
Li5Co7O3F13,mp-849472,1.6348,1.33493721,0.053078753660713573,"{3: 5, 27: 7, 8: 3, 9: 13}","[3, 8, 9, 27]",3583913277,Li5Co7O3F13
Li5VO3F2,mp-752747,1.5920999999999998,2.09516502,0.07839212659090844,"{3: 5, 23: 1, 8: 3, 9: 2}","[3, 8, 9, 23]",358392231,Li5V1O3F2
Li5MnO3F2,mp-753558,0.9852,0.65959769,0.05428919431818091,"{3: 5, 25: 1, 8: 3, 9: 2}","[3, 8, 9, 25]",358392251,Li5Mn1O3F2
Li5NiO3F2,mp-759151,0.0,0.84223973,0.08694211030302945,"{3: 5, 28: 1, 8: 3, 9: 2}","[3, 8, 9, 28]",358392281,Li5Ni1O3F2
K4Li5Ti8(PO5)8,mp-766028,0.011400000000000077,3.49462393,0.043815345472904,"{19: 4, 3: 5, 22: 8, 15: 8, 8: 40}","[3, 8, 15, 19, 22]",35840158194228,K4Li5Ti8P8O40
Li5AlO4,mp-15960,4.662000000000001,0.31328897,0.0,"{3: 5, 13: 1, 8: 4}","[3, 8, 13]",3584131,Li5Al1O4
Li5CrO4,mp-772671,1.305,1.74364033,0.10205060937499955,"{3: 5, 24: 1, 8: 4}","[3, 8, 24]",3584241,Li5Cr1O4
Li5La3Nb14O42,mp-768083,0.0,-0.83148891,0.08628122664062765,"{3: 5, 57: 3, 41: 14, 8: 42}","[3, 8, 41, 57]",358424114573,Li5La3Nb14O42
Li5MnO4,mp-774621,0.9751,0.88666911,0.041395214000001346,"{3: 5, 25: 1, 8: 4}","[3, 8, 25]",3584251,Li5Mn1O4
Li5CoO4,mp-760147,1.6006000000000002,0.58541514,0.014425184499994081,"{3: 5, 27: 1, 8: 4}","[3, 8, 27]",3584271,Li5Co1O4
Li5NiO4,mp-771876,1.5268000000000002,0.6996204,0.010654286083332742,"{3: 5, 28: 1, 8: 4}","[3, 8, 28]",3584281,Li5Ni1O4
Li5GaO4,mp-4657,3.763,-0.17890126,0.0,"{3: 5, 31: 1, 8: 4}","[3, 8, 31]",3584311,Li5Ga1O4
Li5V18O44,mp-773027,0.44799999999999995,1.93602147,0.04638127141792481,"{3: 5, 23: 18, 8: 44}","[3, 8, 23]",358442318,Li5V18O44
Li5InO4,mp-778877,2.4721,1.04230869,0.013673919499997744,"{3: 5, 49: 1, 8: 4}","[3, 8, 49]",3584491,Li5In1O4
Li5LaO4,mp-780259,3.3999,1.78359915,0.04954895150000116,"{3: 5, 57: 1, 8: 4}","[3, 8, 57]",3584571,Li5La1O4
Li5AuO4,mp-757242,1.9587999999999997,0.50252106,0.0,"{3: 5, 79: 1, 8: 4}","[3, 8, 79]",3584791,Li5Au1O4
Li5TlO4,mp-27483,1.6600000000000001,0.9660229,0.0,"{3: 5, 81: 1, 8: 4}","[3, 8, 81]",3584811,Li5Tl1O4
Li5Mg11(WO4)12,mp-1177113,1.8045999999999998,2.88711188,0.0702717196710525,"{3: 5, 12: 11, 74: 12, 8: 48}","[3, 8, 12, 74]",3584812117412,Li5Mg11W12O48
Li5Ti7In(PO4)12,mp-683616,2.4695,1.18268073,0.008645864486297228,"{3: 5, 22: 7, 49: 1, 15: 12, 8: 48}","[3, 8, 15, 22, 49]",358481512227491,Li5Ti7In1P12O48
Li5BiO4,mp-768986,1.6844999999999999,2.28207938,0.04035011987499715,"{3: 5, 83: 1, 8: 4}","[3, 8, 83]",3584831,Li5Bi1O4
Li5VO4F,mp-759609,1.5456999999999999,1.99330254,0.04551652431818276,"{3: 5, 23: 1, 8: 4, 9: 1}","[3, 8, 9, 23]",358491231,Li5V1O4F1
Li5CrO5,mp-754233,1.1269999999999998,1.10661203,0.06835533477272815,"{3: 5, 24: 1, 8: 5}","[3, 8, 24]",3585241,Li5Cr1O5
Li5MnO5,mp-770101,0.0,0.44577816,0.0643157386363642,"{3: 5, 25: 1, 8: 5}","[3, 8, 25]",3585251,Li5Mn1O5
Li5NbO5,mp-770649,2.9243,0.54678702,0.008409855568183744,"{3: 5, 41: 1, 8: 5}","[3, 8, 41]",3585411,Li5Nb1O5
Li5SbO5,mp-29364,2.914,1.81824752,0.0,"{3: 5, 51: 1, 8: 5}","[3, 8, 51]",3585511,Li5Sb1O5
Li5Mn9(P2O7)8,mp-540023,0.48629999999999995,1.16724971,0.01945678369185533,"{3: 5, 25: 9, 15: 16, 8: 56}","[3, 8, 15, 25]",358561516259,Li5Mn9P16O56
Li5Co9(P2O7)8,mp-705379,0.0009000000000000119,0.68626684,0.07831246834303762,"{3: 5, 27: 9, 15: 16, 8: 56}","[3, 8, 15, 27]",358561516279,Li5Co9P16O56
Li5Ni9(P2O7)8,mp-27049,0.0,1.99364568,0.10205311036336084,"{3: 5, 28: 9, 15: 16, 8: 56}","[3, 8, 15, 28]",358561516289,Li5Ni9P16O56
Li5TaO5,mp-755013,3.4293000000000005,0.71831651,0.0,"{3: 5, 73: 1, 8: 5}","[3, 8, 73]",3585731,Li5Ta1O5
Li5BiO5,mp-29365,1.3597000000000001,1.20367137,0.0,"{3: 5, 83: 1, 8: 5}","[3, 8, 83]",3585831,Li5Bi1O5
Li5V6O5F19,mp-1177030,0.3494,-0.02824877,0.04287944901588059,"{3: 5, 23: 6, 8: 5, 9: 19}","[3, 8, 9, 23]",3585919236,Li5V6O5F19
Li5Mn3O5F3,mp-759593,0.6690999999999998,2.82268245,0.09515621843749944,"{3: 5, 25: 3, 8: 5, 9: 3}","[3, 8, 9, 25]",358593253,Li5Mn3O5F3
Li5Ni3O5F3,mp-759011,0.4051999999999998,2.44084339,0.10582367447916674,"{3: 5, 28: 3, 8: 5, 9: 3}","[3, 8, 9, 28]",358593283,Li5Ni3O5F3
Li5(CoO3)2,mp-753251,0.9501,0.08312,0.11083147500000834,"{3: 5, 27: 2, 8: 6}","[3, 8, 27]",3586272,Li5Co2O6
Li5IO6,mp-1211142,2.5906999999999996,4.81650942,0.0,"{3: 5, 53: 1, 8: 6}","[3, 8, 53]",3586531,Li5I1O6
Li5ReO6,mp-5061,2.1582999999999997,1.19238264,0.0,"{3: 5, 75: 1, 8: 6}","[3, 8, 75]",3586751,Li5Re1O6
Li5OsO6,mp-1211132,0.0,2.58456772,0.0,"{3: 5, 76: 1, 8: 6}","[3, 8, 76]",3586761,Li5Os1O6
Na2Li5Al7Si29O72,mp-694958,3.2399999999999998,-0.75220676,0.059621416376812064,"{11: 2, 3: 5, 13: 7, 14: 29, 8: 72}","[3, 8, 11, 13, 14]",358721121371429,Na2Li5Al7Si29O72