formula,material_id,band_gap,efermi,energy_above_hull,comp_atoms,sorted_keys_comp_atoms,comp_number,new_formula
Li7RuN4,mp-1245358,0.0,3.47294944,0.0234920693402767,"{3: 7, 44: 1, 7: 4}","[3, 7, 44]",3774441,Li7Ru1N4
Li7SbN4,mp-1029522,2.2473,3.47825136,0.0,"{3: 7, 51: 1, 7: 4}","[3, 7, 51]",3774511,Li7Sb1N4
Li7TaN4,mp-14753,3.3394999999999997,1.31761144,0.0,"{3: 7, 73: 1, 7: 4}","[3, 7, 73]",3774731,Li7Ta1N4
Li7ReN4,mp-1247494,0.0,4.16203939,0.10403609902777688,"{3: 7, 75: 1, 7: 4}","[3, 7, 75]",3774751,Li7Re1N4
Li7OsN4,mp-1245516,0.033399999999999874,3.93728257,0.06809537361110962,"{3: 7, 76: 1, 7: 4}","[3, 7, 76]",3774761,Li7Os1N4
Li7IrN4,mp-1245361,0.3038999999999996,3.43424847,0.037075758298611206,"{3: 7, 77: 1, 7: 4}","[3, 7, 77]",3774771,Li7Ir1N4
Li7BiN4,mp-1029517,1.1365000000000003,3.33504015,0.11628305781249892,"{3: 7, 83: 1, 7: 4}","[3, 7, 83]",3774831,Li7Bi1N4
Li7V4O11F,mp-758444,1.3348999999999998,3.80558857,0.05492097831521292,"{3: 7, 23: 4, 8: 11, 9: 1}","[3, 8, 9, 23]",3781191234,Li7V4O11F1
Li7Ti3(SiO6)2,mp-766202,0.0,6.45465113,0.07470352020833282,"{3: 7, 22: 3, 14: 2, 8: 12}","[3, 8, 14, 22]",37812142223,Li7Ti3Si2O12
Li7V3(SiO6)2,mp-1176994,1.6543999999999999,4.53189738,0.07569552375000033,"{3: 7, 23: 3, 14: 2, 8: 12}","[3, 8, 14, 23]",37812142233,Li7V3Si2O12
Li7Cr3(SiO6)2,mp-752502,3.1270000000000002,3.61508191,0.07012801249999878,"{3: 7, 24: 3, 14: 2, 8: 12}","[3, 8, 14, 24]",37812142243,Li7Cr3Si2O12
Li7Mn3(SiO6)2,mp-767011,1.2906000000000004,3.85304844,0.09563586619791842,"{3: 7, 25: 3, 14: 2, 8: 12}","[3, 8, 14, 25]",37812142253,Li7Mn3Si2O12
Li7Si2(NiO4)3,mp-1640236,0.5914999999999999,3.89600055,0.060485260000000984,"{3: 7, 14: 2, 28: 3, 8: 12}","[3, 8, 14, 28]",37812142283,Li7Si2Ni3O12
Li7Ti5O12,mp-779455,0.0,5.64503698,0.014344561874996664,"{3: 7, 22: 5, 8: 12}","[3, 8, 22]",37812225,Li7Ti5O12
Li7V5O12,mp-766239,0.7700999999999998,3.6263747,0.02113224749999265,"{3: 7, 23: 5, 8: 12}","[3, 8, 23]",37812235,Li7V5O12
Li7Cr5O12,mp-757087,0.0,2.77961779,0.03442912062499914,"{3: 7, 24: 5, 8: 12}","[3, 8, 24]",37812245,Li7Cr5O12
Li7Mn2(CoO4)3,mp-1174467,1.6734,1.78472974,0.032600423749997276,"{3: 7, 25: 2, 27: 3, 8: 12}","[3, 8, 25, 27]",37812252273,Li7Mn2Co3O12
Li7Mn4O12,mp-764763,0.0,1.44627596,0.04281145988405921,"{3: 7, 25: 4, 8: 12}","[3, 8, 25]",37812254,Li7Mn4O12
Li7Mn4CoO12,mp-1667041,0.7709000000000001,2.92649164,0.017880455312491605,"{3: 7, 25: 4, 27: 1, 8: 12}","[3, 8, 25, 27]",37812254271,Li7Mn4Co1O12
Li7Mn5O12,mp-1175314,0.9682,2.84544426,0.013231291458321692,"{3: 7, 25: 5, 8: 12}","[3, 8, 25]",37812255,Li7Mn5O12
Li7Co5O12,mp-771155,0.0,3.0941583,0.003907136250002274,"{3: 7, 27: 5, 8: 12}","[3, 8, 27]",37812275,Li7Co5O12
Li7Ni5O12,mp-755638,0.0,3.16188153,0.0070618141666667356,"{3: 7, 28: 5, 8: 12}","[3, 8, 28]",37812285,Li7Ni5O12
Li7La3Zr2O12,mp-942733,4.450799999999999,3.10904653,0.006846009531249031,"{3: 7, 57: 3, 40: 2, 8: 12}","[3, 8, 40, 57]",37812402573,Li7La3Zr2O12
Li7Nd3Zr2O12,mp-1198740,4.2749,6.03927235,0.013406111614582272,"{3: 7, 60: 3, 40: 2, 8: 12}","[3, 8, 40, 60]",37812402603,Li7Nd3Zr2O12
Li7La3(SnO6)2,mp-1200057,3.8804,4.23721391,0.009687648020833883,"{3: 7, 57: 3, 50: 2, 8: 12}","[3, 8, 50, 57]",37812502573,Li7La3Sn2O12
Li7(SnO3)4,mp-1222532,0.0,2.79805183,0.05071644571014744,"{3: 7, 50: 4, 8: 12}","[3, 8, 50]",37812504,Li7Sn4O12
Li7La3Hf2O12,mp-1198622,4.3384,7.75474798,0.009968351718751656,"{3: 7, 57: 3, 72: 2, 8: 12}","[3, 8, 57, 72]",37812573722,Li7La3Hf2O12
Li7V6(OF)12,mp-775890,0.29780000000000006,0.8264761,0.04821652810808352,"{3: 7, 23: 6, 8: 12, 9: 12}","[3, 8, 9, 23]",37812912236,Li7V6O12F12
Li7MnP4O14F,mp-758227,2.4507000000000003,3.42606876,0.06843007111108967,"{3: 7, 25: 1, 15: 4, 8: 14, 9: 1}","[3, 8, 9, 15, 25]",3781491154251,Li7Mn1P4O14F1
Li7MgNi7O16,mp-771050,0.0,3.59225141,0.017973430318096284,"{3: 7, 12: 1, 28: 7, 8: 16}","[3, 8, 12, 28]",37816121287,Li7Mg1Ni7O16
Li7Eu8Si4Cl7O16,mp-1223068,0.29139999999999944,5.27807474,0.005974515952367199,"{3: 7, 63: 8, 14: 4, 17: 7, 8: 16}","[3, 8, 14, 17, 63]",37816144177638,Li7Eu8Si4Cl7O16
Li7Mn(PO4)4,mp-756003,0.0,1.22162165,0.06900538191468808,"{3: 7, 25: 1, 15: 4, 8: 16}","[3, 8, 15, 25]",37816154251,Li7Mn1P4O16
Li7Ti7O16,mp-34052,0.0,4.96785654,0.030639805833329703,"{3: 7, 22: 7, 8: 16}","[3, 8, 22]",37816227,Li7Ti7O16
Li7Cr3(WO8)2,mp-771209,1.1508,1.12283804,0.05740927996030987,"{3: 7, 24: 3, 74: 2, 8: 16}","[3, 8, 24, 74]",37816243742,Li7Cr3W2O16
Li7Mn3Co3O16,mp-759545,0.08190000000000008,1.49029186,0.13129289683777667,"{3: 7, 25: 3, 27: 3, 8: 16}","[3, 8, 25, 27]",37816253273,Li7Mn3Co3O16
Li7Mn3(WO8)2,mp-771313,0.07040000000000002,1.61426472,0.07718723169047159,"{3: 7, 25: 3, 74: 2, 8: 16}","[3, 8, 25, 74]",37816253742,Li7Mn3W2O16
Li7(NiO2)8,mp-690528,0.0,3.31605363,0.01794203802419503,"{3: 7, 28: 8, 8: 16}","[3, 8, 28]",37816288,Li7Ni8O16
Li7Ni9O16,mp-768059,0.0,4.06375952,0.020427117916666404,"{3: 7, 28: 9, 8: 16}","[3, 8, 28]",37816289,Li7Ni9O16
Li7W5O16,mp-771579,1.3274,4.21625466,0.0360205873214241,"{3: 7, 74: 5, 8: 16}","[3, 8, 74]",37816745,Li7W5O16
Li7(NiO2)9,mp-757736,0.0,3.30412374,0.015186373651967955,"{3: 7, 28: 9, 8: 18}","[3, 8, 28]",37818289,Li7Ni9O18
Li7CoOF7,mp-765549,2.267,1.66260624,0.0648874998437492,"{3: 7, 27: 1, 8: 1, 9: 7}","[3, 8, 9, 27]",378197271,Li7Co1O1F7
Li7NiOF7,mp-765342,3.1729000000000003,1.5423322,0.062398182812499314,"{3: 7, 28: 1, 8: 1, 9: 7}","[3, 8, 9, 28]",378197281,Li7Ni1O1F7
Li7Mn10O20,mp-675075,0.0,2.78486361,0.5069377413513596,"{3: 7, 25: 10, 8: 20}","[3, 8, 25]",378202510,Li7Mn10O20
Li7Mn8O20,mp-767763,0.0,1.61780979,0.020821266495225643,"{3: 7, 25: 8, 8: 20}","[3, 8, 25]",37820258,Li7Mn8O20
Li7(NiO2)10,mp-766574,0.0,3.27759123,0.028075966204956337,"{3: 7, 28: 10, 8: 20}","[3, 8, 28]",378202810,Li7Ni10O20
Li7Pb2,mp-30761,0.0,3.10065804,0.0,"{3: 7, 82: 2}","[3, 82]",37822,Li7Pb2
Li7(NiO2)11,mp-768079,0.0,2.97310888,0.03672450937500038,"{3: 7, 28: 11, 8: 22}","[3, 8, 28]",378222811,Li7Ni11O22
Li7Br3O2,mp-28592,4.2454,0.80158185,0.02552370083333333,"{3: 7, 35: 3, 8: 2}","[3, 8, 35]",3782353,Li7Br3O2
Li7TiCr3(PO4)6,mp-850412,0.0,4.19852165,0.08457939822298943,"{3: 7, 22: 1, 24: 3, 15: 6, 8: 24}","[3, 8, 15, 22, 24]",37824156221243,Li7Ti1Cr3P6O24
Li7V3Ni(PO4)6,mp-760800,0.0,3.64783797,0.09235155036585585,"{3: 7, 23: 3, 28: 1, 15: 6, 8: 24}","[3, 8, 15, 23, 28]",37824156233281,Li7V3Ni1P6O24
Li7V4(PO4)6,mp-760371,0.0,3.86706389,0.016432448902453878,"{3: 7, 23: 4, 15: 6, 8: 24}","[3, 8, 15, 23]",37824156234,Li7V4P6O24
Li7Cr3Co(PO4)6,mp-780115,2.4409,1.98555032,0.07438613530487537,"{3: 7, 24: 3, 27: 1, 15: 6, 8: 24}","[3, 8, 15, 24, 27]",37824156243271,Li7Cr3Co1P6O24
Li7MnCo3(PO4)6,mp-887355,0.0,1.83935064,0.11242894463414199,"{3: 7, 25: 1, 27: 3, 15: 6, 8: 24}","[3, 8, 15, 25, 27]",37824156251273,Li7Mn1Co3P6O24
Li7MnNi3(PO4)6,mp-780131,0.0,1.17350387,0.0796231033841428,"{3: 7, 25: 1, 28: 3, 15: 6, 8: 24}","[3, 8, 15, 25, 28]",37824156251283,Li7Mn1Ni3P6O24
Li7Mn4(PO4)6,mp-760033,0.0,1.96059083,0.02811662091463063,"{3: 7, 25: 4, 15: 6, 8: 24}","[3, 8, 15, 25]",37824156254,Li7Mn4P6O24
Li7Ti2P7O24,mp-757327,0.22489999999999988,4.55903816,0.09869144802858365,"{3: 7, 22: 2, 15: 7, 8: 24}","[3, 8, 15, 22]",37824157222,Li7Ti2P7O24
Li7V2P7O24,mp-758404,2.5942,1.95577549,0.061976058104177056,"{3: 7, 23: 2, 15: 7, 8: 24}","[3, 8, 15, 23]",37824157232,Li7V2P7O24
Li7Cr2P7O24,mp-772556,2.7108999999999996,1.45113728,0.07016732935417469,"{3: 7, 24: 2, 15: 7, 8: 24}","[3, 8, 15, 24]",37824157242,Li7Cr2P7O24
Li7Mn2P7O24,mp-757328,1.2326,1.22739541,0.05671037772916954,"{3: 7, 25: 2, 15: 7, 8: 24}","[3, 8, 15, 25]",37824157252,Li7Mn2P7O24
Li7Ni2P7O24,mp-867543,0.0,0.96329212,0.09152652620833557,"{3: 7, 28: 2, 15: 7, 8: 24}","[3, 8, 15, 28]",37824157282,Li7Ni2P7O24
Li7Sb2P7O24,mp-762329,3.806,2.12368556,0.07421080631250199,"{3: 7, 51: 2, 15: 7, 8: 24}","[3, 8, 15, 51]",37824157512,Li7Sb2P7O24
Li7Bi2P7O24,mp-759424,4.2136000000000005,1.39611301,0.05484195581250084,"{3: 7, 83: 2, 15: 7, 8: 24}","[3, 8, 15, 83]",37824157832,Li7Bi2P7O24
Li7Ti11O24,mp-766823,0.0,4.5474703,0.0,"{3: 7, 22: 11, 8: 24}","[3, 8, 22]",378242211,Li7Ti11O24
Li7Ti12O24,mp-38468,0.0,5.46478972,0.045802570581395585,"{3: 7, 22: 12, 8: 24}","[3, 8, 22]",378242212,Li7Ti12O24
Li7V6Ni5O24,mp-769574,0.0,1.8275625,0.018057135982143535,"{3: 7, 23: 6, 28: 5, 8: 24}","[3, 8, 23, 28]",37824236285,Li7V6Ni5O24
Li7Mn10O24,mp-675534,0.25849999999999973,2.03507893,0.021598009181913014,"{3: 7, 25: 10, 8: 24}","[3, 8, 25]",378242510,Li7Mn10O24
Li7Mn11O24,mp-685293,0.0,2.75746485,0.02358836511904716,"{3: 7, 25: 11, 8: 24}","[3, 8, 25]",378242511,Li7Mn11O24
Li7(NiO2)12,mp-758820,0.0,2.98298018,0.039054019777127635,"{3: 7, 28: 12, 8: 24}","[3, 8, 28]",378242812,Li7Ni12O24
Li7Ni13O24,mp-758593,0.0,3.46460705,0.0455033001136389,"{3: 7, 28: 13, 8: 24}","[3, 8, 28]",378242813,Li7Ni13O24
Li7Zr3Nb(TeO6)4,mp-695434,1.9009000000000005,2.64037266,0.016732509427655806,"{3: 7, 40: 3, 41: 1, 52: 4, 8: 24}","[3, 8, 40, 41, 52]",37824403411524,Li7Zr3Nb1Te4O24
Li7Nb12O24,mp-766084,0.0,3.61286228,0.04362963098837369,"{3: 7, 41: 12, 8: 24}","[3, 8, 41]",378244112,Li7Nb12O24
Li7Nb8O24,mp-531409,0.0,0.6463099,0.02854223394230182,"{3: 7, 41: 8, 8: 24}","[3, 8, 41]",37824418,Li7Nb8O24
Li7V7P6(O8F)3,mp-759300,0.6689999999999996,6.35258993,0.021911995848108212,"{3: 7, 23: 7, 15: 6, 8: 24, 9: 3}","[3, 8, 9, 15, 23]",3782493156237,Li7V7P6O24F3
Li7Cr7P6(O8F)3,mp-759336,1.5399000000000003,5.15870301,0.02631036230053141,"{3: 7, 24: 7, 15: 6, 8: 24, 9: 3}","[3, 8, 9, 15, 24]",3782493156247,Li7Cr7P6O24F3
Li7Mn7P6(O8F)3,mp-758877,1.2070000000000003,5.00277955,0.0325556052659568,"{3: 7, 25: 7, 15: 6, 8: 24, 9: 3}","[3, 8, 9, 15, 25]",3782493156257,Li7Mn7P6O24F3
Li7Mn4(P2O7)4,mp-1176940,0.2872000000000001,2.04300818,0.012438380585105158,"{3: 7, 25: 4, 15: 8, 8: 28}","[3, 8, 15, 25]",37828158254,Li7Mn4P8O28
Li7V3P8O29,mp-757637,0.4691000000000001,1.31900736,0.01166765598850894,"{3: 7, 23: 3, 15: 8, 8: 29}","[3, 8, 15, 23]",37829158233,Li7V3P8O29
Li7Ti12NbO30,mp-767146,2.5023000000000004,1.70464888,0.02995037954999269,"{3: 7, 22: 12, 41: 1, 8: 30}","[3, 8, 22, 41]",378302212411,Li7Ti12Nb1O30
Li7Ti7Nb5O30,mp-767392,2.1219,1.61278852,0.0522000738775521,"{3: 7, 22: 7, 41: 5, 8: 30}","[3, 8, 22, 41]",37830227415,Li7Ti7Nb5O30
Li7Mn11(Si3O16)2,mp-757389,0.0,4.23017901,0.0914255558144994,"{3: 7, 25: 11, 14: 6, 8: 32}","[3, 8, 14, 25]",378321462511,Li7Mn11Si6O32
Li7V4P9O32,mp-27087,1.9918,2.10553754,0.035870245929479516,"{3: 7, 23: 4, 15: 9, 8: 32}","[3, 8, 15, 23]",37832159234,Li7V4P9O32
Li7Cr4P9O32,mp-27077,2.9121000000000006,1.7892779,0.05031869048076132,"{3: 7, 24: 4, 15: 9, 8: 32}","[3, 8, 15, 24]",37832159244,Li7Cr4P9O32
Li7Mn4P9O32,mp-757726,0.9658,1.79023945,0.046288734206703985,"{3: 7, 25: 4, 15: 9, 8: 32}","[3, 8, 15, 25]",37832159254,Li7Mn4P9O32
Li7Mo4P9O32,mp-27067,3.7758,2.48705988,0.04333002432692368,"{3: 7, 42: 4, 15: 9, 8: 32}","[3, 8, 15, 42]",37832159424,Li7Mo4P9O32
Li7Ti16O32,mp-530141,0.0,4.76626973,0.011098630363644446,"{3: 7, 22: 16, 8: 32}","[3, 8, 22]",378322216,Li7Ti16O32
Li7Ti5Mn12O32,mp-771056,0.0,3.23375308,0.03463289438614403,"{3: 7, 22: 5, 25: 12, 8: 32}","[3, 8, 22, 25]",378322252512,Li7Ti5Mn12O32
Li7Mn10Cr6O32,mp-769505,0.0,3.18541521,0.0831692177916663,"{3: 7, 25: 10, 24: 6, 8: 32}","[3, 8, 24, 25]",378322462510,Li7Mn10Cr6O32
Li7Mn14O32,mp-757896,0.0,1.72779874,0.029363368738211548,"{3: 7, 25: 14, 8: 32}","[3, 8, 25]",378322514,Li7Mn14O32
Li7Mn16O32,mp-694974,0.2915000000000001,2.60391709,0.018882106631817663,"{3: 7, 25: 16, 8: 32}","[3, 8, 25]",378322516,Li7Mn16O32
Li7Mn17O32,mp-699179,0.0,2.68972792,0.015897938214285645,"{3: 7, 25: 17, 8: 32}","[3, 8, 25]",378322517,Li7Mn17O32
Li7Eu3(MoO4)8,mp-1223167,0.07050000000000001,0.8242003,0.24802359524999407,"{3: 7, 63: 3, 42: 8, 8: 32}","[3, 8, 42, 63]",37832428633,Li7Eu3Mo8O32
Li7Ho3(MoO4)8,mp-1222932,3.3789,0.91373268,0.030796915549982096,"{3: 7, 67: 3, 42: 8, 8: 32}","[3, 8, 42, 67]",37832428673,Li7Ho3Mo8O32
Li7V7(P4O17)2,mp-772948,1.1273,1.63955949,0.10372707436009865,"{3: 7, 23: 7, 15: 8, 8: 34}","[3, 8, 15, 23]",37834158237,Li7V7P8O34
Li7Cr7(P4O17)2,mp-772520,2.2607,0.98582436,0.09709648803570214,"{3: 7, 24: 7, 15: 8, 8: 34}","[3, 8, 15, 24]",37834158247,Li7Cr7P8O34
Li7Mn7(P4O17)2,mp-757472,1.0261999999999998,0.36551048,0.0797204791369106,"{3: 7, 25: 7, 15: 8, 8: 34}","[3, 8, 15, 25]",37834158257,Li7Mn7P8O34
Li7Mn(OF)3,mp-760307,3.0122,1.0549366,0.09073118892857135,"{3: 7, 25: 1, 8: 3, 9: 3}","[3, 8, 9, 25]",378393251,Li7Mn1O3F3
Li7Co(OF)3,mp-759770,2.0037000000000003,0.98868584,0.09713314055803579,"{3: 7, 27: 1, 8: 3, 9: 3}","[3, 8, 9, 27]",378393271,Li7Co1O3F3
Li7Ca8Nb12O40,mp-773078,0.20639999999999947,4.44576248,0.013228921138061622,"{3: 7, 20: 8, 41: 12, 8: 40}","[3, 8, 20, 41]",378402084112,Li7Ca8Nb12O40
Na9Li7V16O48,mp-774815,2.807,-0.38543323,0.012821927937497257,"{11: 9, 3: 7, 23: 16, 8: 48}","[3, 8, 11, 23]",378481192316,Na9Li7V16O48
Li7V8(PO4)12,mp-729675,0.8895999999999997,1.79192515,8.330814998203095e-05,"{3: 7, 23: 8, 15: 12, 8: 48}","[3, 8, 15, 23]",378481512238,Li7V8P12O48
Li7V(O2F)2,mp-760137,2.0031,1.38220434,0.085959233214286,"{3: 7, 23: 1, 8: 4, 9: 2}","[3, 8, 9, 23]",378492231,Li7V1O4F2
Li7Mn(O2F)2,mp-753376,2.1931000000000003,0.43793221,0.06527511714285605,"{3: 7, 25: 1, 8: 4, 9: 2}","[3, 8, 9, 25]",378492251,Li7Mn1O4F2
Li7Co(O2F)2,mp-849470,1.2277,1.64789854,0.08932093607142821,"{3: 7, 27: 1, 8: 4, 9: 2}","[3, 8, 9, 27]",378492271,Li7Co1O4F2
Li7Ni(O2F)2,mp-1662701,0.7928000000000001,0.36837112,0.08238426113095176,"{3: 7, 28: 1, 8: 4, 9: 2}","[3, 8, 9, 28]",378492281,Li7Ni1O4F2
Li7VO5F,mp-761099,1.7161000000000002,1.33914941,0.043835269464286064,"{3: 7, 23: 1, 8: 5, 9: 1}","[3, 8, 9, 23]",378591231,Li7V1O5F1
Li7MnO5F,mp-753538,1.2879,0.59036065,0.0962316260714271,"{3: 7, 25: 1, 8: 5, 9: 1}","[3, 8, 9, 25]",378591251,Li7Mn1O5F1
Li7CrO6,mp-771074,0.6721,0.34752481,0.0559945442857126,"{3: 7, 24: 1, 8: 6}","[3, 8, 24]",3786241,Li7Cr1O6
Li7(CoO3)2,mp-755498,0.6775,1.39856424,0.069122594166668,"{3: 7, 27: 2, 8: 6}","[3, 8, 27]",3786272,Li7Co2O6
RbLi7(NiO3)2,mp-754101,2.0888,0.88425908,0.09609148312499993,"{37: 1, 3: 7, 28: 2, 8: 6}","[3, 8, 28, 37]",3786282371,Rb1Li7Ni2O6
CsLi7(NiO3)2,mp-754136,2.4418,1.09551163,0.11600699656250058,"{55: 1, 3: 7, 28: 2, 8: 6}","[3, 8, 28, 55]",3786282551,Cs1Li7Ni2O6
Li7ZrO6,mp-937761,0.0,-0.13101046,0.07437854642857022,"{3: 7, 40: 1, 8: 6}","[3, 8, 40]",3786401,Li7Zr1O6
Li7NbO6,mp-37399,3.352,0.39531059,0.03574840723214212,"{3: 7, 41: 1, 8: 6}","[3, 8, 41]",3786411,Li7Nb1O6
Li7RuO6,mp-37839,0.6366,1.62473585,0.009826722857139814,"{3: 7, 44: 1, 8: 6}","[3, 8, 44]",3786441,Li7Ru1O6
Li7Ta24O64,mp-1223302,0.0,1.23556513,0.019517722986826413,"{3: 7, 73: 24, 8: 64}","[3, 8, 73]",378647324,Li7Ta24O64
Li7SbO6,mp-37436,3.4465000000000003,1.52366409,0.008746312142856816,"{3: 7, 51: 1, 8: 6}","[3, 8, 51]",3786511,Li7Sb1O6
Li7TaO6,mp-28891,4.373399999999999,0.49854992,0.03254020428571547,"{3: 7, 73: 1, 8: 6}","[3, 8, 73]",3786731,Li7Ta1O6
Li7OsO6,mp-34375,0.6890000000000001,2.33064344,0.01360943959184091,"{3: 7, 76: 1, 8: 6}","[3, 8, 76]",3786761,Li7Os1O6
Li7BiO6,mp-38487,1.8635,0.9765778,0.0,"{3: 7, 83: 1, 8: 6}","[3, 8, 83]",3786831,Li7Bi1O6
Li7SiPO8,mp-1239225,4.1742,1.07458936,0.06590102264705866,"{3: 7, 14: 1, 15: 1, 8: 8}","[3, 8, 14, 15]",3788141151,Li7Si1P1O8
RbLi7(SiO4)2,mp-554752,4.718,0.63546878,0.0,"{37: 1, 3: 7, 14: 2, 8: 8}","[3, 8, 14, 37]",3788142371,Rb1Li7Si2O8
K4Li7Mn2O8,mp-766140,0.0,1.66557022,0.07305795797618408,"{19: 4, 3: 7, 25: 2, 8: 8}","[3, 8, 19, 25]",3788194252,K4Li7Mn2O8
Li7VGeO8,mp-769539,3.2791,-0.36713901,0.029984217647058387,"{3: 7, 23: 1, 32: 1, 8: 8}","[3, 8, 23, 32]",3788231321,Li7V1Ge1O8
Li7Cr2O8,mp-757971,0.2248000000000001,1.23245429,0.051444501029410894,"{3: 7, 24: 2, 8: 8}","[3, 8, 24]",3788242,Li7Cr2O8
Li7V16(PO4)24,mp-850007,0.8331999999999999,1.49698466,0.017626619965043666,"{3: 7, 23: 16, 15: 24, 8: 96}","[3, 8, 15, 23]",3789615242316,Li7V16P24O96
Li8Al3Si5,mp-30134,0.0,4.97334326,0.20607907418154614,"{3: 8, 13: 3, 14: 5}","[3, 13, 14]",38133145,Li8Al3Si5
Li8PSe6,mp-1222505,0.0,2.52656001,0.08321225344444372,"{3: 8, 15: 1, 34: 6}","[3, 15, 34]",38151346,Li8P1Se6
Li8Sb2S,mp-768139,1.4242000000000001,1.70017246,0.0815646722727279,"{3: 8, 51: 2, 16: 1}","[3, 16, 51]",38161512,Li8Sb2S1
Li8Sb7S19,mp-775925,0.0,3.71601125,0.0606690936519616,"{3: 8, 51: 7, 16: 19}","[3, 16, 51]",381619517,Li8Sb7S19
Li8TiS6,mp-753546,1.9762000000000002,0.57872477,0.0034980028333322366,"{3: 8, 22: 1, 16: 6}","[3, 16, 22]",38166221,Li8Ti1S6
Li8CrS6,mp-753974,0.7727999999999999,1.46076607,0.03573103966666391,"{3: 8, 24: 1, 16: 6}","[3, 16, 24]",38166241,Li8Cr1S6
Li8NbS6,mp-754227,0.0,3.15530912,0.0829057763742691,"{3: 8, 41: 1, 16: 6}","[3, 16, 41]",38166411,Li8Nb1S6
Li8SbS6,mp-768171,0.0,2.48487554,0.05958263816667042,"{3: 8, 51: 1, 16: 6}","[3, 16, 51]",38166511,Li8Sb1S6
Li8BiS6,mp-756213,0.0,1.60491376,0.07024115649999985,"{3: 8, 83: 1, 16: 6}","[3, 16, 83]",38166831,Li8Bi1S6
Li8Nb2S9,mp-769036,0.7982999999999998,2.14246071,0.044107064286701636,"{3: 8, 41: 2, 16: 9}","[3, 16, 41]",38169412,Li8Nb2S9
Li8CaSn7,mp-1211196,0.0,4.31895569,0.04499426041666643,"{3: 8, 20: 1, 50: 7}","[3, 20, 50]",38201507,Li8Ca1Sn7
Li8Zn2Ge3,mp-569373,0.0,2.05994496,0.0,"{3: 8, 30: 2, 32: 3}","[3, 30, 32]",38302323,Li8Zn2Ge3
Li8Ce7Ge10,mp-1192957,0.0,4.86243209,0.0,"{3: 8, 58: 7, 32: 10}","[3, 32, 58]",383210587,Li8Ce7Ge10
Li8Pr7Ge10,mp-1190840,0.0,3.02564891,0.0005244307999907605,"{3: 8, 59: 7, 32: 10}","[3, 32, 59]",383210597,Li8Pr7Ge10
Li8Nd7Ge10,mp-1191394,0.0,3.00265568,0.0007813648000025708,"{3: 8, 60: 7, 32: 10}","[3, 32, 60]",383210607,Li8Nd7Ge10
Li8Sm7Ge10,mp-1191493,0.0,3.0102584,0.002038652399997787,"{3: 8, 62: 7, 32: 10}","[3, 32, 62]",383210627,Li8Sm7Ge10
Li8Be6P7O29,mp-1201314,0.1894,0.74426243,0.0,"{3: 8, 4: 6, 15: 7, 8: 29}","[3, 4, 8, 15]",3846829157,Li8Be6P7O29
Li8Ag5,mp-1211140,0.0,1.40417534,0.0,"{3: 8, 47: 5}","[3, 47]",38475,Li8Ag5
Li8EuSn7,mp-1211360,0.0,4.27627142,0.05916235572916673,"{3: 8, 63: 1, 50: 7}","[3, 50, 63]",38507631,Li8Eu1Sn7
Li8B2O7,mp-768921,5.2822,1.18669977,0.06674397647059127,"{3: 8, 5: 2, 8: 7}","[3, 5, 8]",385287,Li8B2O7
Li8NO3,mp-1020020,0.0,0.61349672,0.10869791979166532,"{3: 8, 7: 1, 8: 3}","[3, 7, 8]",387183,Li8N1O3
Li8Hf3,mp-1190933,0.0,0.00215114,1.049582007575756,"{3: 8, 72: 3}","[3, 72]",38723,Li8Hf3
Li8SeN2,mp-973793,1.7523,1.39249325,0.0,"{3: 8, 34: 1, 7: 2}","[3, 7, 34]",3872341,Li8Se1N2
Li8TeN2,mp-1190809,2.2352,2.16317643,0.0,"{3: 8, 52: 1, 7: 2}","[3, 7, 52]",3872521,Li8Te1N2
Li8N3O,mp-1020032,0.0,0.5276294,0.2047130510416677,"{3: 8, 7: 3, 8: 1}","[3, 7, 8]",387381,Li8N3O1
Li8Mn5O10,mp-764701,0.25160000000000027,2.69518225,0.04970229195651843,"{3: 8, 25: 5, 8: 10}","[3, 8, 25]",38810255,Li8Mn5O10
Li8(CoO2)5,mp-1638660,0.6687999999999998,1.47994623,0.049295090407609266,"{3: 8, 27: 5, 8: 10}","[3, 8, 27]",38810275,Li8Co5O10
Li8(NiO2)5,mp-755081,0.016699999999999715,2.43043403,0.04440733876811365,"{3: 8, 28: 5, 8: 10}","[3, 8, 28]",38810285,Li8Ni5O10
Li8Bi2PdO10,mp-560555,0.7427000000000001,2.35178682,0.0,"{3: 8, 83: 2, 46: 1, 8: 10}","[3, 8, 46, 83]",38810461832,Li8Bi2Pd1O10
Li8TiMn3O12,mp-767679,1.0081000000000002,3.27832858,0.08769003166666955,"{3: 8, 22: 1, 25: 3, 8: 12}","[3, 8, 22, 25]",38812221253,Li8Ti1Mn3O12
Li8Mn3CrO12,mp-765119,0.9127999999999998,2.05794251,0.10492699687500018,"{3: 8, 25: 3, 24: 1, 8: 12}","[3, 8, 24, 25]",38812241253,Li8Mn3Cr1O12
Li8MnCr3O12,mp-766919,0.5089000000000001,3.01232912,0.11215681534721966,"{3: 8, 25: 1, 24: 3, 8: 12}","[3, 8, 24, 25]",38812243251,Li8Mn1Cr3O12
Li8Cr3SbO12,mp-1176846,0.8148,2.90549508,0.08636706104166336,"{3: 8, 24: 3, 51: 1, 8: 12}","[3, 8, 24, 51]",38812243511,Li8Cr3Sb1O12
Li8Cr3TeO12,mp-767678,0.8811,3.36114919,0.09468418093749786,"{3: 8, 24: 3, 52: 1, 8: 12}","[3, 8, 24, 52]",38812243521,Li8Cr3Te1O12
Li8TiNi7O16,mp-760950,0.0,3.50625796,0.018666643437497576,"{3: 8, 22: 1, 28: 7, 8: 16}","[3, 8, 22, 28]",38816221287,Li8Ti1Ni7O16