formula,material_id,band_gap,efermi,energy_above_hull,comp_atoms,sorted_keys_comp_atoms,comp_number,new_formula
LiLaNdSbO6,mp-776091,3.917299999999999,4.38158813,0.0059362145000037,"{3: 1, 57: 1, 60: 1, 51: 1, 8: 6}","[3, 8, 51, 57, 60]",3186511571601,Li1La1Nd1Sb1O6
LiLa2SbO6,mp-6674,3.7234,5.38191599,0.0031347194999975514,"{3: 1, 57: 2, 51: 1, 8: 6}","[3, 8, 51, 57]",3186511572,Li1La2Sb1O6
LiSbWO6,mp-17290,2.1215,2.42436018,0.03908728930555583,"{3: 1, 51: 1, 74: 1, 8: 6}","[3, 8, 51, 74]",3186511741,Li1Sb1W1O6
Cs2Li(IO3)2,mp-1236534,0.2681,2.51005568,0.1757689935757547,"{55: 2, 3: 1, 53: 2, 8: 6}","[3, 8, 53, 55]",3186532552,Cs2Li1I2O6
Cs4Li(Pb2O3)2,mp-1236465,0.0,4.28570431,0.08530392547727761,"{55: 4, 3: 1, 82: 4, 8: 6}","[3, 8, 55, 82]",3186554824,Cs4Li1Pb4O6
LiLa2ReO6,mp-1190023,0.0,7.4027333,0.06218044990000138,"{3: 1, 57: 2, 75: 1, 8: 6}","[3, 8, 57, 75]",3186572751,Li1La2Re1O6
LiLa2OsO6,mp-12451,0.3355000000000006,6.48899788,0.0,"{3: 1, 57: 2, 76: 1, 8: 6}","[3, 8, 57, 76]",3186572761,Li1La2Os1O6
LiLa2IrO6,mp-11992,0.0,6.41363065,0.0,"{3: 1, 57: 2, 77: 1, 8: 6}","[3, 8, 57, 77]",3186572771,Li1La2Ir1O6
LiPr2OsO6,mp-12449,0.2232000000000003,4.1529716,0.0,"{3: 1, 59: 2, 76: 1, 8: 6}","[3, 8, 59, 76]",3186592761,Li1Pr2Os1O6
LiPr2IrO6,mp-11906,0.0,3.90785985,0.0,"{3: 1, 59: 2, 77: 1, 8: 6}","[3, 8, 59, 77]",3186592771,Li1Pr2Ir1O6
LiNd2O6,mp-1235641,0.0,1.39011441,0.2664004696428579,"{3: 1, 60: 2, 8: 6}","[3, 8, 60]",3186602,Li1Nd2O6
LiNd2OsO6,mp-12450,0.0,4.31454259,0.0,"{3: 1, 60: 2, 76: 1, 8: 6}","[3, 8, 60, 76]",3186602761,Li1Nd2Os1O6
LiNd2IrO6,mp-11905,0.0,3.81008634,0.0,"{3: 1, 60: 2, 77: 1, 8: 6}","[3, 8, 60, 77]",3186602771,Li1Nd2Ir1O6
LiSm2OsO6,mp-12448,0.3960999999999997,3.98391646,0.0,"{3: 1, 62: 2, 76: 1, 8: 6}","[3, 8, 62, 76]",3186622761,Li1Sm2Os1O6
LiSm2IrO6,mp-11904,0.0,3.70576999,0.0,"{3: 1, 62: 2, 77: 1, 8: 6}","[3, 8, 62, 77]",3186622771,Li1Sm2Ir1O6
LiEu2IrO6,mp-11903,0.0,3.09808866,0.012805673300002596,"{3: 1, 63: 2, 77: 1, 8: 6}","[3, 8, 63, 77]",3186632771,Li1Eu2Ir1O6
LiTaWO6,mp-768074,3.2939,-0.70740131,0.04977729708333101,"{3: 1, 73: 1, 74: 1, 8: 6}","[3, 8, 73, 74]",3186731741,Li1Ta1W1O6
LiTa2O6,mp-1222341,0.0,0.53268154,0.08798031819444851,"{3: 1, 73: 2, 8: 6}","[3, 8, 73]",3186732,Li1Ta2O6
Li(WO3)2,mp-756203,0.0,3.66433674,0.03704523097222534,"{3: 1, 74: 2, 8: 6}","[3, 8, 74]",3186742,Li1W2O6
Li(BiO2)3,mp-768971,0.0,3.9540778,0.07792543274999986,"{3: 1, 83: 3, 8: 6}","[3, 8, 83]",3186833,Li1Bi3O6
LiCaTa2O6F,mp-39511,3.6628999999999996,1.24878954,0.030018844090907493,"{3: 1, 20: 1, 73: 2, 8: 6, 9: 1}","[3, 8, 9, 20, 73]",318691201732,Li1Ca1Ta2O6F1
LiNi6O6F,mp-758667,2.2594000000000003,5.36836975,0.056756654285714525,"{3: 1, 28: 6, 8: 6, 9: 1}","[3, 8, 9, 28]",318691286,Li1Ni6O6F1
SrLiNb2O6F,mp-753719,1.7698999999999998,0.83970442,0.03249809727271291,"{38: 1, 3: 1, 41: 2, 8: 6, 9: 1}","[3, 8, 9, 38, 41]",318691381412,Sr1Li1Nb2O6F1
SrLiTa2O6F,mp-39387,3.6165000000000003,1.11786653,0.01968861136362321,"{38: 1, 3: 1, 73: 2, 8: 6, 9: 1}","[3, 8, 9, 38, 73]",318691381732,Sr1Li1Ta2O6F1
NaLiMg6O7,mp-1030910,1.0723999999999996,3.03421735,0.22400901200000067,"{11: 1, 3: 1, 12: 6, 8: 7}","[3, 8, 11, 12]",3187111126,Na1Li1Mg6O7
NaLiMnP2O7,mp-775876,3.8104,2.06291025,0.04320837173613601,"{11: 1, 3: 1, 25: 1, 15: 2, 8: 7}","[3, 8, 11, 15, 25]",3187111152251,Na1Li1Mn1P2O7
NaLiZnP2O7,mp-676483,4.0079,0.43160184,0.001877349444447951,"{11: 1, 3: 1, 30: 1, 15: 2, 8: 7}","[3, 8, 11, 15, 30]",3187111152301,Na1Li1Zn1P2O7
NaLiTi3O7,mp-555420,2.6233999999999997,4.36664811,0.0005713004166860713,"{11: 1, 3: 1, 22: 3, 8: 7}","[3, 8, 11, 22]",3187111223,Na1Li1Ti3O7
Na3LiP2O7,mp-1020164,4.8511,0.92332363,0.0,"{11: 3, 3: 1, 15: 2, 8: 7}","[3, 8, 11, 15]",3187113152,Na3Li1P2O7
KLiMg6O7,mp-1031307,0.3933,3.39176557,0.4000097919166663,"{19: 1, 3: 1, 12: 6, 8: 7}","[3, 8, 12, 19]",3187126191,K1Li1Mg6O7
RbLiMg6O7,mp-1031127,0.0,2.97839663,0.42433299941666647,"{37: 1, 3: 1, 12: 6, 8: 7}","[3, 8, 12, 37]",3187126371,Rb1Li1Mg6O7
CsLiMg6O7,mp-1099243,0.0,3.3292871,0.43001036400000103,"{55: 1, 3: 1, 12: 6, 8: 7}","[3, 8, 12, 55]",3187126551,Cs1Li1Mg6O7
LiHfMg6O7,mp-1031107,0.0,7.26974683,0.1722108931666657,"{3: 1, 72: 1, 12: 6, 8: 7}","[3, 8, 12, 72]",3187126721,Li1Hf1Mg6O7
LiAlSi2O7,mp-1190355,0.0,-0.12078333,0.16177224371212606,"{3: 1, 13: 1, 14: 2, 8: 7}","[3, 8, 13, 14]",3187131142,Li1Al1Si2O7
LiAlAs2O7,mp-547017,3.0496999999999996,1.97863586,0.027592806818177884,"{3: 1, 13: 1, 33: 2, 8: 7}","[3, 8, 13, 33]",3187131332,Li1Al1As2O7
LiSiBi3O7,mp-757777,2.6693,4.20977596,0.041568846805557946,"{3: 1, 14: 1, 83: 3, 8: 7}","[3, 8, 14, 83]",3187141833,Li1Si1Bi3O7
LiMn2Si2O7,mp-754573,0.24470000000000036,2.44812519,0.08163160776619627,"{3: 1, 25: 2, 14: 2, 8: 7}","[3, 8, 14, 25]",3187142252,Li1Mn2Si2O7
LiTl6Si2O7,mp-1235978,0.043099999999999916,3.27308433,0.18540628937499992,"{3: 1, 81: 6, 14: 2, 8: 7}","[3, 8, 14, 81]",3187142816,Li1Tl6Si2O7
LiV2PO7,mp-752517,0.8785999999999998,1.75442897,0.09063078250001055,"{3: 1, 23: 2, 15: 1, 8: 7}","[3, 8, 15, 23]",3187151232,Li1V2P1O7
KLiZnP2O7,mp-554164,4.2904,0.03178186,0.0,"{19: 1, 3: 1, 30: 1, 15: 2, 8: 7}","[3, 8, 15, 19, 30]",3187152191301,K1Li1Zn1P2O7
K3LiP2O7,mp-1019794,4.608300000000001,0.18271718,0.0,"{19: 3, 3: 1, 15: 2, 8: 7}","[3, 8, 15, 19]",3187152193,K3Li1P2O7
LiScP2O7,mp-10517,4.7646,0.52467826,0.0,"{3: 1, 21: 1, 15: 2, 8: 7}","[3, 8, 15, 21]",3187152211,Li1Sc1P2O7
LiTiP2O7,mp-26629,0.16959999999999997,4.39976032,0.053907150354985944,"{3: 1, 22: 1, 15: 2, 8: 7}","[3, 8, 15, 22]",3187152221,Li1Ti1P2O7
LiVP2O7,mp-26227,1.9415,2.5726279,0.0,"{3: 1, 23: 1, 15: 2, 8: 7}","[3, 8, 15, 23]",3187152231,Li1V1P2O7
LiCrP2O7,mp-19103,2.433,1.27975342,0.0,"{3: 1, 24: 1, 15: 2, 8: 7}","[3, 8, 15, 24]",3187152241,Li1Cr1P2O7
LiMnP2O7,mp-31924,0.9788000000000001,1.66998621,0.0,"{3: 1, 25: 1, 15: 2, 8: 7}","[3, 8, 15, 25]",3187152251,Li1Mn1P2O7
LiCoP2O7,mp-27043,0.0,1.82887822,0.018420825833332266,"{3: 1, 27: 1, 15: 2, 8: 7}","[3, 8, 15, 27]",3187152271,Li1Co1P2O7
LiNiP2O7,mp-26449,0.029900000000000038,1.48767657,0.04929925212124164,"{3: 1, 28: 1, 15: 2, 8: 7}","[3, 8, 15, 28]",3187152281,Li1Ni1P2O7
LiNbP2O7,mp-863403,0.0,4.0403368,0.13414370497563421,"{3: 1, 41: 1, 15: 2, 8: 7}","[3, 8, 15, 41]",3187152411,Li1Nb1P2O7
LiMoP2O7,mp-18987,1.5360999999999998,3.4332438,0.0,"{3: 1, 42: 1, 15: 2, 8: 7}","[3, 8, 15, 42]",3187152421,Li1Mo1P2O7
LiInP2O7,mp-8491,3.9726000000000004,1.30841746,0.0,"{3: 1, 49: 1, 15: 2, 8: 7}","[3, 8, 15, 49]",3187152491,Li1In1P2O7
LiSnP2O7,mp-766457,1.2683,2.37701912,0.04790637352271787,"{3: 1, 50: 1, 15: 2, 8: 7}","[3, 8, 15, 50]",3187152501,Li1Sn1P2O7
LiSbP2O7,mp-26341,3.713,1.43554112,0.016075594015160455,"{3: 1, 51: 1, 15: 2, 8: 7}","[3, 8, 15, 51]",3187152511,Li1Sb1P2O7
LiP2WO7,mp-752528,3.4655,1.99038106,0.015295144886364298,"{3: 1, 15: 2, 74: 1, 8: 7}","[3, 8, 15, 74]",3187152741,Li1P2W1O7
LiBiP2O7,mp-26129,3.7757,2.35002121,0.00960945378787148,"{3: 1, 83: 1, 15: 2, 8: 7}","[3, 8, 15, 83]",3187152831,Li1Bi1P2O7
LiClO7,mp-1180532,0.0,-2.52395838,0.7168063183333375,"{3: 1, 17: 1, 8: 7}","[3, 8, 17]",3187171,Li1Cl1O7
LiPr2Ta2Cl2O7,mp-1235470,0.0,5.81709141,0.037852540395244105,"{3: 1, 59: 2, 73: 2, 17: 2, 8: 7}","[3, 8, 17, 59, 73]",3187172592732,Li1Pr2Ta2Cl2O7
K2LiLa4O7,mp-1235048,0.0,5.43666705,0.2322600933214254,"{19: 2, 3: 1, 57: 4, 8: 7}","[3, 8, 19, 57]",3187192574,K2Li1La4O7
K5LiGe2O7,mp-557473,2.9956,-0.18983846,0.0,"{19: 5, 3: 1, 32: 2, 8: 7}","[3, 8, 19, 32]",3187195322,K5Li1Ge2O7
LiScAs2O7,mp-552663,3.4518999999999997,0.68397707,0.0,"{3: 1, 21: 1, 33: 2, 8: 7}","[3, 8, 21, 33]",3187211332,Li1Sc1As2O7
LiMnO7,mp-1210922,0.0,-2.96327664,0.8288876671666641,"{3: 1, 25: 1, 8: 7}","[3, 8, 25]",3187251,Li1Mn1O7
LiLa3MnO7,mp-1222623,2.2799000000000005,5.90343445,0.04430653384920902,"{3: 1, 57: 3, 25: 1, 8: 7}","[3, 8, 25, 57]",3187251573,Li1La3Mn1O7
LiCo6O7,mp-773572,0.0,3.04285673,0.12862678553571616,"{3: 1, 27: 6, 8: 7}","[3, 8, 27]",3187276,Li1Co6O7
LiNi6O7,mp-753344,0.0,5.09948005,0.01677806702380824,"{3: 1, 28: 6, 8: 7}","[3, 8, 28]",3187286,Li1Ni6O7
LiGaAs2O7,mp-545346,2.3654,1.19981928,0.026722108939399192,"{3: 1, 31: 1, 33: 2, 8: 7}","[3, 8, 31, 33]",3187311332,Li1Ga1As2O7
LiNbWO7,mp-1222567,0.15810000000000002,-0.53565753,0.21291606637500138,"{3: 1, 41: 1, 74: 1, 8: 7}","[3, 8, 41, 74]",3187411741,Li1Nb1W1O7
LiLaNb2O7,mp-861268,1.3900000000000001,2.06621423,0.07682651454545741,"{3: 1, 57: 1, 41: 2, 8: 7}","[3, 8, 41, 57]",3187412571,Li1La1Nb2O7
LiSbWO7,mp-1222410,0.20520000000000005,0.74259806,0.22846727862500238,"{3: 1, 51: 1, 74: 1, 8: 7}","[3, 8, 51, 74]",3187511741,Li1Sb1W1O7
LiLaTa2O7,mp-1222361,2.2515,4.27047081,0.07020928022727446,"{3: 1, 57: 1, 73: 2, 8: 7}","[3, 8, 57, 73]",3187571732,Li1La1Ta2O7
LiTaWO7,mp-1222430,0.06820000000000004,-0.47085634,0.2067899268750022,"{3: 1, 73: 1, 74: 1, 8: 7}","[3, 8, 73, 74]",3187731741,Li1Ta1W1O7
LiBi4O7,mp-1176788,0.0,4.82609,0.09331457333332782,"{3: 1, 83: 4, 8: 7}","[3, 8, 83]",3187834,Li1Bi4O7
LiV5O7F,mp-753402,0.4507000000000003,4.17628983,0.054188975208333545,"{3: 1, 23: 5, 8: 7, 9: 1}","[3, 8, 9, 23]",318791235,Li1V5O7F1
LiMn5O7F,mp-753411,0.0,2.74747858,0.055072239776789544,"{3: 1, 25: 5, 8: 7, 9: 1}","[3, 8, 9, 25]",318791255,Li1Mn5O7F1
LiMn7O7F,mp-764671,0.0,2.96215604,0.12959603156250132,"{3: 1, 25: 7, 8: 7, 9: 1}","[3, 8, 9, 25]",318791257,Li1Mn7O7F1
LiCo5O7F,mp-1306750,0.45120000000000005,2.65881019,0.041150248928577327,"{3: 1, 27: 5, 8: 7, 9: 1}","[3, 8, 9, 27]",318791275,Li1Co5O7F1
LiCo7O7F,mp-759978,0.0,3.00531915,0.06119136765625122,"{3: 1, 27: 7, 8: 7, 9: 1}","[3, 8, 9, 27]",318791277,Li1Co7O7F1
LiNi7O7F,mp-765469,2.2198,5.19027531,0.08345236968750136,"{3: 1, 28: 7, 8: 7, 9: 1}","[3, 8, 9, 28]",318791287,Li1Ni7O7F1
LiNb3O7F,mp-1235339,0.0,2.50267802,0.07652637287499608,"{3: 1, 41: 3, 8: 7, 9: 1}","[3, 8, 9, 41]",318791413,Li1Nb3O7F1
LiV6O7F5,mp-753549,1.1402000000000005,3.38544876,0.056920274769733936,"{3: 1, 23: 6, 8: 7, 9: 5}","[3, 8, 9, 23]",318795236,Li1V6O7F5
LiO8,mp-1235059,0.0,0.7377187,0.0,"{3: 1, 8: 8}","[3, 8]",3188,Li1O8
Na3Li(MoO4)2,mp-1210927,4.306900000000001,-1.404038,0.07691741607143054,"{11: 3, 3: 1, 42: 2, 8: 8}","[3, 8, 11, 42]",3188113422,Na3Li1Mo2O8
Na5Li(PO4)2,mp-559452,4.3383,5.38595962,0.0005009952343755231,"{11: 5, 3: 1, 15: 2, 8: 8}","[3, 8, 11, 15]",3188115152,Na5Li1P2O8
Na5LiMn2O8,mp-554028,1.7783999999999998,0.84464125,0.01554473182291094,"{11: 5, 3: 1, 25: 2, 8: 8}","[3, 8, 11, 25]",3188115252,Na5Li1Mn2O8
LiMg2Mn3O8,mp-756823,0.0,3.38963923,0.024940516160721238,"{3: 1, 12: 2, 25: 3, 8: 8}","[3, 8, 12, 25]",3188122253,Li1Mg2Mn3O8
LiMg4SnO8,mp-1210941,0.0,2.12640342,0.1855711904285684,"{3: 1, 12: 4, 50: 1, 8: 8}","[3, 8, 12, 50]",3188124501,Li1Mg4Sn1O8
LiMg6AlO8,mp-1031514,3.4881,4.92102766,0.060455410468749804,"{3: 1, 12: 6, 13: 1, 8: 8}","[3, 8, 12, 13]",3188126131,Li1Mg6Al1O8
LiMg6SiO8,mp-1030909,0.0,8.47285409,0.2337216303124956,"{3: 1, 12: 6, 14: 1, 8: 8}","[3, 8, 12, 14]",3188126141,Li1Mg6Si1O8
LiMg6TiO8,mp-1031344,0.0,6.95509322,0.04330638281250021,"{3: 1, 12: 6, 22: 1, 8: 8}","[3, 8, 12, 22]",3188126221,Li1Mg6Ti1O8
LiMg6CrO8,mp-1031034,1.2919,4.11455642,0.04402953874999849,"{3: 1, 12: 6, 24: 1, 8: 8}","[3, 8, 12, 24]",3188126241,Li1Mg6Cr1O8
LiMg6MnO8,mp-1032403,0.0,5.13044186,0.024520575312499737,"{3: 1, 12: 6, 25: 1, 8: 8}","[3, 8, 12, 25]",3188126251,Li1Mg6Mn1O8
LiMg6CoO8,mp-1032218,0.0,4.00341825,0.06911951499999969,"{3: 1, 12: 6, 27: 1, 8: 8}","[3, 8, 12, 27]",3188126271,Li1Mg6Co1O8
LiMg6GaO8,mp-1031142,2.4295,4.38002091,0.04910388421875034,"{3: 1, 12: 6, 31: 1, 8: 8}","[3, 8, 12, 31]",3188126311,Li1Mg6Ga1O8
LiMg6SbO8,mp-1031070,0.22439999999999927,8.046784,0.1304655837499995,"{3: 1, 12: 6, 51: 1, 8: 8}","[3, 8, 12, 51]",3188126511,Li1Mg6Sb1O8
LiLaMg6O8,mp-1030894,2.383,4.93374382,0.15976968632812483,"{3: 1, 57: 1, 12: 6, 8: 8}","[3, 8, 12, 57]",3188126571,Li1La1Mg6O8
LiCeMg6O8,mp-1030934,0.0,8.60486091,0.13592453050781295,"{3: 1, 58: 1, 12: 6, 8: 8}","[3, 8, 12, 58]",3188126581,Li1Ce1Mg6O8
LiMg6WO8,mp-1031191,1.3883,6.13181549,0.09296466375000012,"{3: 1, 12: 6, 74: 1, 8: 8}","[3, 8, 12, 74]",3188126741,Li1Mg6W1O8
LiMg6BiO8,mp-1031076,1.0029000000000003,6.89874346,0.1234253770312499,"{3: 1, 12: 6, 83: 1, 8: 8}","[3, 8, 12, 83]",3188126831,Li1Mg6Bi1O8
LiAlSi3O8,mp-1222571,5.4216,6.73778242,0.027690090769226572,"{3: 1, 13: 1, 14: 3, 8: 8}","[3, 8, 13, 14]",3188131143,Li1Al1Si3O8
LiAl(MoO4)2,mp-19209,3.6252000000000004,0.73339698,0.014472303437501388,"{3: 1, 13: 1, 42: 2, 8: 8}","[3, 8, 13, 42]",3188131422,Li1Al1Mo2O8
LiLa4AlO8,mp-1222363,2.545000000000001,9.24420966,0.05964900089286651,"{3: 1, 57: 4, 13: 1, 8: 8}","[3, 8, 13, 57]",3188131574,Li1La4Al1O8
LiAl2V4O8,mp-1235052,0.9255999999999993,6.42995748,0.1880817692500063,"{3: 1, 13: 2, 23: 4, 8: 8}","[3, 8, 13, 23]",3188132234,Li1Al2V4O8
LiAl4Zn2O8,mp-1235363,0.0,8.61455494,0.4000865565000007,"{3: 1, 13: 4, 30: 2, 8: 8}","[3, 8, 13, 30]",3188134302,Li1Al4Zn2O8
LiAl4Cd2O8,mp-1235830,0.0,7.60703345,0.28955395174999765,"{3: 1, 13: 4, 48: 2, 8: 8}","[3, 8, 13, 48]",3188134482,Li1Al4Cd2O8
LiAl5O8,mp-530399,5.2491,4.68049224,0.0,"{3: 1, 13: 5, 8: 8}","[3, 8, 13]",3188135,Li1Al5O8
LiV2(SiO4)2,mp-762820,0.8675999999999999,3.5712301,0.07743761567307672,"{3: 1, 23: 2, 14: 2, 8: 8}","[3, 8, 14, 23]",3188142232,Li1V2Si2O8
LiCo3(SiO4)2,mp-849520,0.0052000000000000934,1.36814413,0.06840542964285667,"{3: 1, 27: 3, 14: 2, 8: 8}","[3, 8, 14, 27]",3188142273,Li1Co3Si2O8
Rb5LiSi2NiO8,mp-559477,3.8044000000000002,0.79124902,0.017993052598038517,"{37: 5, 3: 1, 14: 2, 28: 1, 8: 8}","[3, 8, 14, 28, 37]",3188142281375,Rb5Li1Si2Ni1O8
LiSi2(AgO)8,mp-1235565,0.0,2.68299647,0.11058124078947085,"{3: 1, 14: 2, 47: 8, 8: 8}","[3, 8, 14, 47]",3188142478,Li1Si2Ag8O8
LiTiSi3O8,mp-766251,0.6163000000000007,5.4902879,0.0896090327179504,"{3: 1, 22: 1, 14: 3, 8: 8}","[3, 8, 14, 22]",3188143221,Li1Ti1Si3O8
LiVSi3O8,mp-765984,2.9766000000000004,5.08862908,0.05828006137819486,"{3: 1, 23: 1, 14: 3, 8: 8}","[3, 8, 14, 23]",3188143231,Li1V1Si3O8
LiCrSi3O8,mp-753254,2.7108999999999996,4.85055052,0.08162852544872656,"{3: 1, 24: 1, 14: 3, 8: 8}","[3, 8, 14, 24]",3188143241,Li1Cr1Si3O8
LiMnSi3O8,mp-757876,1.4876999999999998,1.90190869,0.08797150761643735,"{3: 1, 25: 1, 14: 3, 8: 8}","[3, 8, 14, 25]",3188143251,Li1Mn1Si3O8
LiSi3BiO8,mp-757082,3.5281000000000002,1.97362155,0.07369639448717802,"{3: 1, 14: 3, 83: 1, 8: 8}","[3, 8, 14, 83]",3188143831,Li1Si3Bi1O8
LiMo2PO8,mp-32123,1.1267999999999998,2.05544372,0.02928603750000658,"{3: 1, 42: 2, 15: 1, 8: 8}","[3, 8, 15, 42]",3188151422,Li1Mo2P1O8
LiP(WO4)2,mp-757610,1.8364,1.97704454,0.039083832083329995,"{3: 1, 15: 1, 74: 2, 8: 8}","[3, 8, 15, 74]",3188151742,Li1P1W2O8
KLiSb(PO4)2,mp-761143,0.27170000000000005,2.89481334,0.07439185730769715,"{19: 1, 3: 1, 51: 1, 15: 2, 8: 8}","[3, 8, 15, 19, 51]",3188152191511,K1Li1Sb1P2O8
LiV(PO4)2,mp-32465,1.9609999999999999,-0.02237849,0.0340039449305527,"{3: 1, 23: 1, 15: 2, 8: 8}","[3, 8, 15, 23]",3188152231,Li1V1P2O8
RbLiV(PO4)2,mp-761134,1.715,1.12552804,0.05634264496795627,"{37: 1, 3: 1, 23: 1, 15: 2, 8: 8}","[3, 8, 15, 23, 37]",3188152231371,Rb1Li1V1P2O8
Rb2LiV(PO4)2,mp-759578,2.695,2.28293583,0.09165180427975628,"{37: 2, 3: 1, 23: 1, 15: 2, 8: 8}","[3, 8, 15, 23, 37]",3188152231372,Rb2Li1V1P2O8
LiV2(PO4)2,mp-753869,0.5545000000000004,3.97479244,0.014024001084811388,"{3: 1, 23: 2, 15: 2, 8: 8}","[3, 8, 15, 23]",3188152232,Li1V2P2O8
LiCr(PO4)2,mp-697692,1.2457,0.57203482,0.08378772458333472,"{3: 1, 24: 1, 15: 2, 8: 8}","[3, 8, 15, 24]",3188152241,Li1Cr1P2O8
LiCr2(PO4)2,mp-753918,0.0,4.37903827,0.05131810173076623,"{3: 1, 24: 2, 15: 2, 8: 8}","[3, 8, 15, 24]",3188152242,Li1Cr2P2O8
LiMn(PO4)2,mp-867825,0.0,1.09755022,0.07718037041667536,"{3: 1, 25: 1, 15: 2, 8: 8}","[3, 8, 15, 25]",3188152251,Li1Mn1P2O8
LiMn2(PO4)2,mp-753779,0.0,2.47791392,0.007159367884631784,"{3: 1, 25: 2, 15: 2, 8: 8}","[3, 8, 15, 25]",3188152252,Li1Mn2P2O8
LiCo2(PO4)2,mp-766523,0.43379999999999996,0.4081997,0.014036621730760146,"{3: 1, 27: 2, 15: 2, 8: 8}","[3, 8, 15, 27]",3188152272,Li1Co2P2O8
LiNi2(PO4)2,mp-753843,0.0,2.17085878,0.04788179086539479,"{3: 1, 28: 2, 15: 2, 8: 8}","[3, 8, 15, 28]",3188152282,Li1Ni2P2O8
LiNb(PO4)2,mp-673070,2.2718000000000003,0.30296778,0.07630687597223496,"{3: 1, 41: 1, 15: 2, 8: 8}","[3, 8, 15, 41]",3188152411,Li1Nb1P2O8
LiMo(PO4)2,mp-25983,2.986,0.84358547,0.011804772013889853,"{3: 1, 42: 1, 15: 2, 8: 8}","[3, 8, 15, 42]",3188152421,Li1Mo1P2O8
LiSb(PO4)2,mp-774064,1.4548999999999999,1.87232521,0.06912258576388641,"{3: 1, 51: 1, 15: 2, 8: 8}","[3, 8, 15, 51]",3188152511,Li1Sb1P2O8
CsLiTa(PO4)2,mp-1235123,0.09560000000000013,4.27209846,0.14779395204579426,"{55: 1, 3: 1, 73: 1, 15: 2, 8: 8}","[3, 8, 15, 55, 73]",3188152551731,Cs1Li1Ta1P2O8
LiTb2(PO4)2,mp-1232986,0.33140000000000036,6.72094835,0.2522789694670351,"{3: 1, 65: 2, 15: 2, 8: 8}","[3, 8, 15, 65]",3188152652,Li1Tb2P2O8
LiP2WO8,mp-758239,3.001,0.51947993,0.04832438034720088,"{3: 1, 15: 2, 74: 1, 8: 8}","[3, 8, 15, 74]",3188152741,Li1P2W1O8
LiBi(PO4)2,mp-1101543,0.0,0.78183897,0.11689495701388442,"{3: 1, 83: 1, 15: 2, 8: 8}","[3, 8, 15, 83]",3188152831,Li1Bi1P2O8
LiTiCrSO8,mp-766410,0.6586,0.49526742,0.08271516131597334,"{3: 1, 22: 1, 24: 1, 16: 1, 8: 8}","[3, 8, 16, 22, 24]",3188161221241,Li1Ti1Cr1S1O8
LiTi(SO4)2,mp-1176809,0.19030000000000014,3.75397831,0.08993463659722423,"{3: 1, 22: 1, 16: 2, 8: 8}","[3, 8, 16, 22]",3188162221,Li1Ti1S2O8
LiV(SO4)2,mp-771941,1.8683,0.65834323,0.01458699465277924,"{3: 1, 23: 1, 16: 2, 8: 8}","[3, 8, 16, 23]",3188162231,Li1V1S2O8
LiCr(SO4)2,mp-776761,2.1597,0.59303398,0.02180785440972155,"{3: 1, 24: 1, 16: 2, 8: 8}","[3, 8, 16, 24]",3188162241,Li1Cr1S2O8
LiMn(SO4)2,mp-774465,0.2455,0.27682726,0.012280482812497162,"{3: 1, 25: 1, 16: 2, 8: 8}","[3, 8, 16, 25]",3188162251,Li1Mn1S2O8
LiCo(SO4)2,mp-1176804,0.092,0.07570577,0.06409338249999497,"{3: 1, 27: 1, 16: 2, 8: 8}","[3, 8, 16, 27]",3188162271,Li1Co1S2O8
LiNi(SO4)2,mp-776292,0.0,-0.13269449,0.04407204326388836,"{3: 1, 28: 1, 16: 2, 8: 8}","[3, 8, 16, 28]",3188162281,Li1Ni1S2O8
LiSn(SO4)2,mp-1176625,2.4112999999999998,1.28344374,0.017863445000007694,"{3: 1, 50: 1, 16: 2, 8: 8}","[3, 8, 16, 50]",3188162501,Li1Sn1S2O8
LiSb(SO4)2,mp-779809,3.1308999999999996,1.44160059,0.025070150937490432,"{3: 1, 51: 1, 16: 2, 8: 8}","[3, 8, 16, 51]",3188162511,Li1Sb1S2O8
LiPr(SO4)2,mp-559719,5.2457,0.70606349,0.0,"{3: 1, 59: 1, 16: 2, 8: 8}","[3, 8, 16, 59]",3188162591,Li1Pr1S2O8
LiNd(SO4)2,mp-1211135,5.3668,4.62636248,0.13094275593749938,"{3: 1, 60: 1, 16: 2, 8: 8}","[3, 8, 16, 60]",3188162601,Li1Nd1S2O8
LiSm(SO4)2,mp-1210992,5.4634,4.86226291,0.13132465802083537,"{3: 1, 62: 1, 16: 2, 8: 8}","[3, 8, 16, 62]",3188162621,Li1Sm1S2O8
LiEu(SO4)2,mp-621928,0.0,-0.85888305,0.0,"{3: 1, 63: 1, 16: 2, 8: 8}","[3, 8, 16, 63]",3188162631,Li1Eu1S2O8
LiGd(SO4)2,mp-1211108,2.6325,2.09797979,0.0,"{3: 1, 64: 1, 16: 2, 8: 8}","[3, 8, 16, 64]",3188162641,Li1Gd1S2O8
LiTb(SO4)2,mp-1210998,5.6184,5.15622578,0.1543130554166705,"{3: 1, 65: 1, 16: 2, 8: 8}","[3, 8, 16, 65]",3188162651,Li1Tb1S2O8
LiDy(SO4)2,mp-1211153,5.7301,5.31432985,0.15868306093750473,"{3: 1, 66: 1, 16: 2, 8: 8}","[3, 8, 16, 66]",3188162661,Li1Dy1S2O8
LiHo(SO4)2,mp-1210949,5.7722,5.38700282,0.16572891802083944,"{3: 1, 67: 1, 16: 2, 8: 8}","[3, 8, 16, 67]",3188162671,Li1Ho1S2O8
LiEr(SO4)2,mp-1211171,5.759799999999999,5.42057633,0.16886522604167098,"{3: 1, 68: 1, 16: 2, 8: 8}","[3, 8, 16, 68]",3188162681,Li1Er1S2O8
LiLu(SO4)2,mp-1245342,5.7573,5.43501973,0.1836721246875026,"{3: 1, 71: 1, 16: 2, 8: 8}","[3, 8, 16, 71]",3188162711,Li1Lu1S2O8
LiBi3PbWClO8,mp-1235925,0.0,5.71116272,0.11551519683333211,"{3: 1, 83: 3, 82: 1, 74: 1, 17: 1, 8: 8}","[3, 8, 17, 74, 82, 83]",3188171741821833,Li1Bi3Pb1W1Cl1O8
LiLu2W2(ClO4)2,mp-1235179,2.4105,1.85995498,0.10651818063888463,"{3: 1, 71: 2, 74: 2, 17: 2, 8: 8}","[3, 8, 17, 71, 74]",3188172712742,Li1Lu2W2Cl2O8
LiU2Cl3O8,mp-1193519,0.0,0.08072238,0.7555683256696435,"{3: 1, 92: 2, 17: 3, 8: 8}","[3, 8, 17, 92]",3188173922,Li1U2Cl3O8