formula,material_id,band_gap,efermi,energy_above_hull,comp_atoms,sorted_keys_comp_atoms,comp_number,new_formula
Li2ZnBr4,mp-28829,3.777,-0.66426197,0.006390378482143078,"{3: 2, 30: 1, 35: 4}","[3, 30, 35]",32301354,Li2Zn1Br4
Li2ZnPd,mp-1093569,0.0013000000000000789,-3.00400149,1.4514447558035708,"{3: 2, 30: 1, 46: 1}","[3, 30, 46]",32301461,Li2Zn1Pd1
Li2ZnAg,mp-1093889,0.5495000000000001,-2.33412064,1.0694269775,"{3: 2, 30: 1, 47: 1}","[3, 30, 47]",32301471,Li2Zn1Ag1
Li2ZnCd,mp-1096253,0.6759999999999999,-1.99440499,1.0531897887499992,"{3: 2, 30: 1, 48: 1}","[3, 30, 48]",32301481,Li2Zn1Cd1
Li2ZnIn,mp-1096552,0.0024000000000001798,-2.15490865,1.2500581721875008,"{3: 2, 30: 1, 49: 1}","[3, 30, 49]",32301491,Li2Zn1In1
Li2ZnSn,mp-1222600,0.0,4.92459965,0.0,"{3: 2, 30: 1, 50: 1}","[3, 30, 50]",32301501,Li2Zn1Sn1
Li2ZnSb,mp-1222606,0.0,4.22392468,0.19346892625000045,"{3: 2, 30: 1, 51: 1}","[3, 30, 51]",32301511,Li2Zn1Sb1
Li2ZnI4,mp-23497,3.1982,1.23282637,0.027059199553571833,"{3: 2, 30: 1, 53: 4}","[3, 30, 53]",32301534,Li2Zn1I4
Li2ZnAu,mp-865871,0.0,2.56931292,0.009050744999999694,"{3: 2, 30: 1, 79: 1}","[3, 30, 79]",32301791,Li2Zn1Au1
Li2ZnHg,mp-1095895,0.6725999999999999,-1.9192408,0.9918315100000008,"{3: 2, 30: 1, 80: 1}","[3, 30, 80]",32301801,Li2Zn1Hg1
Li2TlZn,mp-1093843,0.026399999999999757,-2.09481285,1.163592855000001,"{3: 2, 81: 1, 30: 1}","[3, 30, 81]",32301811,Li2Tl1Zn1
Li2ZnPb,mp-1210750,0.0,4.35944612,0.040884049166667324,"{3: 2, 30: 1, 82: 1}","[3, 30, 82]",32301821,Li2Zn1Pb1
Li2Ga,mp-29210,0.0,1.90765537,0.0,"{3: 2, 31: 1}","[3, 31]",32311,Li2Ga1
Li2GaRh,mp-2988,0.0,2.88694437,0.0,"{3: 2, 31: 1, 45: 1}","[3, 31, 45]",32311451,Li2Ga1Rh1
Li2GaPd,mp-3201,0.0,3.31257964,0.0,"{3: 2, 31: 1, 46: 1}","[3, 31, 46]",32311461,Li2Ga1Pd1
Li2GaAg,mp-1222659,0.0,2.18233197,0.0,"{3: 2, 31: 1, 47: 1}","[3, 31, 47]",32311471,Li2Ga1Ag1
Li2CdGa,mp-1096001,0.0028999999999999027,-2.27297382,1.2558351901562492,"{3: 2, 48: 1, 31: 1}","[3, 31, 48]",32311481,Li2Cd1Ga1
Li2InGa,mp-1097676,0.013900000000000023,-2.02453257,1.423690745,"{3: 2, 49: 1, 31: 1}","[3, 31, 49]",32311491,Li2In1Ga1
Li2GaSn,mp-1096172,0.14060000000000006,-2.89017868,1.4917475987500004,"{3: 2, 31: 1, 50: 1}","[3, 31, 50]",32311501,Li2Ga1Sn1
Li2GaSb,mp-631316,0.027200000000000557,4.15785432,0.05125812336956592,"{3: 2, 31: 1, 51: 1}","[3, 31, 51]",32311511,Li2Ga1Sb1
Li2CeGa,mp-1184980,0.0,3.84937261,0.09146118541666581,"{3: 2, 58: 1, 31: 1}","[3, 31, 58]",32311581,Li2Ce1Ga1
Li2PrGa,mp-1185017,0.06930000000000014,2.4000764,0.013295580416667008,"{3: 2, 59: 1, 31: 1}","[3, 31, 59]",32311591,Li2Pr1Ga1
Li2NdGa,mp-1184986,0.1349999999999998,2.33076737,0.01733435833333452,"{3: 2, 60: 1, 31: 1}","[3, 31, 60]",32311601,Li2Nd1Ga1
Li2PmGa,mp-983460,0.16349999999999998,2.36895067,0.0,"{3: 2, 61: 1, 31: 1}","[3, 31, 61]",32311611,Li2Pm1Ga1
Li2GaIr,mp-31441,0.0,4.14731895,0.0,"{3: 2, 31: 1, 77: 1}","[3, 31, 77]",32311771,Li2Ga1Ir1
Li2GaPt,mp-3726,0.0,4.11499346,0.0,"{3: 2, 31: 1, 78: 1}","[3, 31, 78]",32311781,Li2Ga1Pt1
Li2GaAu,mp-30381,0.0,3.45617342,0.0,"{3: 2, 31: 1, 79: 1}","[3, 31, 79]",32311791,Li2Ga1Au1
Li2GaHg,mp-1097256,0.0029999999999996696,-2.24054211,1.1876642537499986,"{3: 2, 31: 1, 80: 1}","[3, 31, 80]",32311801,Li2Ga1Hg1
Li2GaBi,mp-1093540,0.001100000000000101,-2.74546687,1.3710667380357136,"{3: 2, 31: 1, 83: 1}","[3, 31, 83]",32311831,Li2Ga1Bi1
Li2Ga7,mp-1222769,0.15870000000000006,2.51198106,0.0,"{3: 2, 31: 7}","[3, 31]",32317,Li2Ga7
Li2In2GeSe6,mp-1191200,1.5416,1.51209751,0.017087044204544988,"{3: 2, 49: 2, 32: 1, 34: 6}","[3, 32, 34, 49]",32321346492,Li2In2Ge1Se6
SrLi2Ge,mp-1097095,0.16020000000000012,-2.64059641,1.6147887758333341,"{38: 1, 3: 2, 32: 1}","[3, 32, 38]",32321381,Sr1Li2Ge1
Li2GePd,mp-1222657,0.0,3.1225138,0.0,"{3: 2, 32: 1, 46: 1}","[3, 32, 46]",32321461,Li2Ge1Pd1
Li2AgGe,mp-1184969,0.0,2.35604815,0.021377205434782276,"{3: 2, 47: 1, 32: 1}","[3, 32, 47]",32321471,Li2Ag1Ge1
Li2CdGe,mp-10686,0.0,3.57078704,0.018787014458332862,"{3: 2, 48: 1, 32: 1}","[3, 32, 48]",32321481,Li2Cd1Ge1
Li2InGe,mp-1096020,0.17989999999999995,-2.78541875,1.46465799175,"{3: 2, 49: 1, 32: 1}","[3, 32, 49]",32321491,Li2In1Ge1
Li2SnGe,mp-12094,0.0,4.69634246,0.1484973206250002,"{3: 2, 50: 1, 32: 1}","[3, 32, 50]",32321501,Li2Sn1Ge1
Li2GeSb2Te5,mp-1222750,0.03329999999999966,5.0830115,0.06278915000000218,"{3: 2, 32: 1, 51: 2, 52: 5}","[3, 32, 51, 52]",32321512525,Li2Ge1Sb2Te5
Li2CeGe,mp-30042,0.0,5.05343844,0.1875960422499996,"{3: 2, 58: 1, 32: 1}","[3, 32, 58]",32321581,Li2Ce1Ge1
Li2PrGe,mp-1079867,0.0,2.64162609,0.14967560000000057,"{3: 2, 59: 1, 32: 1}","[3, 32, 59]",32321591,Li2Pr1Ge1
Li2NdGe,mp-1025473,0.0,2.65469953,0.163934614166668,"{3: 2, 60: 1, 32: 1}","[3, 32, 60]",32321601,Li2Nd1Ge1
Li2PmGe,mp-983425,0.0,3.45800576,0.0051801149999990415,"{3: 2, 61: 1, 32: 1}","[3, 32, 61]",32321611,Li2Pm1Ge1
Li2EuGe,mp-865067,0.0,2.49992049,0.020356269895834167,"{3: 2, 63: 1, 32: 1}","[3, 32, 63]",32321631,Li2Eu1Ge1
Li2GePt,mp-1184951,0.0,3.96643938,0.01333204785714237,"{3: 2, 32: 1, 78: 1}","[3, 32, 78]",32321781,Li2Ge1Pt1
Li2GeAu,mp-2935,0.0,3.22440307,0.0,"{3: 2, 32: 1, 79: 1}","[3, 32, 79]",32321791,Li2Ge1Au1
Li2HgGe,mp-16341,0.0,3.85535424,0.05223698062499915,"{3: 2, 80: 1, 32: 1}","[3, 32, 80]",32321801,Li2Hg1Ge1
Li2Ce2Ge3,mp-3770,0.0,5.17797777,0.04115174504201313,"{3: 2, 58: 2, 32: 3}","[3, 32, 58]",32323582,Li2Ce2Ge3
Li2Pr2Ge3,mp-1104368,0.0,3.42469939,0.0,"{3: 2, 59: 2, 32: 3}","[3, 32, 59]",32323592,Li2Pr2Ge3
Li2Nd2Ge3,mp-1104331,0.0,3.42981702,0.0,"{3: 2, 60: 2, 32: 3}","[3, 32, 60]",32323602,Li2Nd2Ge3
Li2Sm2Ge3,mp-1104144,0.0,3.3642129,0.0,"{3: 2, 62: 2, 32: 3}","[3, 32, 62]",32323622,Li2Sm2Ge3
Li2(TmGe)3,mp-1188157,0.0,3.17526128,0.08405499576389097,"{3: 2, 69: 3, 32: 3}","[3, 32, 69]",32323693,Li2Tm3Ge3
Li2(LuGe)3,mp-3440,0.0,3.03249628,0.08622451805555631,"{3: 2, 71: 3, 32: 3}","[3, 32, 71]",32323713,Li2Lu3Ge3
Li23(MnAs)20,mp-531949,0.0,3.46775343,0.19543965424648757,"{3: 23, 25: 20, 33: 20}","[3, 25, 33]",32325203320,Li23Mn20As20
Li2AgAs,mp-1097442,0.9152999999999998,-3.24344605,1.2716832622395824,"{3: 2, 47: 1, 33: 1}","[3, 33, 47]",32331471,Li2Ag1As1
Li2AsAu,mp-1095731,1.3965000000000005,-3.14659503,1.108819628958333,"{3: 2, 33: 1, 79: 1}","[3, 33, 79]",32331791,Li2As1Au1
Li2HgAs,mp-1095984,0.0,-2.70068923,1.11705166515625,"{3: 2, 80: 1, 33: 1}","[3, 33, 80]",32331801,Li2Hg1As1
Li2CeAs2,mp-8152,0.6880999999999999,3.14019556,0.0,"{3: 2, 58: 1, 33: 2}","[3, 33, 58]",32332581,Li2Ce1As2
Li2PrAs2,mp-7778,0.0,2.21483018,0.10402547512500249,"{3: 2, 59: 1, 33: 2}","[3, 33, 59]",32332591,Li2Pr1As2
Li2NdAs2,mp-7779,0.0,2.22646639,0.11416148100000356,"{3: 2, 60: 1, 33: 2}","[3, 33, 60]",32332601,Li2Nd1As2
Sr6Li23,mp-2272,0.0,0.45764168,0.006392339243798784,"{38: 6, 3: 23}","[3, 38]",323386,Sr6Li23
Li2Se,mp-2286,2.9746,0.4075048,0.0,"{3: 2, 34: 1}","[3, 34]",32341,Li2Se1
Li2Mo15Se19,mp-1197196,0.0,4.10698651,0.07164706749999894,"{3: 2, 42: 15, 34: 19}","[3, 34, 42]",3234194215,Li2Mo15Se19
Li2SnSe3,mp-1095291,1.4796999999999998,1.08467778,0.0,"{3: 2, 50: 1, 34: 3}","[3, 34, 50]",32343501,Li2Sn1Se3
Li2TeSe3,mp-570080,0.5098000000000003,2.58575818,0.000436369166664452,"{3: 2, 52: 1, 34: 3}","[3, 34, 52]",32343521,Li2Te1Se3
Li2IBr,mp-1222669,4.1336,-0.43388893,0.011037819999999421,"{3: 2, 53: 1, 35: 1}","[3, 35, 53]",32351531,Li2I1Br1
CsLi2Br3,mp-606680,4.2829,-0.64359063,0.005660853333335325,"{55: 1, 3: 2, 35: 3}","[3, 35, 55]",32353551,Cs1Li2Br3
Cs3Li2Br5,mp-1080005,4.5306,-0.76417931,0.01830736399999955,"{55: 3, 3: 2, 35: 5}","[3, 35, 55]",32355553,Cs3Li2Br5
Li2UBr6,mp-1222748,0.3197000000000001,1.06941001,0.0,"{3: 2, 92: 1, 35: 6}","[3, 35, 92]",32356921,Li2U1Br6
SrLi2In,mp-1187184,0.0,2.53991941,0.02504385395220643,"{38: 1, 3: 2, 49: 1}","[3, 38, 49]",32381491,Sr1Li2In1
SrLi2Sn,mp-867171,0.0,3.8105174,0.0,"{38: 1, 3: 2, 50: 1}","[3, 38, 50]",32381501,Sr1Li2Sn1
SrLi2Tl,mp-1095765,0.0,-1.96965081,1.294292040000001,"{38: 1, 3: 2, 81: 1}","[3, 38, 81]",32381811,Sr1Li2Tl1
SrLi2Pb,mp-867174,0.0,3.86934582,0.0,"{38: 1, 3: 2, 82: 1}","[3, 38, 82]",32381821,Sr1Li2Pb1
Sr3Li2,mp-7507,0.0,1.20385832,0.005140342409089671,"{38: 3, 3: 2}","[3, 38]",32383,Sr3Li2
Li23Ni17O40,mp-705828,0.0,3.17596985,0.021620285958336538,"{3: 23, 28: 17, 8: 40}","[3, 8, 28]",3238402817,Li23Ni17O40
Li2BeCl4,mp-1210835,6.2915,5.80522736,0.014323515357142824,"{3: 2, 4: 1, 17: 4}","[3, 4, 17]",3241174,Li2Be1Cl4
Li2BeAs2,mp-1211024,0.0,1.79601958,0.69135873425,"{3: 2, 4: 1, 33: 2}","[3, 4, 33]",3241332,Li2Be1As2
Li2BeSiO4,mp-8070,6.046099999999999,1.62870682,0.0,"{3: 2, 4: 1, 14: 1, 8: 4}","[3, 4, 8, 14]",324184141,Li2Be1Si1O4
Li2BeF4,mp-4622,7.722300000000001,-3.59855049,0.0,"{3: 2, 4: 1, 9: 4}","[3, 4, 9]",324194,Li2Be1F4
RbLi2Be2F7,mp-560518,7.2125,-3.55336354,0.0,"{37: 1, 3: 2, 4: 2, 9: 7}","[3, 4, 9, 37]",324297371,Rb1Li2Be2F7
Li2Ca3Be3Si3(O6F)2,mp-560036,5.843100000000001,1.53060003,0.0,"{3: 2, 20: 3, 4: 3, 14: 3, 8: 12, 9: 2}","[3, 4, 8, 9, 14, 20]",324381292143203,Li2Ca3Be3Si3O12F2
Li2CdRh,mp-1093611,0.15120000000000022,-2.70362668,1.6349016612499998,"{3: 2, 48: 1, 45: 1}","[3, 45, 48]",32451481,Li2Cd1Rh1
Li2InRh,mp-31442,0.0,4.36802558,0.0,"{3: 2, 49: 1, 45: 1}","[3, 45, 49]",32451491,Li2In1Rh1
Li2RhAu,mp-1097387,0.7466000000000004,-3.26666297,1.6496770424999987,"{3: 2, 45: 1, 79: 1}","[3, 45, 79]",32451791,Li2Rh1Au1
Li2TlRh,mp-1096079,0.2502,-2.79641259,1.7665814599999976,"{3: 2, 81: 1, 45: 1}","[3, 45, 81]",32451811,Li2Tl1Rh1
Li2Pd,mp-728,0.0,2.17428354,0.0,"{3: 2, 46: 1}","[3, 46]",32461,Li2Pd1
Li2AgPd,mp-865987,0.0,2.28040582,0.0,"{3: 2, 47: 1, 46: 1}","[3, 46, 47]",32461471,Li2Ag1Pd1
Li2CdPd,mp-865582,0.0,2.26898715,0.0,"{3: 2, 48: 1, 46: 1}","[3, 46, 48]",32461481,Li2Cd1Pd1
Li2InPd,mp-21029,0.0,4.6858164,0.0,"{3: 2, 49: 1, 46: 1}","[3, 46, 49]",32461491,Li2In1Pd1
Li2SnPd,mp-1222608,0.0,4.77018671,0.0,"{3: 2, 50: 1, 46: 1}","[3, 46, 50]",32461501,Li2Sn1Pd1
Li2SbPd,mp-10180,0.0,6.15612865,0.0,"{3: 2, 51: 1, 46: 1}","[3, 46, 51]",32461511,Li2Sb1Pd1
Li2PdAu,mp-866176,0.0,3.00598004,0.0,"{3: 2, 46: 1, 79: 1}","[3, 46, 79]",32461791,Li2Pd1Au1
Li2HgPd,mp-865731,0.0,2.21860906,0.0,"{3: 2, 80: 1, 46: 1}","[3, 46, 80]",32461801,Li2Hg1Pd1
Li2TlPd,mp-865863,0.0,4.34823165,0.0,"{3: 2, 81: 1, 46: 1}","[3, 46, 81]",32461811,Li2Tl1Pd1
Li2PdPb,mp-1222614,0.0,4.37253204,0.0,"{3: 2, 46: 1, 82: 1}","[3, 46, 82]",32461821,Li2Pd1Pb1
Li2CdAg,mp-1184976,0.0,1.8269543,0.011126892500000096,"{3: 2, 48: 1, 47: 1}","[3, 47, 48]",32471481,Li2Cd1Ag1
Li2InAg,mp-30344,0.0,4.59467378,0.0,"{3: 2, 49: 1, 47: 1}","[3, 47, 49]",32471491,Li2In1Ag1
Li2AgSn,mp-567347,0.0,5.2510344,0.0,"{3: 2, 47: 1, 50: 1}","[3, 47, 50]",32471501,Li2Ag1Sn1
Li2AgSn2,mp-1080714,0.0,4.34297902,0.0,"{3: 2, 47: 1, 50: 2}","[3, 47, 50]",32471502,Li2Ag1Sn2
Li2AgSb,mp-16238,0.14780000000000015,5.22984957,0.0,"{3: 2, 47: 1, 51: 1}","[3, 47, 51]",32471511,Li2Ag1Sb1
Sr10Li24NiN15,mp-1218941,0.0,1.52912336,0.0023690211166584874,"{38: 10, 3: 24, 28: 1, 7: 15}","[3, 7, 28, 38]",3247152813810,Sr10Li24Ni1N15
Li2AgAu,mp-865879,0.0,2.55576937,0.0,"{3: 2, 47: 1, 79: 1}","[3, 47, 79]",32471791,Li2Ag1Au1
Li2AgHg,mp-865874,0.0,2.14658187,0.0,"{3: 2, 47: 1, 80: 1}","[3, 47, 80]",32471801,Li2Ag1Hg1
Li2TlAg,mp-1222611,0.0,3.37513938,0.0,"{3: 2, 81: 1, 47: 1}","[3, 47, 81]",32471811,Li2Tl1Ag1
Li2AgPb,mp-30349,0.0,4.82511168,0.0,"{3: 2, 47: 1, 82: 1}","[3, 47, 82]",32471821,Li2Ag1Pb1
Li2AgBi,mp-569333,0.0,4.47463346,0.005181592083334685,"{3: 2, 47: 1, 83: 1}","[3, 47, 83]",32471831,Li2Ag1Bi1
Li24(I2N)5,mp-1223479,0.6148,1.76277334,0.08879446905448862,"{3: 24, 53: 10, 7: 5}","[3, 7, 53]",324755310,Li24I10N5
Li2Cd,mp-1210799,0.0,0.61398785,0.18691338916666744,"{3: 2, 48: 1}","[3, 48]",32481,Li2Cd1
Li2CdIn,mp-1222671,0.0,3.26236156,0.0,"{3: 2, 48: 1, 49: 1}","[3, 48, 49]",32481491,Li2Cd1In1
Li2CdSn,mp-12580,0.0,4.48733032,0.0,"{3: 2, 48: 1, 50: 1}","[3, 48, 50]",32481501,Li2Cd1Sn1
Li2CdSb,mp-16271,0.0,4.24637607,0.047925216590909425,"{3: 2, 48: 1, 51: 1}","[3, 48, 51]",32481511,Li2Cd1Sb1
Li2CdPt,mp-1184966,0.0,2.98850134,0.002039351250000543,"{3: 2, 48: 1, 78: 1}","[3, 48, 78]",32481781,Li2Cd1Pt1
Li2CdAu,mp-865577,0.0,2.49125045,0.0,"{3: 2, 48: 1, 79: 1}","[3, 48, 79]",32481791,Li2Cd1Au1
Li2CdHg,mp-976114,0.0,2.02888082,0.0006501099999987048,"{3: 2, 48: 1, 80: 1}","[3, 48, 80]",32481801,Li2Cd1Hg1
Li2TlCd,mp-1222604,0.0,3.1358034,0.0017011562500002242,"{3: 2, 81: 1, 48: 1}","[3, 48, 81]",32481811,Li2Tl1Cd1
Li2CdPb,mp-11305,0.0,4.28671429,0.0,"{3: 2, 48: 1, 82: 1}","[3, 48, 82]",32481821,Li2Cd1Pb1
Li2CdBi,mp-1184983,0.0,3.46257823,0.014334680000001043,"{3: 2, 48: 1, 83: 1}","[3, 48, 83]",32481831,Li2Cd1Bi1
Li24Ti11CrO36,mp-779361,1.5560999999999998,2.07580571,0.003005990243046597,"{3: 24, 22: 11, 24: 1, 8: 36}","[3, 8, 22, 24]",3248362211241,Li24Ti11Cr1O36
Li24TiCr11O36,mp-779077,0.6848000000000001,3.13049663,0.01957645017360843,"{3: 24, 22: 1, 24: 11, 8: 36}","[3, 8, 22, 24]",3248362212411,Li24Ti1Cr11O36
Li24Ti5Cr7O36,mp-768398,0.9017999999999997,3.24305426,0.015511358645831308,"{3: 24, 22: 5, 24: 7, 8: 36}","[3, 8, 22, 24]",324836225247,Li24Ti5Cr7O36
Li24Ti7Cr5O36,mp-768392,1.3016,3.32264549,0.012362594965266815,"{3: 24, 22: 7, 24: 5, 8: 36}","[3, 8, 22, 24]",324836227245,Li24Ti7Cr5O36
Li24MnCr11O36,mp-1178077,1.004,2.15738075,0.023854639699075086,"{3: 24, 25: 1, 24: 11, 8: 36}","[3, 8, 24, 25]",3248362411251,Li24Mn1Cr11O36
Li24Mn11CrO36,mp-770492,1.2313,3.10689281,0.006596765763887014,"{3: 24, 25: 11, 24: 1, 8: 36}","[3, 8, 24, 25]",3248362412511,Li24Mn11Cr1O36
Li24Mn7Cr5O36,mp-777641,1.0745,2.17565042,0.031222303958339026,"{3: 24, 25: 7, 24: 5, 8: 36}","[3, 8, 24, 25]",324836245257,Li24Mn7Cr5O36
Li24Mn5Cr7O36,mp-768842,1.0553000000000001,2.05314489,0.035473222395839166,"{3: 24, 25: 5, 24: 7, 8: 36}","[3, 8, 24, 25]",324836247255,Li24Mn5Cr7O36
Li2In,mp-31324,0.0,4.10054438,0.0,"{3: 2, 49: 1}","[3, 49]",32491,Li2In1
Li2InSn,mp-865737,0.0,5.47595874,0.0,"{3: 2, 49: 1, 50: 1}","[3, 49, 50]",32491501,Li2In1Sn1
Li2InSb,mp-1097086,0.0,-2.72587465,1.3916034841666658,"{3: 2, 49: 1, 51: 1}","[3, 49, 51]",32491511,Li2In1Sb1
Li2LaIn,mp-866193,0.11169999999999991,5.25164104,0.0,"{3: 2, 57: 1, 49: 1}","[3, 49, 57]",32491571,Li2La1In1
Li2CeIn,mp-1185247,0.0,4.76080457,0.03698408107142903,"{3: 2, 58: 1, 49: 1}","[3, 49, 58]",32491581,Li2Ce1In1
Li2PrIn,mp-866196,0.0,3.60141222,0.0,"{3: 2, 59: 1, 49: 1}","[3, 49, 59]",32491591,Li2Pr1In1
Li2NdIn,mp-866181,0.0,3.59573033,0.0,"{3: 2, 60: 1, 49: 1}","[3, 49, 60]",32491601,Li2Nd1In1
Li2PmIn,mp-862930,0.0,3.5396612,0.0,"{3: 2, 61: 1, 49: 1}","[3, 49, 61]",32491611,Li2Pm1In1
Li2SmIn,mp-865882,0.0,3.55845586,0.0,"{3: 2, 62: 1, 49: 1}","[3, 49, 62]",32491621,Li2Sm1In1
Li2EuIn,mp-1184914,0.0,2.89913233,0.020645152544643608,"{3: 2, 63: 1, 49: 1}","[3, 49, 63]",32491631,Li2Eu1In1
Li2GdIn,mp-865483,0.0,3.51759303,0.0,"{3: 2, 64: 1, 49: 1}","[3, 49, 64]",32491641,Li2Gd1In1
Li2DyIn,mp-865580,0.0,3.80659102,0.0,"{3: 2, 66: 1, 49: 1}","[3, 49, 66]",32491661,Li2Dy1In1
Li2HoIn,mp-865622,0.0,3.81929126,0.0,"{3: 2, 67: 1, 49: 1}","[3, 49, 67]",32491671,Li2Ho1In1
Li2ErIn,mp-865579,0.0,3.82621079,0.0,"{3: 2, 68: 1, 49: 1}","[3, 49, 68]",32491681,Li2Er1In1
Li2TmIn,mp-865860,0.0,3.87332491,0.0,"{3: 2, 69: 1, 49: 1}","[3, 49, 69]",32491691,Li2Tm1In1
Li2LuIn,mp-1184968,9.999999999976694e-05,3.90261238,0.0013235644642861644,"{3: 2, 71: 1, 49: 1}","[3, 49, 71]",32491711,Li2Lu1In1
Li2InIr,mp-31443,0.0,5.4241082,0.004717784583331053,"{3: 2, 49: 1, 77: 1}","[3, 49, 77]",32491771,Li2In1Ir1
Li2InPt,mp-21026,0.0,4.82473178,0.0,"{3: 2, 49: 1, 78: 1}","[3, 49, 78]",32491781,Li2In1Pt1
Li2InAu,mp-30392,0.0,5.34691657,0.0,"{3: 2, 49: 1, 79: 1}","[3, 49, 79]",32491791,Li2In1Au1
Li2InHg,mp-1184978,0.0,3.93035856,0.00892313749999829,"{3: 2, 49: 1, 80: 1}","[3, 49, 80]",32491801,Li2In1Hg1
Li2TlIn,mp-1184958,0.0,5.11450745,0.010182938125002039,"{3: 2, 81: 1, 49: 1}","[3, 49, 81]",32491811,Li2Tl1In1
Li2InPb,mp-1184985,0.0,5.22073869,0.0027709864473690615,"{3: 2, 49: 1, 82: 1}","[3, 49, 82]",32491821,Li2In1Pb1
Li2InBi,mp-1184972,0.00039999999999995595,4.71032187,0.005973699305555247,"{3: 2, 49: 1, 83: 1}","[3, 49, 83]",32491831,Li2In1Bi1
Li2AcIn,mp-865897,0.0,4.56304738,0.0,"{3: 2, 89: 1, 49: 1}","[3, 49, 89]",32491891,Li2Ac1In1
Li2LaSn,mp-861894,0.0,6.37936628,0.0,"{3: 2, 57: 1, 50: 1}","[3, 50, 57]",32501571,Li2La1Sn1
Li2CeSn,mp-1185039,0.0,6.14464694,0.047086038596591884,"{3: 2, 58: 1, 50: 1}","[3, 50, 58]",32501581,Li2Ce1Sn1
Li2PmSn,mp-862935,0.0,4.78866282,0.0,"{3: 2, 61: 1, 50: 1}","[3, 50, 61]",32501611,Li2Pm1Sn1
Li2EuSn,mp-867474,0.0,3.61278078,0.0,"{3: 2, 63: 1, 50: 1}","[3, 50, 63]",32501631,Li2Eu1Sn1
Li2SnIr,mp-1222612,0.0,5.94838765,0.0,"{3: 2, 50: 1, 77: 1}","[3, 50, 77]",32501771,Li2Sn1Ir1
Li2SnPt,mp-1222607,0.0,5.47395941,0.0,"{3: 2, 50: 1, 78: 1}","[3, 50, 78]",32501781,Li2Sn1Pt1
Li2SnAu,mp-30405,0.0,6.07598557,0.0,"{3: 2, 50: 1, 79: 1}","[3, 50, 79]",32501791,Li2Sn1Au1
Li2SnHg,mp-975578,0.0,4.37426687,0.010015364999999221,"{3: 2, 50: 1, 80: 1}","[3, 50, 80]",32501801,Li2Sn1Hg1
Li2TlSn,mp-975780,0.0,5.12348948,0.00692713083333274,"{3: 2, 81: 1, 50: 1}","[3, 50, 81]",32501811,Li2Tl1Sn1
Li2SnPb,mp-1184991,0.0,5.21553032,0.0011723175000000197,"{3: 2, 50: 1, 82: 1}","[3, 50, 82]",32501821,Li2Sn1Pb1
Li2SnBi,mp-1093592,0.08789999999999987,-3.0466871,1.3985018887499996,"{3: 2, 50: 1, 83: 1}","[3, 50, 83]",32501831,Li2Sn1Bi1
Li2AcSn,mp-865913,0.0,5.72348684,0.0,"{3: 2, 89: 1, 50: 1}","[3, 50, 89]",32501891,Li2Ac1Sn1
Li2Sn2Au,mp-31496,0.0,5.03362311,0.0,"{3: 2, 50: 2, 79: 1}","[3, 50, 79]",32502791,Li2Sn2Au1
Li2Sn5,mp-7924,0.0,6.26241816,0.0046469228571428545,"{3: 2, 50: 5}","[3, 50]",32505,Li2Sn5
Li2Ce5Sn7,mp-1212397,0.0,7.20420576,0.0,"{3: 2, 58: 5, 50: 7}","[3, 50, 58]",32507585,Li2Ce5Sn7
Li2Pr5Sn7,mp-1211048,0.0,5.68050045,0.0,"{3: 2, 59: 5, 50: 7}","[3, 50, 59]",32507595,Li2Pr5Sn7
Li2Sm5Sn7,mp-1197729,0.0,5.67149421,0.0,"{3: 2, 62: 5, 50: 7}","[3, 50, 62]",32507625,Li2Sm5Sn7
Li2Eu5Sn7,mp-1212398,0.0,4.77176368,0.020114945535715023,"{3: 2, 63: 5, 50: 7}","[3, 50, 63]",32507635,Li2Eu5Sn7
Li2B,mp-1222698,0.0,2.51781426,0.4772190655555555,"{3: 2, 5: 1}","[3, 5]",3251,Li2B1
Li2Sb,mp-1545896,0.0,3.45244996,0.0,"{3: 2, 51: 1}","[3, 51]",32511,Li2Sb1
CsLi2BS3,mp-559238,3.0936,1.03402792,0.0,"{55: 1, 3: 2, 5: 1, 16: 3}","[3, 5, 16, 55]",3251163551,Cs1Li2B1S3
Li2SbPt,mp-3158,0.0,6.39937755,0.0,"{3: 2, 51: 1, 78: 1}","[3, 51, 78]",32511781,Li2Sb1Pt1
Li2SbAu,mp-30404,0.0,6.0566162,0.0,"{3: 2, 51: 1, 79: 1}","[3, 51, 79]",32511791,Li2Sb1Au1
Li2HgSb,mp-1096299,0.0,-2.65480228,1.0650245941666654,"{3: 2, 80: 1, 51: 1}","[3, 51, 80]",32511801,Li2Hg1Sb1
Li2TlSb,mp-1184973,0.6976000000000004,5.14919396,0.027927600119042495,"{3: 2, 81: 1, 51: 1}","[3, 51, 81]",32511811,Li2Tl1Sb1
Li2Mg10B12Rh19,mp-1211708,0.0,6.3880939,0.0,"{3: 2, 12: 10, 5: 12, 45: 19}","[3, 5, 12, 45]",3251212104519,Li2Mg10B12Rh19
Li2CeSb2,mp-20779,0.0,6.33427271,0.10159560933333367,"{3: 2, 58: 1, 51: 2}","[3, 51, 58]",32512581,Li2Ce1Sb2
Li2PrSb2,mp-22446,0.0,5.53630143,0.09363093166667014,"{3: 2, 59: 1, 51: 2}","[3, 51, 59]",32512591,Li2Pr1Sb2
Li2NdSb2,mp-20106,0.0,5.49362849,0.10610250066666538,"{3: 2, 60: 1, 51: 2}","[3, 51, 60]",32512601,Li2Nd1Sb2
Sr4Li2B12O23,mp-1020725,4.6951,2.13609458,0.004719955447168189,"{38: 4, 3: 2, 5: 12, 8: 23}","[3, 5, 8, 38]",32512823384,Sr4Li2B12O23
Li2BPd3,mp-20657,0.0,3.51535824,0.0,"{3: 2, 5: 1, 46: 3}","[3, 5, 46]",3251463,Li2B1Pd3
Li2BPCO7,mp-756641,5.3729,0.67475073,0.09815676393228934,"{3: 2, 5: 1, 15: 1, 6: 1, 8: 7}","[3, 5, 6, 8, 15]",32516187151,Li2B1P1C1O7
Li2BPt3,mp-20234,0.0,4.77857463,0.0,"{3: 2, 5: 1, 78: 3}","[3, 5, 78]",3251783,Li2B1Pt3
NaLi2BO3,mp-560189,3.8727,0.75362855,0.0,"{11: 1, 3: 2, 5: 1, 8: 3}","[3, 5, 8, 11]",325183111,Na1Li2B1O3
KLi2BO3,mp-558628,3.999,-0.02278641,0.0,"{19: 1, 3: 2, 5: 1, 8: 3}","[3, 5, 8, 19]",325183191,K1Li2B1O3
Li2AlBO4,mp-556655,4.864,0.63169094,0.01399157562499731,"{3: 2, 13: 1, 5: 1, 8: 4}","[3, 5, 8, 13]",325184131,Li2Al1B1O4
Li2VBO4,mp-768177,1.8957,1.66049741,0.0786583765624993,"{3: 2, 23: 1, 5: 1, 8: 4}","[3, 5, 8, 23]",325184231,Li2V1B1O4