formula,material_id,band_gap,efermi,energy_above_hull,comp_atoms,sorted_keys_comp_atoms,comp_number,new_formula
LiV8O16,mp-1235320,0.0,1.85444869,0.16120114229998883,"{3: 1, 23: 8, 8: 16}","[3, 8, 23]",31816238,Li1V8O16
LiMn8O16,mp-1016165,0.0,2.1551072,0.025847975436677828,"{3: 1, 25: 8, 8: 16}","[3, 8, 25]",31816258,Li1Mn8O16
LiCo15O16,mp-765515,0.0,4.46262535,0.5450274857812509,"{3: 1, 27: 15, 8: 16}","[3, 8, 27]",318162715,Li1Co15O16
SrLiLa7(CoO8)2,mp-779308,0.3617999999999997,6.26167342,0.021962448110525834,"{38: 1, 3: 1, 57: 7, 27: 2, 8: 16}","[3, 8, 27, 38, 57]",31816272381577,Sr1Li1La7Co2O16
Li(CoO2)8,mp-674388,0.4759000000000002,1.12821024,0.032682389750001484,"{3: 1, 27: 8, 8: 16}","[3, 8, 27]",31816278,Li1Co8O16
Rb3LiZn2(MoO4)4,mp-697222,3.7764,-0.86566845,0.002276764038466439,"{37: 3, 3: 1, 30: 2, 42: 4, 8: 16}","[3, 8, 30, 37, 42]",31816302373424,Rb3Li1Zn2Mo4O16
RbLiNd2(MoO4)4,mp-630867,3.4112999999999998,0.71110817,0.009076285000011453,"{37: 1, 3: 1, 60: 2, 42: 4, 8: 16}","[3, 8, 37, 42, 60]",31816371424602,Rb1Li1Nd2Mo4O16
RbLiBi2(MoO4)4,mp-650024,2.5914,1.48325649,0.003613617812508352,"{37: 1, 3: 1, 83: 2, 42: 4, 8: 16}","[3, 8, 37, 42, 83]",31816371424832,Rb1Li1Bi2Mo4O16
Rb2LiPr2(WO4)4,mp-1235138,2.0641,2.65560556,0.02793013613333528,"{37: 2, 3: 1, 59: 2, 74: 4, 8: 16}","[3, 8, 37, 59, 74]",31816372592744,Rb2Li1Pr2W4O16
Rb2LiNd2(WO4)4,mp-1235477,2.0568999999999997,2.57212876,0.035953626773327585,"{37: 2, 3: 1, 60: 2, 74: 4, 8: 16}","[3, 8, 37, 60, 74]",31816372602744,Rb2Li1Nd2W4O16
LiNd2Tl(MoO4)4,mp-630880,2.9659000000000004,1.58506829,0.007120004791676848,"{3: 1, 60: 2, 81: 1, 42: 4, 8: 16}","[3, 8, 42, 60, 81]",31816424602811,Li1Nd2Tl1Mo4O16
LiHo2Ag2(WO4)4,mp-1235646,0.0046000000000003816,3.69320293,0.11467002650832114,"{3: 1, 67: 2, 47: 2, 74: 4, 8: 16}","[3, 8, 47, 67, 74]",31816472672744,Li1Ho2Ag2W4O16
Cs2LiTm2(WO4)4,mp-1235075,2.2391,2.77192517,0.06556464837500897,"{55: 2, 3: 1, 69: 2, 74: 4, 8: 16}","[3, 8, 55, 69, 74]",31816552692744,Cs2Li1Tm2W4O16
LiEr2Tl2(WO4)4,mp-1235802,1.9454000000000002,3.21444174,0.04524731165833451,"{3: 1, 68: 2, 81: 2, 74: 4, 8: 16}","[3, 8, 68, 74, 81]",31816682744812,Li1Er2Tl2W4O16
Na2LiLa3Ti6O18,mp-676447,1.8129,4.31708711,0.025497709541644653,"{11: 2, 3: 1, 57: 3, 22: 6, 8: 18}","[3, 8, 11, 22, 57]",31818112226573,Na2Li1La3Ti6O18
Na5LiV6O18,mp-774894,0.49480000000000013,1.09319893,0.008317787833332702,"{11: 5, 3: 1, 23: 6, 8: 18}","[3, 8, 11, 23]",31818115236,Na5Li1V6O18
LiSb2P5O18,mp-673090,0.039200000000000124,3.08804901,0.07049709112178881,"{3: 1, 51: 2, 15: 5, 8: 18}","[3, 8, 15, 51]",31818155512,Li1Sb2P5O18
LiBi2P5O18,mp-672993,0.0,0.6637643,0.12474473403843689,"{3: 1, 83: 2, 15: 5, 8: 18}","[3, 8, 15, 83]",31818155832,Li1Bi2P5O18
KLi(WO3)6,mp-775511,0.0,2.31348671,0.04307625242647717,"{19: 1, 3: 1, 74: 6, 8: 18}","[3, 8, 19, 74]",31818191746,K1Li1W6O18
LiNb10O18,mp-772085,0.05449999999999999,4.08645942,0.01833900675287481,"{3: 1, 41: 10, 8: 18}","[3, 8, 41]",318184110,Li1Nb10O18
LiV3OF11,mp-777269,1.4645000000000001,-1.34456881,0.029473866979163432,"{3: 1, 23: 3, 8: 1, 9: 11}","[3, 8, 9, 23]",3181911233,Li1V3O1F11
LiV4OF11,mp-779753,1.3346999999999998,0.41642065,0.04095376441176146,"{3: 1, 23: 4, 8: 1, 9: 11}","[3, 8, 9, 23]",3181911234,Li1V4O1F11
LiCoOF,mp-760241,0.0,3.41131044,0.17197119437499975,"{3: 1, 27: 1, 8: 1, 9: 1}","[3, 8, 9, 27]",318191271,Li1Co1O1F1
LiNiOF,mp-753559,1.9612000000000003,3.80103717,0.03955985687499908,"{3: 1, 28: 1, 8: 1, 9: 1}","[3, 8, 9, 28]",318191281,Li1Ni1O1F1
LiV3P5O19,mp-758286,0.6828,0.79039781,0.07911785089284429,"{3: 1, 23: 3, 15: 5, 8: 19}","[3, 8, 15, 23]",31819155233,Li1V3P5O19
LiP5W3O19,mp-763535,0.6863000000000001,1.87397698,0.0970298148214539,"{3: 1, 15: 5, 74: 3, 8: 19}","[3, 8, 15, 74]",31819155743,Li1P5W3O19
LiVOF2,mp-759150,1.3431999999999997,1.44987488,0.020925688249990415,"{3: 1, 23: 1, 8: 1, 9: 2}","[3, 8, 9, 23]",318192231,Li1V1O1F2
LiMnOF2,mp-776488,0.9907999999999999,0.46248086,0.02792588041666111,"{3: 1, 25: 1, 8: 1, 9: 2}","[3, 8, 9, 25]",318192251,Li1Mn1O1F2
LiCoOF2,mp-850916,0.0,0.78282921,0.11701887700000047,"{3: 1, 27: 1, 8: 1, 9: 2}","[3, 8, 9, 27]",318192271,Li1Co1O1F2
LiNiOF2,mp-761152,2.5803999999999996,2.17495934,0.10936956266665288,"{3: 1, 28: 1, 8: 1, 9: 2}","[3, 8, 9, 28]",318192281,Li1Ni1O1F2
LiVOF3,mp-765230,1.1322,-0.9028468,0.014901510000016494,"{3: 1, 23: 1, 8: 1, 9: 3}","[3, 8, 9, 23]",318193231,Li1V1O1F3
LiMn2OF3,mp-756757,1.4924000000000002,1.57749013,0.06781499499999821,"{3: 1, 25: 2, 8: 1, 9: 3}","[3, 8, 9, 25]",318193252,Li1Mn2O1F3
LiCo2OF3,mp-765718,1.8536000000000001,1.22317569,0.059307925357142466,"{3: 1, 27: 2, 8: 1, 9: 3}","[3, 8, 9, 27]",318193272,Li1Co2O1F3
LiNi2OF3,mp-765582,2.2779000000000003,2.24949656,0.06605649678570469,"{3: 1, 28: 2, 8: 1, 9: 3}","[3, 8, 9, 28]",318193282,Li1Ni2O1F3
LiVOF4,mp-760189,3.0138,-2.86346922,0.018203107916673567,"{3: 1, 23: 1, 8: 1, 9: 4}","[3, 8, 9, 23]",318194231,Li1V1O1F4
LiV2OF5,mp-753339,1.6237999999999997,1.29900004,0.050257647222225366,"{3: 1, 23: 2, 8: 1, 9: 5}","[3, 8, 9, 23]",318195232,Li1V2O1F5
LiMn2OF5,mp-761120,0.5221,0.27683979,0.04460027439814418,"{3: 1, 25: 2, 8: 1, 9: 5}","[3, 8, 9, 25]",318195252,Li1Mn2O1F5
LiMn3OF5,mp-761133,2.2655000000000003,1.40028446,0.0820184342500001,"{3: 1, 25: 3, 8: 1, 9: 5}","[3, 8, 9, 25]",318195253,Li1Mn3O1F5
LiCo2OF5,mp-780316,0.8738,0.04755343,0.09413874055555915,"{3: 1, 27: 2, 8: 1, 9: 5}","[3, 8, 9, 27]",318195272,Li1Co2O1F5
LiCo3OF5,mp-760399,2.4933,1.06398922,0.08294688975000053,"{3: 1, 27: 3, 8: 1, 9: 5}","[3, 8, 9, 27]",318195273,Li1Co3O1F5
LiNi3OF5,mp-753317,3.2492,1.94671691,0.09777873724999253,"{3: 1, 28: 3, 8: 1, 9: 5}","[3, 8, 9, 28]",318195283,Li1Ni3O1F5
LiV2OF7,mp-1285272,1.8637000000000001,-1.16063505,0.05152518878788026,"{3: 1, 23: 2, 8: 1, 9: 7}","[3, 8, 9, 23]",318197232,Li1V2O1F7
LiMn3OF8,mp-759751,0.2583,-0.67206991,0.08438314746795061,"{3: 1, 25: 3, 8: 1, 9: 8}","[3, 8, 9, 25]",318198253,Li1Mn3O1F8
LiO2,mp-1018789,0.0,1.04620583,0.08308098404761921,"{3: 1, 8: 2}","[3, 8]",3182,Li1O2
LiU4P3O20,mp-555232,1.58,1.36604403,0.0,"{3: 1, 92: 4, 15: 3, 8: 20}","[3, 8, 15, 92]",31820153924,Li1U4P3O20
LiV3(P3O10)2,mp-25911,2.0598,1.05253204,0.04270848050000531,"{3: 1, 23: 3, 15: 6, 8: 20}","[3, 8, 15, 23]",31820156233,Li1V3P6O20
LiCr3(P3O10)2,mp-779048,1.7223,0.35011469,0.07610614833334317,"{3: 1, 24: 3, 15: 6, 8: 20}","[3, 8, 15, 24]",31820156243,Li1Cr3P6O20
LiMn3(P3O10)2,mp-758642,0.24580000000000002,0.85251241,0.04041550841667263,"{3: 1, 25: 3, 15: 6, 8: 20}","[3, 8, 15, 25]",31820156253,Li1Mn3P6O20
LiCo3(P3O10)2,mp-26567,0.9597,0.06481012,0.052907116124998765,"{3: 1, 27: 3, 15: 6, 8: 20}","[3, 8, 15, 27]",31820156273,Li1Co3P6O20
LiSn3(P3O10)2,mp-765222,0.0,2.66662049,0.08082397510416328,"{3: 1, 50: 3, 15: 6, 8: 20}","[3, 8, 15, 50]",31820156503,Li1Sn3P6O20
LiSb3(P3O10)2,mp-762248,2.8455,1.69081689,0.09730735066667417,"{3: 1, 51: 3, 15: 6, 8: 20}","[3, 8, 15, 51]",31820156513,Li1Sb3P6O20
LiBi3(P3O10)2,mp-759396,3.9787,0.38191894,0.06586339283333409,"{3: 1, 83: 3, 15: 6, 8: 20}","[3, 8, 15, 83]",31820156833,Li1Bi3P6O20
LiTi11O20,mp-772108,0.0,5.18704452,0.015880801015631718,"{3: 1, 22: 11, 8: 20}","[3, 8, 22]",318202211,Li1Ti11O20
LiMn10O20,mp-766948,0.0,2.50851473,0.04956340239516699,"{3: 1, 25: 10, 8: 20}","[3, 8, 25]",318202510,Li1Mn10O20
LiU4As3O20,mp-1223108,1.8788,2.51827702,0.0,"{3: 1, 92: 4, 33: 3, 8: 20}","[3, 8, 33, 92]",31820333924,Li1U4As3O20
Li(Bi3O5)4,mp-769006,0.0,4.31931299,0.08436550696970802,"{3: 1, 83: 12, 8: 20}","[3, 8, 83]",318208312,Li1Bi12O20
LiPb,mp-2314,0.0,4.96732259,0.0,"{3: 1, 82: 1}","[3, 82]",31821,Li1Pb1
LiMn4(P2O7)3,mp-776632,0.0,1.46457368,0.044643835625013395,"{3: 1, 25: 4, 15: 6, 8: 21}","[3, 8, 15, 25]",31821156254,Li1Mn4P6O21
LiNi4(P2O7)3,mp-779757,0.0,0.84419277,0.11507800976560922,"{3: 1, 28: 4, 15: 6, 8: 21}","[3, 8, 15, 28]",31821156284,Li1Ni4P6O21
LiAlO2,mp-8001,6.1183000000000005,4.08666556,0.0,"{3: 1, 13: 1, 8: 2}","[3, 8, 13]",3182131,Li1Al1O2
LiPr2Zn2(PO)2,mp-1235849,0.0,5.54399389,0.11366905704166896,"{3: 1, 59: 2, 30: 2, 15: 2, 8: 2}","[3, 8, 15, 30, 59]",3182152302592,Li1Pr2Zn2P2O2
LiSm2SO2,mp-1235642,0.0,5.59220096,0.20194364777777984,"{3: 1, 62: 2, 16: 1, 8: 2}","[3, 8, 16, 62]",3182161622,Li1Sm2S1O2
LiTi(SO)2,mp-1077164,0.0,1.86533226,0.9495674657954511,"{3: 1, 22: 1, 16: 2, 8: 2}","[3, 8, 16, 22]",3182162221,Li1Ti1S2O2
LiTmU2S3O2,mp-1235285,0.0,7.42391159,0.14668232402778614,"{3: 1, 69: 1, 92: 2, 16: 3, 8: 2}","[3, 8, 16, 69, 92]",3182163691922,Li1Tm1U2S3O2
LiClO2,mp-31367,2.6926,0.51144186,0.19250928968749825,"{3: 1, 17: 1, 8: 2}","[3, 8, 17]",3182171,Li1Cl1O2
LiTm2(ClO)2,mp-1236076,0.0,5.38185205,0.3976651124999968,"{3: 1, 69: 2, 17: 2, 8: 2}","[3, 8, 17, 69]",3182172692,Li1Tm2Cl2O2
Rb2LiPu(Cl2O)2,mp-1235786,0.35330000000000006,0.99177607,0.037312818999994946,"{37: 2, 3: 1, 94: 1, 17: 4, 8: 2}","[3, 8, 17, 37, 94]",3182174372941,Rb2Li1Pu1Cl4O2
LiAc2Pb,mp-1185294,0.0,5.66691849,0.0,"{3: 1, 89: 2, 82: 1}","[3, 82, 89]",31821892,Li1Ac2Pb1
KLiMnO2,mp-549671,0.0,2.75006077,0.0,"{19: 1, 3: 1, 25: 1, 8: 2}","[3, 8, 19, 25]",3182191251,K1Li1Mn1O2
KLiCoO2,mp-753408,1.262,1.83597272,0.009855603562503035,"{19: 1, 3: 1, 27: 1, 8: 2}","[3, 8, 19, 27]",3182191271,K1Li1Co1O2
KLiNiO2,mp-774921,1.791,1.62284161,0.05653696149999998,"{19: 1, 3: 1, 28: 1, 8: 2}","[3, 8, 19, 28]",3182191281,K1Li1Ni1O2
KLiZnO2,mp-551092,2.0766,0.52147685,0.0,"{19: 1, 3: 1, 30: 1, 8: 2}","[3, 8, 19, 30]",3182191301,K1Li1Zn1O2
KLiSnO2,mp-1178142,2.0401,3.77894223,0.030246993000004885,"{19: 1, 3: 1, 50: 1, 8: 2}","[3, 8, 19, 50]",3182191501,K1Li1Sn1O2
LiScO2,mp-5840,3.904,2.00849876,0.0,"{3: 1, 21: 1, 8: 2}","[3, 8, 21]",3182211,Li1Sc1O2
LiMo4(P2O11)2,mp-585261,0.21989999999999987,1.11595117,0.018698435544371783,"{3: 1, 42: 4, 15: 4, 8: 22}","[3, 8, 15, 42]",31822154424,Li1Mo4P4O22
LiTiO2,mp-38280,0.0,6.39505234,0.0,"{3: 1, 22: 1, 8: 2}","[3, 8, 22]",3182221,Li1Ti1O2
LiTi(SeO)2,mp-1072633,0.0,2.00526122,1.318148833164063,"{3: 1, 22: 1, 34: 2, 8: 2}","[3, 8, 22, 34]",3182221342,Li1Ti1Se2O2
LiV9O22,mp-767268,0.0,1.73737093,0.045902693125011496,"{3: 1, 23: 9, 8: 22}","[3, 8, 23]",31822239,Li1V9O22
LiVO2,mp-19340,0.0,5.02913729,0.0,"{3: 1, 23: 1, 8: 2}","[3, 8, 23]",3182231,Li1V1O2
LiCrO2,mp-18793,3.1156,2.86844198,0.0,"{3: 1, 24: 1, 8: 2}","[3, 8, 24]",3182241,Li1Cr1O2
LiMnO2,mp-754656,1.1503999999999999,2.95363263,0.0,"{3: 1, 25: 1, 8: 2}","[3, 8, 25]",3182251,Li1Mn1O2
LiCoO2,mp-22526,0.6623000000000001,3.95624374,0.0,"{3: 1, 27: 1, 8: 2}","[3, 8, 27]",3182271,Li1Co1O2
LiNiO2,mp-2348641,0.016900000000000137,3.40033712,0.0,"{3: 1, 28: 1, 8: 2}","[3, 8, 28]",3182281,Li1Ni1O2
LiPb3,mp-1185275,0.0,5.72202825,0.0203805325000026,"{3: 1, 82: 3}","[3, 82]",31823,Li1Pb3
LiZnO2,mp-760408,0.0,1.05294865,0.079787155,"{3: 1, 30: 1, 8: 2}","[3, 8, 30]",3182301,Li1Zn1O2
LiGaO2,mp-5854,3.1981,0.3076022,0.0,"{3: 1, 31: 1, 8: 2}","[3, 8, 31]",3182311,Li1Ga1O2
LiZr2(SeO)2,mp-1235441,0.0,5.16802762,0.11202455500000141,"{3: 1, 40: 2, 34: 2, 8: 2}","[3, 8, 34, 40]",3182342402,Li1Zr2Se2O2
RbLiAgO2,mp-1236284,0.0,1.38960837,0.20669327274999993,"{37: 1, 3: 1, 47: 1, 8: 2}","[3, 8, 37, 47]",3182371471,Rb1Li1Ag1O2
LiZrO2,mp-755253,0.0,5.66873304,0.055770417812501805,"{3: 1, 40: 1, 8: 2}","[3, 8, 40]",3182401,Li1Zr1O2
LiNbO2,mp-3924,1.5794999999999995,5.22817792,0.0,"{3: 1, 41: 1, 8: 2}","[3, 8, 41]",3182411,Li1Nb1O2
Na2LiTi3Al(PO4)6,mp-769074,2.5088,1.36569504,0.012859604505403688,"{11: 2, 3: 1, 22: 3, 13: 1, 15: 6, 8: 24}","[3, 8, 11, 13, 15, 22]",31824112131156223,Na2Li1Ti3Al1P6O24
Na3LiGa4(SiO3)8,mp-1221279,4.225899999999999,2.41604563,0.030115796624992086,"{11: 3, 3: 1, 31: 4, 14: 8, 8: 24}","[3, 8, 11, 14, 31]",31824113148314,Na3Li1Ga4Si8O24
LiMgAl3(SO4)6,mp-1265272,5.8981,6.85204135,0.010881153035708913,"{3: 1, 12: 1, 13: 3, 16: 6, 8: 24}","[3, 8, 12, 13, 16]",31824121133166,Li1Mg1Al3S6O24
LiMgAl3(SeO4)6,mp-532676,2.9775,0.29362341,0.008619836809521608,"{3: 1, 12: 1, 13: 3, 34: 6, 8: 24}","[3, 8, 12, 13, 34]",31824121133346,Li1Mg1Al3Se6O24
LiMgCr3Se2(SO6)4,mp-769552,2.2407,0.17065179,0.001720190222207485,"{3: 1, 12: 1, 24: 3, 34: 2, 16: 4, 8: 24}","[3, 8, 12, 16, 24, 34]",31824121164243342,Li1Mg1Cr3Se2S4O24
LiMgCr3(SO4)6,mp-694995,2.4919,0.50510127,0.007706538892850112,"{3: 1, 12: 1, 24: 3, 16: 6, 8: 24}","[3, 8, 12, 16, 24]",31824121166243,Li1Mg1Cr3S6O24
LiMg4Al(MoO4)6,mp-1222638,3.4516,-0.06410025,0.0,"{3: 1, 12: 4, 13: 1, 42: 6, 8: 24}","[3, 8, 12, 13, 42]",31824124131426,Li1Mg4Al1Mo6O24
LiMg6Sc(SiO3)8,mp-695000,3.2110999999999996,6.93665799,0.2614527124166681,"{3: 1, 12: 6, 21: 1, 14: 8, 8: 24}","[3, 8, 12, 14, 21]",31824126148211,Li1Mg6Sc1Si8O24
K2LiNb6(PO8)3,mp-695505,2.2981,-0.06420022,0.0,"{19: 2, 3: 1, 41: 6, 15: 3, 8: 24}","[3, 8, 15, 19, 41]",31824153192416,K2Li1Nb6P3O24
K2LiTa6(PO8)3,mp-684817,3.0471,0.246599,0.0,"{19: 2, 3: 1, 73: 6, 15: 3, 8: 24}","[3, 8, 15, 19, 73]",31824153192736,K2Li1Ta6P3O24
LiTi3V(PO4)6,mp-757374,1.2412999999999998,0.76256542,0.014664702642848582,"{3: 1, 22: 3, 23: 1, 15: 6, 8: 24}","[3, 8, 15, 22, 23]",31824156223231,Li1Ti3V1P6O24
LiTi3MnCr(PO4)6,mp-771567,2.1254,1.31128425,0.00011368611109929816,"{3: 1, 22: 3, 25: 1, 24: 1, 15: 6, 8: 24}","[3, 8, 15, 22, 24, 25]",31824156223241251,Li1Ti3Mn1Cr1P6O24
LiTi3Nb(PO4)6,mp-757758,2.5172999999999996,0.59655976,0.012087736571405827,"{3: 1, 22: 3, 41: 1, 15: 6, 8: 24}","[3, 8, 15, 22, 41]",31824156223411,Li1Ti3Nb1P6O24
LiTi3Sb(PO4)6,mp-766098,2.4673,0.95135896,0.005811325142847323,"{3: 1, 22: 3, 51: 1, 15: 6, 8: 24}","[3, 8, 15, 22, 51]",31824156223511,Li1Ti3Sb1P6O24
LiTi4Mn(PO4)6,mp-704600,0.0,3.74370836,0.0036614477976417703,"{3: 1, 22: 4, 25: 1, 15: 6, 8: 24}","[3, 8, 15, 22, 25]",31824156224251,Li1Ti4Mn1P6O24
LiVCo3(PO4)6,mp-768928,0.0,0.49316813,0.1275692671428592,"{3: 1, 23: 1, 27: 3, 15: 6, 8: 24}","[3, 8, 15, 23, 27]",31824156231273,Li1V1Co3P6O24
LiVSn3(PO4)6,mp-770969,1.3638000000000001,1.18603096,0.024752763285729174,"{3: 1, 23: 1, 50: 3, 15: 6, 8: 24}","[3, 8, 15, 23, 50]",31824156231503,Li1V1Sn3P6O24
LiNbCo3(PO4)6,mp-1176608,0.0761,-0.25739024,0.10136229510318362,"{3: 1, 41: 1, 27: 3, 15: 6, 8: 24}","[3, 8, 15, 27, 41]",31824156273411,Li1Nb1Co3P6O24
LiCo3Sb(PO4)6,mp-764378,0.0,2.48584725,0.08832375328572084,"{3: 1, 27: 3, 51: 1, 15: 6, 8: 24}","[3, 8, 15, 27, 51]",31824156273511,Li1Co3Sb1P6O24
LiNbSn3(PO4)6,mp-767091,2.7647,1.07435257,0.012371285666666232,"{3: 1, 41: 1, 50: 3, 15: 6, 8: 24}","[3, 8, 15, 41, 50]",31824156411503,Li1Nb1Sn3P6O24
LiSn3Sb(PO4)6,mp-761694,2.5894,1.59236401,0.00791999099997387,"{3: 1, 50: 3, 51: 1, 15: 6, 8: 24}","[3, 8, 15, 50, 51]",31824156503511,Li1Sn3Sb1P6O24
LiV4P7O24,mp-1101513,1.8439999999999999,1.91693319,0.01522357861111523,"{3: 1, 23: 4, 15: 7, 8: 24}","[3, 8, 15, 23]",31824157234,Li1V4P7O24
LiV6P7O24,mp-26765,2.4016,6.55097656,0.03548219618419779,"{3: 1, 23: 6, 15: 7, 8: 24}","[3, 8, 15, 23]",31824157236,Li1V6P7O24
LiCr4P7O24,mp-1101527,2.1690999999999994,1.87262505,0.03425837180555469,"{3: 1, 24: 4, 15: 7, 8: 24}","[3, 8, 15, 24]",31824157244,Li1Cr4P7O24
LiCr6P7O24,mp-504358,2.3798,5.65980903,0.02156793179509897,"{3: 1, 24: 6, 15: 7, 8: 24}","[3, 8, 15, 24]",31824157246,Li1Cr6P7O24
LiMn4P7O24,mp-1101573,0.9861999999999997,2.20504333,0.019153918819450944,"{3: 1, 25: 4, 15: 7, 8: 24}","[3, 8, 15, 25]",31824157254,Li1Mn4P7O24
LiMn6P7O24,mp-26005,3.3554000000000004,5.8588744,0.0,"{3: 1, 25: 6, 15: 7, 8: 24}","[3, 8, 15, 25]",31824157256,Li1Mn6P7O24
LiCo6P7O24,mp-31557,0.0,3.62651263,0.013437059177639377,"{3: 1, 27: 6, 15: 7, 8: 24}","[3, 8, 15, 27]",31824157276,Li1Co6P7O24
LiNi4P7O24,mp-705375,0.0,0.75084195,0.08493931319443959,"{3: 1, 28: 4, 15: 7, 8: 24}","[3, 8, 15, 28]",31824157284,Li1Ni4P7O24
LiNi6P7O24,mp-504371,0.30180000000000007,3.71178553,0.014349232368425113,"{3: 1, 28: 6, 15: 7, 8: 24}","[3, 8, 15, 28]",31824157286,Li1Ni6P7O24
LiMo4P7O24,mp-585332,3.4072999999999998,2.36899485,0.00945013896090785,"{3: 1, 42: 4, 15: 7, 8: 24}","[3, 8, 15, 42]",31824157424,Li1Mo4P7O24
LiSn4P7O24,mp-757967,0.3184,2.9678414,0.08792975108796242,"{3: 1, 50: 4, 15: 7, 8: 24}","[3, 8, 15, 50]",31824157504,Li1Sn4P7O24
LiSn6P7O24,mp-684052,2.3277,3.04104335,0.05968410326753926,"{3: 1, 50: 6, 15: 7, 8: 24}","[3, 8, 15, 50]",31824157506,Li1Sn6P7O24
LiSb4P7O24,mp-759607,3.3890000000000002,1.83262503,0.0626665973611189,"{3: 1, 51: 4, 15: 7, 8: 24}","[3, 8, 15, 51]",31824157514,Li1Sb4P7O24
LiBi4P7O24,mp-759254,3.8273,4.94901155,0.057514898749999155,"{3: 1, 83: 4, 15: 7, 8: 24}","[3, 8, 15, 83]",31824157834,Li1Bi4P7O24
LiCr3Ni(SO4)6,mp-766088,2.0799000000000003,0.81513948,0.009440651035713898,"{3: 1, 24: 3, 28: 1, 16: 6, 8: 24}","[3, 8, 16, 24, 28]",31824166243281,Li1Cr3Ni1S6O24
LiZnCr3(SO4)6,mp-532759,0.0,3.24603171,0.00955536753571895,"{3: 1, 30: 1, 24: 3, 16: 6, 8: 24}","[3, 8, 16, 24, 30]",31824166243301,Li1Zn1Cr3S6O24
K3LiMn4(MoO4)6,mp-725121,2.576,0.351668,0.0,"{19: 3, 3: 1, 25: 4, 42: 6, 8: 24}","[3, 8, 19, 25, 42]",31824193254426,K3Li1Mn4Mo6O24
LiMoO2,mp-19338,0.0,6.18708246,0.03250705218749772,"{3: 1, 42: 1, 8: 2}","[3, 8, 42]",3182421,Li1Mo1O2
LiLa5Ti8O24,mp-560293,1.9695,4.26434755,0.02794537539473474,"{3: 1, 57: 5, 22: 8, 8: 24}","[3, 8, 22, 57]",31824228575,Li1La5Ti8O24
LiMn12O24,mp-694894,0.0,2.43675927,0.04944814371846995,"{3: 1, 25: 12, 8: 24}","[3, 8, 25]",318242512,Li1Mn12O24
LiRuO2,mp-28254,0.0,5.64861642,0.10001917343749867,"{3: 1, 44: 1, 8: 2}","[3, 8, 44]",3182441,Li1Ru1O2
LiLa2Nb8O24,mp-1222446,0.0,1.34040648,0.06545077937243526,"{3: 1, 57: 2, 41: 8, 8: 24}","[3, 8, 41, 57]",31824418572,Li1La2Nb8O24
LiRhO2,mp-14115,1.5152999999999999,4.4847718,0.0,"{3: 1, 45: 1, 8: 2}","[3, 8, 45]",3182451,Li1Rh1O2
LiAgO2,mp-996962,0.6091000000000001,0.62415795,0.0,"{3: 1, 47: 1, 8: 2}","[3, 8, 47]",3182471,Li1Ag1O2
LiAg3O2,mp-27227,0.7277999999999998,1.52379379,0.0,"{3: 1, 47: 3, 8: 2}","[3, 8, 47]",3182473,Li1Ag3O2
LiInO2,mp-5488,1.8142999999999998,3.91786744,0.0,"{3: 1, 49: 1, 8: 2}","[3, 8, 49]",3182491,Li1In1O2
LiSbO2,mp-1198780,3.0684,4.97694056,0.0,"{3: 1, 51: 1, 8: 2}","[3, 8, 51]",3182511,Li1Sb1O2
LiPu2TeO2,mp-1235186,0.0,8.55029717,0.2166174567361132,"{3: 1, 94: 2, 52: 1, 8: 2}","[3, 8, 52, 94]",3182521942,Li1Pu2Te1O2
LiBi2(IO)2,mp-1235439,0.0,5.36343485,0.16544099115714062,"{3: 1, 83: 2, 53: 2, 8: 2}","[3, 8, 53, 83]",3182532832,Li1Bi2I2O2
Cs7LiAu5O2,mp-1235465,0.0,2.56381349,0.10644741100000221,"{55: 7, 3: 1, 79: 5, 8: 2}","[3, 8, 55, 79]",3182557795,Cs7Li1Au5O2
LiLaO2,mp-756544,3.6258000000000004,3.35775541,0.014486134062499545,"{3: 1, 57: 1, 8: 2}","[3, 8, 57]",3182571,Li1La1O2
LiCeO2,mp-8412,0.0,7.38406419,0.038867507656254574,"{3: 1, 58: 1, 8: 2}","[3, 8, 58]",3182581,Li1Ce1O2
LiCe10(Pb3O)2,mp-1235180,0.0,7.13183614,0.07620557887217938,"{3: 1, 58: 10, 82: 6, 8: 2}","[3, 8, 58, 82]",31825810826,Li1Ce10Pb6O2
LiPrO2,mp-10620,3.5331999999999995,2.15873184,0.009265334843748363,"{3: 1, 59: 1, 8: 2}","[3, 8, 59]",3182591,Li1Pr1O2
LiPrNdO2,mp-1236395,0.0,3.81086058,0.2300754058194432,"{3: 1, 59: 1, 60: 1, 8: 2}","[3, 8, 59, 60]",3182591601,Li1Pr1Nd1O2
LiNdO2,mp-1222355,3.6550000000000002,5.72544146,0.008336155312497873,"{3: 1, 60: 1, 8: 2}","[3, 8, 60]",3182601,Li1Nd1O2
LiSi6Bi9O26,mp-772721,2.9084000000000003,4.31942902,0.0286997286507944,"{3: 1, 14: 6, 83: 9, 8: 26}","[3, 8, 14, 83]",31826146839,Li1Si6Bi9O26
LiSmO2,mp-7800,3.3729999999999998,2.06198,0.008716070781249918,"{3: 1, 62: 1, 8: 2}","[3, 8, 62]",3182621,Li1Sm1O2
LiEuO2,mp-1019724,0.0,1.37301829,0.18216836374999623,"{3: 1, 63: 1, 8: 2}","[3, 8, 63]",3182631,Li1Eu1O2
LiGdO2,mp-21332,3.2803999999999998,1.21207779,0.0,"{3: 1, 64: 1, 8: 2}","[3, 8, 64]",3182641,Li1Gd1O2
LiTbO2,mp-7137,4.5467,0.98844127,0.0,"{3: 1, 65: 1, 8: 2}","[3, 8, 65]",3182651,Li1Tb1O2
LiDyO2,mp-976726,4.5644,0.88374649,0.0,"{3: 1, 66: 1, 8: 2}","[3, 8, 66]",3182661,Li1Dy1O2
LiHoO2,mp-12645,4.018199999999999,0.78369619,0.0,"{3: 1, 67: 1, 8: 2}","[3, 8, 67]",3182671,Li1Ho1O2
LiErO2,mp-10970,4.110799999999999,0.83539114,0.0,"{3: 1, 68: 1, 8: 2}","[3, 8, 68]",3182681,Li1Er1O2