formula,material_id,band_gap,efermi,energy_above_hull,comp_atoms,sorted_keys_comp_atoms,comp_number,new_formula
LiErTlO2,mp-1236123,0.0,4.42197864,0.21409215033332973,"{3: 1, 68: 1, 81: 1, 8: 2}","[3, 8, 68, 81]",3182681811,Li1Er1Tl1O2
LiTmO2,mp-1176564,4.1825,4.89913285,0.0,"{3: 1, 69: 1, 8: 2}","[3, 8, 69]",3182691,Li1Tm1O2
LiLuO2,mp-754605,4.5008,0.93319169,0.0,"{3: 1, 71: 1, 8: 2}","[3, 8, 71]",3182711,Li1Lu1O2
LiWO2,mp-25467,0.0,6.01049449,0.30920608750000156,"{3: 1, 74: 1, 8: 2}","[3, 8, 74]",3182741,Li1W1O2
LiIrO2,mp-1210872,1.4139999999999997,6.79348437,0.16335797356249948,"{3: 1, 77: 1, 8: 2}","[3, 8, 77]",3182771,Li1Ir1O2
LiPtO2,mp-1211074,0.0,4.75246694,0.32512725875000026,"{3: 1, 78: 1, 8: 2}","[3, 8, 78]",3182781,Li1Pt1O2
LiAuO2,mp-996959,1.3059,1.2133942,0.0,"{3: 1, 79: 1, 8: 2}","[3, 8, 79]",3182791,Li1Au1O2
LiTlO2,mp-8179,0.40200000000000014,3.56241511,0.023439265562498868,"{3: 1, 81: 1, 8: 2}","[3, 8, 81]",3182811,Li1Tl1O2
LiCa9Mg(PO4)7,mp-686484,4.7063,2.34496078,0.03254708253431904,"{3: 1, 20: 9, 12: 1, 15: 7, 8: 28}","[3, 8, 12, 15, 20]",31828121157209,Li1Ca9Mg1P7O28
LiCa9Mn(PO4)7,mp-554324,4.3144,6.90914207,0.0,"{3: 1, 20: 9, 25: 1, 15: 7, 8: 28}","[3, 8, 15, 20, 25]",31828157209251,Li1Ca9Mn1P7O28
LiCa9Co(PO4)7,mp-699599,3.7823999999999995,3.88229503,0.02483177288043059,"{3: 1, 20: 9, 27: 1, 15: 7, 8: 28}","[3, 8, 15, 20, 27]",31828157209271,Li1Ca9Co1P7O28
LiMn10(PO4)7,mp-759206,3.4154999999999998,6.07183469,0.07754654864130295,"{3: 1, 25: 10, 15: 7, 8: 28}","[3, 8, 15, 25]",318281572510,Li1Mn10P7O28
LiSn10(PO4)7,mp-765193,2.8388000000000004,3.56531174,0.08794974264493671,"{3: 1, 50: 10, 15: 7, 8: 28}","[3, 8, 15, 50]",318281575010,Li1Sn10P7O28
LiMn5(P2O7)4,mp-540517,0.0009000000000000119,0.88429205,0.03426754470239679,"{3: 1, 25: 5, 15: 8, 8: 28}","[3, 8, 15, 25]",31828158255,Li1Mn5P8O28
LiCo5(P2O7)4,mp-584817,0.026599999999999957,1.18545834,0.08473007937500387,"{3: 1, 27: 5, 15: 8, 8: 28}","[3, 8, 15, 27]",31828158275,Li1Co5P8O28
LiNi5(P2O7)4,mp-27060,0.0,0.38009866,0.0991914122023747,"{3: 1, 28: 5, 15: 8, 8: 28}","[3, 8, 15, 28]",31828158285,Li1Ni5P8O28
LiBiO2,mp-1540429,2.5216999999999996,4.83961727,0.0,"{3: 1, 83: 1, 8: 2}","[3, 8, 83]",3182831,Li1Bi1O2
LiCo6(OF5)2,mp-1235110,1.0215,0.85379575,0.16109102526315056,"{3: 1, 27: 6, 8: 2, 9: 10}","[3, 8, 9, 27]",3182910276,Li1Co6O2F10
LiVO2F,mp-752626,2.2165,0.75212591,0.07480033599999825,"{3: 1, 23: 1, 8: 2, 9: 1}","[3, 8, 9, 23]",318291231,Li1V1O2F1
LiNi2O2F,mp-753331,2.0497999999999994,4.5320119,0.051588650833334526,"{3: 1, 28: 2, 8: 2, 9: 1}","[3, 8, 9, 28]",318291282,Li1Ni2O2F1
LiNbO2F,mp-1222399,0.0,3.86657259,0.22064340949999917,"{3: 1, 41: 1, 8: 2, 9: 1}","[3, 8, 9, 41]",318291411,Li1Nb1O2F1
NaLiV(OF)2,mp-752560,1.5423000000000002,1.43119393,0.09633984678571661,"{11: 1, 3: 1, 23: 1, 8: 2, 9: 2}","[3, 8, 9, 11, 23]",318292111231,Na1Li1V1O2F2
LiV(OF)2,mp-1539853,2.2173,-0.82986633,0.0,"{3: 1, 23: 1, 8: 2, 9: 2}","[3, 8, 9, 23]",318292231,Li1V1O2F2
LiNb(OF)2,mp-769319,2.8209,-0.64728362,0.0,"{3: 1, 41: 1, 8: 2, 9: 2}","[3, 8, 9, 41]",318292411,Li1Nb1O2F2
LiDy2(OF)2,mp-1235112,0.0,6.03225752,0.23947843182539685,"{3: 1, 66: 2, 8: 2, 9: 2}","[3, 8, 9, 66]",318292662,Li1Dy2O2F2
LiV2O2F3,mp-753928,1.3741000000000003,1.97956759,0.05178728257812182,"{3: 1, 23: 2, 8: 2, 9: 3}","[3, 8, 9, 23]",318293232,Li1V2O2F3
LiMn2O2F3,mp-753612,0.6333,-0.01137417,0.028821452395833447,"{3: 1, 25: 2, 8: 2, 9: 3}","[3, 8, 9, 25]",318293252,Li1Mn2O2F3
LiCo2O2F3,mp-755433,0.0,-0.02421754,0.16480462812500019,"{3: 1, 27: 2, 8: 2, 9: 3}","[3, 8, 9, 27]",318293272,Li1Co2O2F3
LiRe(OF2)2,mp-554108,3.1439000000000004,-2.26845235,0.0,"{3: 1, 75: 1, 8: 2, 9: 4}","[3, 8, 9, 75]",318294751,Li1Re1O2F4
LiSbP(OF3)2,mp-1176602,2.1513,1.52577665,0.06547200318180746,"{3: 1, 51: 1, 15: 1, 8: 2, 9: 6}","[3, 8, 9, 15, 51]",318296151511,Li1Sb1P1O2F6
LiV3(OF3)2,mp-867665,1.4935000000000003,1.87316829,0.0,"{3: 1, 23: 3, 8: 2, 9: 6}","[3, 8, 9, 23]",318296233,Li1V3O2F6
LiMn3(OF3)2,mp-753341,0.26370000000000005,0.52358219,0.021536186388889433,"{3: 1, 25: 3, 8: 2, 9: 6}","[3, 8, 9, 25]",318296253,Li1Mn3O2F6
LiCo3(OF3)2,mp-850982,0.18589999999999995,1.1561796,0.023325499375000724,"{3: 1, 27: 3, 8: 2, 9: 6}","[3, 8, 9, 27]",318296273,Li1Co3O2F6
LiO3,mp-1001790,0.17820000000000003,1.06622686,0.23903239732142811,"{3: 1, 8: 3}","[3, 8]",3183,Li1O3
KNa2LiZr2(Si2O5)6,mp-851118,4.7587,0.98679904,0.01578076888888802,"{19: 1, 11: 2, 3: 1, 40: 2, 14: 12, 8: 30}","[3, 8, 11, 14, 19, 40]",318301121412191402,K1Na2Li1Zr2Si12O30
Na3LiMg4(Si2O5)6,mp-1221336,4.348699999999999,1.23652137,0.005286006574995561,"{11: 3, 3: 1, 12: 4, 14: 12, 8: 30}","[3, 8, 11, 12, 14]",318301131241412,Na3Li1Mg4Si12O30
Na5Li(Mo3O10)3,mp-1195001,2.9755,0.12773122,0.0,"{11: 5, 3: 1, 42: 9, 8: 30}","[3, 8, 11, 42]",31830115429,Na5Li1Mo9O30
K3LiMg4(Si2O5)6,mp-694935,4.7657,1.32759845,0.0,"{19: 3, 3: 1, 12: 4, 14: 12, 8: 30}","[3, 8, 12, 14, 19]",318301241412193,K3Li1Mg4Si12O30
LiBi,mp-22902,0.0,5.08869359,0.0,"{3: 1, 83: 1}","[3, 83]",31831,Li1Bi1
NaLiO3,mp-975990,0.0,-0.29159417,0.46917315100000057,"{11: 1, 3: 1, 8: 3}","[3, 8, 11]",3183111,Na1Li1O3
NaLiMg30O31,mp-1040085,2.5423999999999998,3.68165665,0.04346606730158609,"{11: 1, 3: 1, 12: 30, 8: 31}","[3, 8, 11, 12]",318311111230,Na1Li1Mg30O31
KLiMg30O31,mp-1040366,2.6691,3.68459769,0.07248890299602984,"{19: 1, 3: 1, 12: 30, 8: 31}","[3, 8, 12, 19]",318311230191,K1Li1Mg30O31
RbLiMg30O31,mp-1040170,3.0469999999999997,3.98811014,0.08519081621031699,"{37: 1, 3: 1, 12: 30, 8: 31}","[3, 8, 12, 37]",318311230371,Rb1Li1Mg30O31
CsLiMg30O31,mp-1098505,1.9439000000000002,4.38408087,0.15004282698412652,"{55: 1, 3: 1, 12: 30, 8: 31}","[3, 8, 12, 55]",318311230551,Cs1Li1Mg30O31
LiHfMg30O31,mp-1040044,0.4844999999999988,7.76125876,0.04814528408730201,"{3: 1, 72: 1, 12: 30, 8: 31}","[3, 8, 12, 72]",318311230721,Li1Hf1Mg30O31
LiMgO3,mp-1185356,0.0,-0.11756512,0.5801049234285722,"{3: 1, 12: 1, 8: 3}","[3, 8, 12]",3183121,Li1Mg1O3
LiAlO3,mp-1185313,0.0,2.0092886,0.38052575006547507,"{3: 1, 13: 1, 8: 3}","[3, 8, 13]",3183131,Li1Al1O3
LiAlCrO3,mp-770544,1.9811,3.42684846,0.11587210680555149,"{3: 1, 13: 1, 24: 1, 8: 3}","[3, 8, 13, 24]",3183131241,Li1Al1Cr1O3
LiMnAlO3,mp-755509,1.8152,3.05857913,0.09970276374999987,"{3: 1, 25: 1, 13: 1, 8: 3}","[3, 8, 13, 25]",3183131251,Li1Mn1Al1O3
LiAlCoO3,mp-755925,1.9804999999999997,3.3102215,0.06681722750000052,"{3: 1, 13: 1, 27: 1, 8: 3}","[3, 8, 13, 27]",3183131271,Li1Al1Co1O3
LiAlNiO3,mp-754284,2.4505,3.51329975,0.09048846625000362,"{3: 1, 13: 1, 28: 1, 8: 3}","[3, 8, 13, 28]",3183131281,Li1Al1Ni1O3
SrLiAlO3,mp-1235552,3.0271,4.19201156,0.1459612445833347,"{38: 1, 3: 1, 13: 1, 8: 3}","[3, 8, 13, 38]",3183131381,Sr1Li1Al1O3
LiSiO3,mp-1185414,0.0,4.02889293,0.32128618968888834,"{3: 1, 14: 1, 8: 3}","[3, 8, 14]",3183141,Li1Si1O3
LiPO3,mp-29195,5.6512,-0.00481001,0.0,"{3: 1, 15: 1, 8: 3}","[3, 8, 15]",3183151,Li1P1O3
LiZn(ClO)3,mp-1181392,0.46409999999999996,-1.64977143,0.5792368658593743,"{3: 1, 30: 1, 17: 3, 8: 3}","[3, 8, 17, 30]",3183173301,Li1Zn1Cl3O3
KLiO3,mp-1184939,0.0,-1.02553922,0.49840937100000104,"{19: 1, 3: 1, 8: 3}","[3, 8, 19]",3183191,K1Li1O3
KLiWO3,mp-1235719,0.0,3.78511899,0.4169952103935195,"{19: 1, 3: 1, 74: 1, 8: 3}","[3, 8, 19, 74]",3183191741,K1Li1W1O3
LiCaO3,mp-975333,0.0,1.61948258,0.34843050542857146,"{3: 1, 20: 1, 8: 3}","[3, 8, 20]",3183201,Li1Ca1O3
LiMg30AlO32,mp-1038204,4.475700000000001,3.92904721,0.008093283398437734,"{3: 1, 12: 30, 13: 1, 8: 32}","[3, 8, 12, 13]",318321230131,Li1Mg30Al1O32
LiMg30SiO32,mp-1040157,0.30650000000000155,9.09031072,0.05750927882812462,"{3: 1, 12: 30, 14: 1, 8: 32}","[3, 8, 12, 14]",318321230141,Li1Mg30Si1O32
LiMg30TiO32,mp-1095705,0.4660000000000002,7.26455191,0.012713469765625263,"{3: 1, 12: 30, 22: 1, 8: 32}","[3, 8, 12, 22]",318321230221,Li1Mg30Ti1O32
LiMg30CrO32,mp-1040079,3.8003000000000005,3.85121702,0.0031755742187504765,"{3: 1, 12: 30, 24: 1, 8: 32}","[3, 8, 12, 24]",318321230241,Li1Mg30Cr1O32
LiMg30MnO32,mp-1038038,1.5303000000000004,4.45616936,0.003865998046874708,"{3: 1, 12: 30, 25: 1, 8: 32}","[3, 8, 12, 25]",318321230251,Li1Mg30Mn1O32
LiMg30CoO32,mp-1037086,2.1806999999999994,3.80460494,0.009159861093749555,"{3: 1, 12: 30, 27: 1, 8: 32}","[3, 8, 12, 27]",318321230271,Li1Mg30Co1O32
LiMg30GaO32,mp-1040051,4.239799999999999,3.8123833,0.007118929023437914,"{3: 1, 12: 30, 31: 1, 8: 32}","[3, 8, 12, 31]",318321230311,Li1Mg30Ga1O32
LiMg30SbO32,mp-1040012,2.6566,5.92743603,0.039806806562500796,"{3: 1, 12: 30, 51: 1, 8: 32}","[3, 8, 12, 51]",318321230511,Li1Mg30Sb1O32
LiLaMg30O32,mp-1040140,4.2299999999999995,3.90653552,0.04518582751953204,"{3: 1, 57: 1, 12: 30, 8: 32}","[3, 8, 12, 57]",318321230571,Li1La1Mg30O32
LiCeMg30O32,mp-1040143,0.0,8.18679234,0.039853721689453,"{3: 1, 58: 1, 12: 30, 8: 32}","[3, 8, 12, 58]",318321230581,Li1Ce1Mg30O32
LiMg30WO32,mp-1040082,3.1002,5.00192293,0.02251878124999962,"{3: 1, 12: 30, 74: 1, 8: 32}","[3, 8, 12, 74]",318321230741,Li1Mg30W1O32
LiMg30BiO32,mp-1040014,3.2821999999999996,5.10361994,0.036200101445312605,"{3: 1, 12: 30, 83: 1, 8: 32}","[3, 8, 12, 83]",318321230831,Li1Mg30Bi1O32
LiLa8V8O32,mp-769499,1.1582,5.01231594,0.08292721271258685,"{3: 1, 57: 8, 23: 8, 8: 32}","[3, 8, 23, 57]",31832238578,Li1La8V8O32
LiMn16O32,mp-1003549,0.0,1.91197813,0.021766615290827573,"{3: 1, 25: 16, 8: 32}","[3, 8, 25]",318322516,Li1Mn16O32
SrLiLa15(CoO8)4,mp-766205,0.5344999999999995,6.25635923,0.03948081638237966,"{38: 1, 3: 1, 57: 15, 27: 4, 8: 32}","[3, 8, 27, 38, 57]",318322743815715,Sr1Li1La15Co4O32
LiVO3,mp-19373,3.0342000000000002,-0.36655224,0.0,"{3: 1, 23: 1, 8: 3}","[3, 8, 23]",3183231,Li1V1O3
LiCrO3,mp-1185311,0.2107000000000001,2.35734791,0.4093665551666632,"{3: 1, 24: 1, 8: 3}","[3, 8, 24]",3183241,Li1Cr1O3
LiCr2O3,mp-1272833,1.6572000000000005,4.60416328,0.0755124772222242,"{3: 1, 24: 2, 8: 3}","[3, 8, 24]",3183242,Li1Cr2O3
LiMnO3,mp-1120793,0.0,1.93278815,0.18392001396666569,"{3: 1, 25: 1, 8: 3}","[3, 8, 25]",3183251,Li1Mn1O3
LiMn2O3,mp-1639950,0.5482000000000005,4.15416024,0.04309928708333377,"{3: 1, 25: 2, 8: 3}","[3, 8, 25]",3183252,Li1Mn2O3
LiCo2O3,mp-1222543,0.0,3.46400727,0.12789989124999934,"{3: 1, 27: 2, 8: 3}","[3, 8, 27]",3183272,Li1Co2O3
LiNiO3,mp-1185261,0.0,1.12650419,0.5024219344545484,"{3: 1, 28: 1, 8: 3}","[3, 8, 28]",3183281,Li1Ni1O3
LiNi2O3,mp-757063,0.0,4.18319699,0.0018387068055574218,"{3: 1, 28: 2, 8: 3}","[3, 8, 28]",3183282,Li1Ni2O3
RbLiZn2O3,mp-18422,1.8536,0.70527781,0.0,"{37: 1, 3: 1, 30: 2, 8: 3}","[3, 8, 30, 37]",3183302371,Rb1Li1Zn2O3
LiGeO3,mp-1185303,0.0,1.43619382,0.37368768119999896,"{3: 1, 32: 1, 8: 3}","[3, 8, 32]",3183321,Li1Ge1O3
LiAsO3,mp-9657,3.3857999999999997,2.02586407,0.0,"{3: 1, 33: 1, 8: 3}","[3, 8, 33]",3183331,Li1As1O3
LiSeO3,mp-1211104,0.5306,-0.89707124,0.2078412106666656,"{3: 1, 34: 1, 8: 3}","[3, 8, 34]",3183341,Li1Se1O3
LiNb13O33,mp-772535,1.7345,0.43671697,0.012159296048633195,"{3: 1, 41: 13, 8: 33}","[3, 8, 41]",318334113,Li1Nb13O33
LiBrO3,mp-1197831,0.0,0.35881638,0.25332124219736674,"{3: 1, 35: 1, 8: 3}","[3, 8, 35]",3183351,Li1Br1O3
RbLiO3,mp-975291,0.0,-0.92629521,0.5468869129999927,"{37: 1, 3: 1, 8: 3}","[3, 8, 37]",3183371,Rb1Li1O3
SrLiO3,mp-1187183,0.0,0.93280469,0.28795796099999293,"{38: 1, 3: 1, 8: 3}","[3, 8, 38]",3183381,Sr1Li1O3
LiNbO3,mp-3731,3.3358000000000003,0.92710072,0.0,"{3: 1, 41: 1, 8: 3}","[3, 8, 41]",3183411,Li1Nb1O3
LiTcO3,mp-862870,0.0,3.5162365,0.06527020858333188,"{3: 1, 43: 1, 8: 3}","[3, 8, 43]",3183431,Li1Tc1O3
LiEuTcO3,mp-1235563,0.0,5.2366792,0.5021120047916643,"{3: 1, 63: 1, 43: 1, 8: 3}","[3, 8, 43, 63]",3183431631,Li1Eu1Tc1O3
LiRuO3,mp-1185420,0.0,3.23205248,0.2110826307916689,"{3: 1, 44: 1, 8: 3}","[3, 8, 44]",3183441,Li1Ru1O3
LiRuPbO3,mp-1236510,0.0,5.88490028,0.3786345790914316,"{3: 1, 44: 1, 82: 1, 8: 3}","[3, 8, 44, 82]",3183441821,Li1Ru1Pb1O3
LiCdO3,mp-1185203,0.0,1.00512022,0.5380530354285717,"{3: 1, 48: 1, 8: 3}","[3, 8, 48]",3183481,Li1Cd1O3
LiSbO3,mp-4995,2.1379000000000006,3.64894126,0.0,"{3: 1, 51: 1, 8: 3}","[3, 8, 51]",3183511,Li1Sb1O3
LiTeO3,mp-755231,1.8899,4.20265682,0.06271661575000032,"{3: 1, 52: 1, 8: 3}","[3, 8, 52]",3183521,Li1Te1O3
LiIO3,mp-23384,3.7255000000000003,1.04372688,0.0,"{3: 1, 53: 1, 8: 3}","[3, 8, 53]",3183531,Li1I1O3
LiNd9Mo16O35,mp-866741,0.9081000000000001,5.40750907,0.2920671370491785,"{3: 1, 60: 9, 42: 16, 8: 35}","[3, 8, 42, 60]",318354216609,Li1Nd9Mo16O35
CsLiAcO3,mp-1235446,0.0,1.84908289,0.1865088799999972,"{55: 1, 3: 1, 89: 1, 8: 3}","[3, 8, 55, 89]",3183551891,Cs1Li1Ac1O3
LiLaO3,mp-1185357,0.0,5.28805717,0.2220490414642864,"{3: 1, 57: 1, 8: 3}","[3, 8, 57]",3183571,Li1La1O3
LiCeO3,mp-973613,0.0,6.02573185,0.47111355300000035,"{3: 1, 58: 1, 8: 3}","[3, 8, 58]",3183581,Li1Ce1O3
LiCe2O3,mp-1236294,0.0,7.71142207,0.11763719302083331,"{3: 1, 58: 2, 8: 3}","[3, 8, 58]",3183582,Li1Ce2O3
LiPrO3,mp-1185404,0.0,2.7450396,0.23509200108928408,"{3: 1, 59: 1, 8: 3}","[3, 8, 59]",3183591,Li1Pr1O3
LiNdO3,mp-1185387,0.0,2.69162139,0.2598881499642838,"{3: 1, 60: 1, 8: 3}","[3, 8, 60]",3183601,Li1Nd1O3
LiPmO3,mp-1185388,0.0,2.72171454,0.28754624396428596,"{3: 1, 61: 1, 8: 3}","[3, 8, 61]",3183611,Li1Pm1O3
Rb6LiPr11Se12(Cl4O9)4,mp-645405,3.2871,1.28204196,0.0,"{37: 6, 3: 1, 59: 11, 34: 12, 17: 16, 8: 36}","[3, 8, 17, 34, 37, 59]",31836171634123765911,Rb6Li1Pr11Se12Cl16O36
Rb6LiNd11Se12(Cl4O9)4,mp-607785,3.2922000000000002,1.24620138,0.0,"{37: 6, 3: 1, 60: 11, 34: 12, 17: 16, 8: 36}","[3, 8, 17, 34, 37, 60]",31836171634123766011,Rb6Li1Nd11Se12Cl16O36
LiSmO3,mp-973136,0.0,2.95904068,0.3081785753392854,"{3: 1, 62: 1, 8: 3}","[3, 8, 62]",3183621,Li1Sm1O3
LiEuO3,mp-1185344,0.0,1.99828254,0.40104815021428575,"{3: 1, 63: 1, 8: 3}","[3, 8, 63]",3183631,Li1Eu1O3
LiGdO3,mp-1185401,0.0,2.63061128,0.3536309167142857,"{3: 1, 64: 1, 8: 3}","[3, 8, 64]",3183641,Li1Gd1O3
LiDyO3,mp-1185308,0.0,2.83029993,0.41252842821428626,"{3: 1, 66: 1, 8: 3}","[3, 8, 66]",3183661,Li1Dy1O3
LiHoO3,mp-973818,0.0,3.07857531,0.4370870380892864,"{3: 1, 67: 1, 8: 3}","[3, 8, 67]",3183671,Li1Ho1O3
LiHo2O3,mp-1235976,0.0,5.64075582,0.20410129756944606,"{3: 1, 67: 2, 8: 3}","[3, 8, 67]",3183672,Li1Ho2O3
LiErO3,mp-1185310,0.0,2.79050814,0.460419717214287,"{3: 1, 68: 1, 8: 3}","[3, 8, 68]",3183681,Li1Er1O3
LiTmO3,mp-1185236,0.0,2.7797764,0.4889175464642852,"{3: 1, 69: 1, 8: 3}","[3, 8, 69]",3183691,Li1Tm1O3
LiLuO3,mp-976331,0.0,3.03943018,0.5373579508392856,"{3: 1, 71: 1, 8: 3}","[3, 8, 71]",3183711,Li1Lu1O3
LiTaO3,mp-3666,3.7003,1.28166655,0.0,"{3: 1, 73: 1, 8: 3}","[3, 8, 73]",3183731,Li1Ta1O3
LiReO3,mp-8189,0.0,4.3894679,0.07505348099999853,"{3: 1, 75: 1, 8: 3}","[3, 8, 75]",3183751,Li1Re1O3
LiOsO3,mp-1078358,0.0,4.04711286,0.0,"{3: 1, 76: 1, 8: 3}","[3, 8, 76]",3183761,Li1Os1O3
LiBiO3,mp-29077,0.1445000000000003,2.6220359,0.0,"{3: 1, 83: 1, 8: 3}","[3, 8, 83]",3183831,Li1Bi1O3
LiAcO3,mp-1185297,0.0,4.23301205,0.12925668721428352,"{3: 1, 89: 1, 8: 3}","[3, 8, 89]",3183891,Li1Ac1O3
LiPaO3,mp-1185263,3.1954,2.31466473,0.0,"{3: 1, 91: 1, 8: 3}","[3, 8, 91]",3183911,Li1Pa1O3
LiSO3F,mp-7744,5.7916,-1.63374801,0.0,"{3: 1, 16: 1, 8: 3, 9: 1}","[3, 8, 9, 16]",318391161,Li1S1O3F1
LiV2O3F,mp-753091,1.2002000000000002,2.72581143,0.0744611287500021,"{3: 1, 23: 2, 8: 3, 9: 1}","[3, 8, 9, 23]",318391232,Li1V2O3F1
LiMn2O3F,mp-753835,0.7728999999999999,2.90699701,0.024632954553578834,"{3: 1, 25: 2, 8: 3, 9: 1}","[3, 8, 9, 25]",318391252,Li1Mn2O3F1
LiNi3O3F,mp-758954,2.1894,4.95406107,0.07001108937500078,"{3: 1, 28: 3, 8: 3, 9: 1}","[3, 8, 9, 28]",318391283,Li1Ni3O3F1
LiUO3,mp-8007,0.44310000000000027,5.54832641,0.0,"{3: 1, 92: 1, 8: 3}","[3, 8, 92]",3183921,Li1U1O3
LiV2(OF)3,mp-754467,0.6898,1.19766742,0.09084099749999375,"{3: 1, 23: 2, 8: 3, 9: 3}","[3, 8, 9, 23]",318393232,Li1V2O3F3
LiMn5O3F5,mp-759115,0.49970000000000026,2.19754375,0.1040033782142844,"{3: 1, 25: 5, 8: 3, 9: 5}","[3, 8, 9, 25]",318395255,Li1Mn5O3F5
LiCo5O3F5,mp-760350,1.1829999999999998,2.06123488,0.08358670160714077,"{3: 1, 27: 5, 8: 3, 9: 5}","[3, 8, 9, 27]",318395275,Li1Co5O3F5
LiNi5O3F5,mp-758931,2.296,2.591622,0.08027648982141944,"{3: 1, 28: 5, 8: 3, 9: 5}","[3, 8, 9, 28]",318395285,Li1Ni5O3F5
LiV3O3F7,mp-1176719,1.215,-0.28868017,0.026043651111113064,"{3: 1, 23: 3, 8: 3, 9: 7}","[3, 8, 9, 23]",318397233,Li1V3O3F7
LiMn7(OF3)3,mp-753079,1.3932,1.92652357,0.07600644875000118,"{3: 1, 25: 7, 8: 3, 9: 9}","[3, 8, 9, 25]",318399257,Li1Mn7O3F9
NaLiSO4,mp-6783,5.5381,0.30814824,0.00014546970238082935,"{11: 1, 3: 1, 16: 1, 8: 4}","[3, 8, 11, 16]",3184111161,Na1Li1S1O4
LiMgPO4,mp-9625,5.4297,2.18282829,0.0,"{3: 1, 12: 1, 15: 1, 8: 4}","[3, 8, 12, 15]",3184121151,Li1Mg1P1O4
LiMgVO4,mp-560157,3.4825999999999997,1.03475734,0.0,"{3: 1, 12: 1, 23: 1, 8: 4}","[3, 8, 12, 23]",3184121231,Li1Mg1V1O4
LiMgAsO4,mp-8870,3.4543999999999997,1.55392772,0.00720953845237382,"{3: 1, 12: 1, 33: 1, 8: 4}","[3, 8, 12, 33]",3184121331,Li1Mg1As1O4
LiMg3O4,mp-1099259,0.0,2.84985343,0.054712491874999714,"{3: 1, 12: 3, 8: 4}","[3, 8, 12]",3184123,Li1Mg3O4
LiAlSiO4,mp-18220,5.054499999999999,1.39534482,0.0,"{3: 1, 13: 1, 14: 1, 8: 4}","[3, 8, 13, 14]",3184131141,Li1Al1Si1O4
LiTiAlO4,mp-1222338,2.4977,2.53841966,0.04597288357142748,"{3: 1, 22: 1, 13: 1, 8: 4}","[3, 8, 13, 22]",3184131221,Li1Ti1Al1O4
LiAlVO4,mp-753631,1.5154,3.07491157,0.04164189500000415,"{3: 1, 13: 1, 23: 1, 8: 4}","[3, 8, 13, 23]",3184131231,Li1Al1V1O4
LiAlCrO4,mp-1663521,1.4347999999999996,2.8034665,0.08288950643217774,"{3: 1, 13: 1, 24: 1, 8: 4}","[3, 8, 13, 24]",3184131241,Li1Al1Cr1O4
LiMnAlO4,mp-770386,1.2451000000000003,2.8470495,0.04565501319195775,"{3: 1, 25: 1, 13: 1, 8: 4}","[3, 8, 13, 25]",3184131251,Li1Mn1Al1O4
LiAlGeO4,mp-1222525,3.8893999999999997,0.44291301,0.0,"{3: 1, 13: 1, 32: 1, 8: 4}","[3, 8, 13, 32]",3184131321,Li1Al1Ge1O4
LiAlAsO4,mp-1235027,0.0,3.43183158,0.2898048840290226,"{3: 1, 13: 1, 33: 1, 8: 4}","[3, 8, 13, 33]",3184131331,Li1Al1As1O4
LiEu3SiCl3O4,mp-679929,0.4710000000000001,4.73486376,0.0,"{3: 1, 63: 3, 14: 1, 17: 3, 8: 4}","[3, 8, 14, 17, 63]",3184141173633,Li1Eu3Si1Cl3O4
K3LiSiO4,mp-561474,4.173,0.47959972,0.0,"{19: 3, 3: 1, 14: 1, 8: 4}","[3, 8, 14, 19]",3184141193,K3Li1Si1O4
LiScSiO4,mp-6224,4.612299999999999,2.0907158,0.0,"{3: 1, 21: 1, 14: 1, 8: 4}","[3, 8, 14, 21]",3184141211,Li1Sc1Si1O4
LiTiSiO4,mp-753511,0.0,5.95296729,0.06558960171427941,"{3: 1, 22: 1, 14: 1, 8: 4}","[3, 8, 14, 22]",3184141221,Li1Ti1Si1O4
LiVSiO4,mp-753702,1.7422,3.53317424,0.004977611517853475,"{3: 1, 23: 1, 14: 1, 8: 4}","[3, 8, 14, 23]",3184141231,Li1V1Si1O4
LiCrSiO4,mp-763610,2.5476,3.03477034,0.01784602107142952,"{3: 1, 24: 1, 14: 1, 8: 4}","[3, 8, 14, 24]",3184141241,Li1Cr1Si1O4
LiMnSiO4,mp-1662331,1.2118000000000002,2.83997992,0.024910235072904463,"{3: 1, 25: 1, 14: 1, 8: 4}","[3, 8, 14, 25]",3184141251,Li1Mn1Si1O4
LiCoSiO4,mp-764945,0.34760000000000013,1.60818142,0.05027638071428786,"{3: 1, 27: 1, 14: 1, 8: 4}","[3, 8, 14, 27]",3184141271,Li1Co1Si1O4
LiSiNiO4,mp-761324,0.0,4.35861513,0.05858147654761581,"{3: 1, 14: 1, 28: 1, 8: 4}","[3, 8, 14, 28]",3184141281,Li1Si1Ni1O4
LiGaSiO4,mp-18147,4.0502,0.6982494,0.0,"{3: 1, 31: 1, 14: 1, 8: 4}","[3, 8, 14, 31]",3184141311,Li1Ga1Si1O4
Sr2LiSiO4,mp-1209083,0.0,4.22680114,0.15980279000000053,"{38: 2, 3: 1, 14: 1, 8: 4}","[3, 8, 14, 38]",3184141382,Sr2Li1Si1O4
LiInSiO4,mp-7205,3.0286999999999997,3.22826975,0.0,"{3: 1, 49: 1, 14: 1, 8: 4}","[3, 8, 14, 49]",3184141491,Li1In1Si1O4
LiTmSiO4,mp-15066,4.5721,1.45824769,0.0,"{3: 1, 69: 1, 14: 1, 8: 4}","[3, 8, 14, 69]",3184141691,Li1Tm1Si1O4
LiSiBiO4,mp-753327,3.1058,3.29205456,0.020551765952378176,"{3: 1, 14: 1, 83: 1, 8: 4}","[3, 8, 14, 83]",3184141831,Li1Si1Bi1O4
LiPO4,mp-1189919,0.0,-1.43698827,0.4071315999999978,"{3: 1, 15: 1, 8: 4}","[3, 8, 15]",3184151,Li1P1O4
LiCaPO4,mp-16804,5.1799,1.48611027,0.0030693378174619923,"{3: 1, 20: 1, 15: 1, 8: 4}","[3, 8, 15, 20]",3184151201,Li1Ca1P1O4
LiTiPO4,mp-504106,0.0,6.94027398,0.28102605716326234,"{3: 1, 22: 1, 15: 1, 8: 4}","[3, 8, 15, 22]",3184151221,Li1Ti1P1O4