formula,material_id,band_gap,efermi,energy_above_hull,comp_atoms,sorted_keys_comp_atoms,comp_number,new_formula
LiMgSbPd,mp-10179,0.0,6.60620966,0.09047993083333417,"{3: 1, 12: 1, 51: 1, 46: 1}","[3, 12, 46, 51]",31121461511,Li1Mg1Sb1Pd1
LiMgPd2,mp-977399,0.0,3.72288492,0.0,"{3: 1, 12: 1, 46: 2}","[3, 12, 46]",31121462,Li1Mg1Pd2
LiMgAg2,mp-1185364,0.0,2.94838845,0.0,"{3: 1, 12: 1, 47: 2}","[3, 12, 47]",31121472,Li1Mg1Ag2
LiHfMg14,mp-1026769,0.0,3.25462222,0.08006977874999999,"{3: 1, 72: 1, 12: 14}","[3, 12, 72]",311214721,Li1Hf1Mg14
LiMg14W,mp-1026795,0.0,3.48579564,0.17407337718749982,"{3: 1, 12: 14, 74: 1}","[3, 12, 74]",311214741,Li1Mg14W1
LiMgCd2,mp-1185358,0.0,2.51557075,0.004020874166665855,"{3: 1, 12: 1, 48: 2}","[3, 12, 48]",31121482,Li1Mg1Cd2
LiMg14Bi,mp-1026768,0.0,3.75487808,0.06298857468749985,"{3: 1, 12: 14, 83: 1}","[3, 12, 83]",311214831,Li1Mg14Bi1
LiMg149,mp-866755,0.5707,3.29309243,0.008162057766666564,"{3: 1, 12: 149}","[3, 12]",3112149,Li1Mg149
LiMgIn2,mp-1185368,0.0,5.62825136,0.0,"{3: 1, 12: 1, 49: 2}","[3, 12, 49]",31121492,Li1Mg1In2
LiMg15,mp-1023493,0.0,3.08650923,0.012462442812499752,"{3: 1, 12: 15}","[3, 12]",311215,Li1Mg15
LiMgSnPt,mp-11806,0.0,7.23081837,0.0,"{3: 1, 12: 1, 50: 1, 78: 1}","[3, 12, 50, 78]",31121501781,Li1Mg1Sn1Pt1
LiMgSnAu,mp-7554,0.0,6.44224035,0.05829873354166537,"{3: 1, 12: 1, 50: 1, 79: 1}","[3, 12, 50, 79]",31121501791,Li1Mg1Sn1Au1
LiMgSn2,mp-1096107,0.49250000000000016,-3.11609605,1.4057637143750001,"{3: 1, 12: 1, 50: 2}","[3, 12, 50]",31121502,Li1Mg1Sn2
LiMgSb,mp-1207082,1.4438,3.11473034,0.0,"{3: 1, 12: 1, 51: 1}","[3, 12, 51]",31121511,Li1Mg1Sb1
LiMgSbPt,mp-571584,0.0,7.44448875,0.052334321250001814,"{3: 1, 12: 1, 51: 1, 78: 1}","[3, 12, 51, 78]",31121511781,Li1Mg1Sb1Pt1
Li(Mg4Al3)4,mp-973924,0.0,4.73270492,0.0045165537212654705,"{3: 1, 12: 16, 13: 12}","[3, 12, 13]",3112161312,Li1Mg16Al12
LiMg17Al11,mp-1185468,0.0,4.65577951,0.01521335502873633,"{3: 1, 12: 17, 13: 11}","[3, 12, 13]",3112171311,Li1Mg17Al11
LiMgIr,mp-1095638,0.0,2.15640227,0.5547927983333332,"{3: 1, 12: 1, 77: 1}","[3, 12, 77]",31121771,Li1Mg1Ir1
LiMgPt2,mp-1096394,0.012299999999999756,-4.21623935,2.133886998749999,"{3: 1, 12: 1, 78: 2}","[3, 12, 78]",31121782,Li1Mg1Pt2
LiMgAu2,mp-977418,0.0,4.00597358,0.0,"{3: 1, 12: 1, 79: 2}","[3, 12, 79]",31121792,Li1Mg1Au2
LiMgHg2,mp-1185363,0.0,3.13046925,0.0,"{3: 1, 12: 1, 80: 2}","[3, 12, 80]",31121802,Li1Mg1Hg2
LiMgTl2,mp-864597,0.0,4.84054886,0.0,"{3: 1, 12: 1, 81: 2}","[3, 12, 81]",31121812,Li1Mg1Tl2
LiMgPb2,mp-1185374,0.0,5.24613695,0.0,"{3: 1, 12: 1, 82: 2}","[3, 12, 82]",31121822,Li1Mg1Pb2
LiMgBi,mp-570213,0.35870000000000024,3.01990139,0.0,"{3: 1, 12: 1, 83: 1}","[3, 12, 83]",31121831,Li1Mg1Bi1
LiMg2,mp-865939,0.0,2.4798649,0.0,"{3: 1, 12: 2}","[3, 12]",31122,Li1Mg2
LiMg2Al,mp-1015814,0.0,2.86205844,0.33260310999999976,"{3: 1, 12: 2, 13: 1}","[3, 12, 13]",31122131,Li1Mg2Al1
Li11TiAs5,mp-675818,0.0,2.14768577,0.0127622614705869,"{3: 11, 22: 1, 33: 5}","[3, 22, 33]",311221335,Li11Ti1As5
LiMg2Si,mp-1067042,0.0,4.3509068,0.13596362156249997,"{3: 1, 12: 2, 14: 1}","[3, 12, 14]",31122141,Li1Mg2Si1
Li11TiSb5,mp-677323,0.1979000000000002,3.19393685,0.03386049127450974,"{3: 11, 22: 1, 51: 5}","[3, 22, 51]",311221515,Li11Ti1Sb5
LiMg2Ni,mp-1185377,0.0,3.84677757,0.011791346631944588,"{3: 1, 12: 2, 28: 1}","[3, 12, 28]",31122281,Li1Mg2Ni1
LiMg2Zn,mp-864762,0.0,2.89270127,0.0,"{3: 1, 12: 2, 30: 1}","[3, 12, 30]",31122301,Li1Mg2Zn1
LiMg2Ga,mp-30648,0.0,3.10992013,0.005975480750000539,"{3: 1, 12: 2, 31: 1}","[3, 12, 31]",31122311,Li1Mg2Ga1
LiMg2Ge,mp-30079,0.0,3.26124427,0.1193161106249998,"{3: 1, 12: 2, 32: 1}","[3, 12, 32]",31122321,Li1Mg2Ge1
LiMg2Rh,mp-864601,0.0,3.59590582,0.0,"{3: 1, 12: 2, 45: 1}","[3, 12, 45]",31122451,Li1Mg2Rh1
LiMg2Pd,mp-977380,0.0,3.4955535,0.0,"{3: 1, 12: 2, 46: 1}","[3, 12, 46]",31122461,Li1Mg2Pd1
LiMg2Ag,mp-864598,0.0,3.04871526,0.0,"{3: 1, 12: 2, 47: 1}","[3, 12, 47]",31122471,Li1Mg2Ag1
LiMg2Cd,mp-1185359,0.0,2.801289,0.0,"{3: 1, 12: 2, 48: 1}","[3, 12, 48]",31122481,Li1Mg2Cd1
LiMg2In,mp-1185366,0.0,4.80262372,0.01800920791666627,"{3: 1, 12: 2, 49: 1}","[3, 12, 49]",31122491,Li1Mg2In1
LiMg2Ir,mp-1232420,0.0,4.34331866,0.0,"{3: 1, 12: 2, 77: 1}","[3, 12, 77]",31122771,Li1Mg2Ir1
LiMg2Pt,mp-864614,0.0,4.25124687,0.0,"{3: 1, 12: 2, 78: 1}","[3, 12, 78]",31122781,Li1Mg2Pt1
LiMg2Au,mp-1185365,0.0,3.82338118,0.0,"{3: 1, 12: 2, 79: 1}","[3, 12, 79]",31122791,Li1Mg2Au1
LiMg2Hg,mp-864630,0.0,4.13493312,0.0,"{3: 1, 12: 2, 80: 1}","[3, 12, 80]",31122801,Li1Mg2Hg1
LiMg2Tl,mp-30759,0.0,4.31109106,0.02752258750000025,"{3: 1, 12: 2, 81: 1}","[3, 12, 81]",31122811,Li1Mg2Tl1
LiMg2Pb,mp-1206745,0.0,4.45823391,0.06043892937499917,"{3: 1, 12: 2, 82: 1}","[3, 12, 82]",31122821,Li1Mg2Pb1
LiMg3,mp-1094603,0.0,2.63065568,0.014990625624999865,"{3: 1, 12: 3}","[3, 12]",31123,Li1Mg3
Li(Mg2Si)2,mp-1077902,0.0,4.99018232,0.07423199660714275,"{3: 1, 12: 4, 14: 2}","[3, 12, 14]",31124142,Li1Mg4Si2
LiMg5,mp-1094609,0.0,2.87694156,0.012276034166666783,"{3: 1, 12: 5}","[3, 12]",31125,Li1Mg5
Li11MnAs6,mp-677349,0.0,1.83611728,0.10352755819444415,"{3: 11, 25: 1, 33: 6}","[3, 25, 33]",311251336,Li11Mn1As6
LiMg6Al,mp-1023320,0.0,3.50341123,0.05914789812499999,"{3: 1, 12: 6, 13: 1}","[3, 12, 13]",31126131,Li1Mg6Al1
LiMg6Si,mp-1021287,0.0,3.74703915,0.12315943265625018,"{3: 1, 12: 6, 14: 1}","[3, 12, 14]",31126141,Li1Mg6Si1
KLiMg6,mp-1021353,0.0,2.27754881,0.2077663634687501,"{19: 1, 3: 1, 12: 6}","[3, 12, 19]",31126191,K1Li1Mg6
LiCaMg6,mp-1023163,0.0,2.68444743,0.08635931562499954,"{3: 1, 20: 1, 12: 6}","[3, 12, 20]",31126201,Li1Ca1Mg6
LiMg6Ti,mp-1021359,0.0,3.21512222,0.15654444395833345,"{3: 1, 12: 6, 22: 1}","[3, 12, 22]",31126221,Li1Mg6Ti1
LiMg6V,mp-1021682,0.0,3.11037114,0.20749459812499982,"{3: 1, 12: 6, 23: 1}","[3, 12, 23]",31126231,Li1Mg6V1
LiMg6Cr,mp-1021291,0.0,3.14654473,0.18427648625000037,"{3: 1, 12: 6, 24: 1}","[3, 12, 24]",31126241,Li1Mg6Cr1
LiMg6Mn,mp-1022972,0.0,3.13524865,0.14550144525862052,"{3: 1, 12: 6, 25: 1}","[3, 12, 25]",31126251,Li1Mg6Mn1
LiMg6Co,mp-1022040,0.0,3.25925845,0.15310755270833365,"{3: 1, 12: 6, 27: 1}","[3, 12, 27]",31126271,Li1Mg6Co1
LiMg6Ni,mp-1021999,0.0,3.35051725,0.12861928291666658,"{3: 1, 12: 6, 28: 1}","[3, 12, 28]",31126281,Li1Mg6Ni1
LiMg6Zn,mp-1022601,0.0,3.04602052,0.05882515500000007,"{3: 1, 12: 6, 30: 1}","[3, 12, 30]",31126301,Li1Mg6Zn1
LiMg6Ga,mp-1099313,0.0,3.09045887,0.040333444124999396,"{3: 1, 12: 6, 31: 1}","[3, 12, 31]",31126311,Li1Mg6Ga1
RbLiMg6,mp-1021290,0.0,2.21296717,0.2627937971875003,"{37: 1, 3: 1, 12: 6}","[3, 12, 37]",31126371,Rb1Li1Mg6
SrLiMg6,mp-1021286,0.0,2.47836612,0.12933145062499984,"{38: 1, 3: 1, 12: 6}","[3, 12, 38]",31126381,Sr1Li1Mg6
LiMg6Zr,mp-1022534,0.0,3.02544443,0.12499089875000013,"{3: 1, 12: 6, 40: 1}","[3, 12, 40]",31126401,Li1Mg6Zr1
LiMg6Nb,mp-1021284,0.0,3.16388673,0.2284143131249996,"{3: 1, 12: 6, 41: 1}","[3, 12, 41]",31126411,Li1Mg6Nb1
LiMg6Mo,mp-1021305,0.0,3.64455078,0.19214773499999982,"{3: 1, 12: 6, 42: 1}","[3, 12, 42]",31126421,Li1Mg6Mo1
LiMg6Cd,mp-1021276,0.0,3.03957888,0.040547068750000026,"{3: 1, 12: 6, 48: 1}","[3, 12, 48]",31126481,Li1Mg6Cd1
LiMg6Sn,mp-1021403,0.0,3.95032318,0.06339297906249985,"{3: 1, 12: 6, 50: 1}","[3, 12, 50]",31126501,Li1Mg6Sn1
LiMg6Sb,mp-1021277,0.0,3.96610867,0.1307082893749998,"{3: 1, 12: 6, 51: 1}","[3, 12, 51]",31126511,Li1Mg6Sb1
CsLiMg6,mp-1021289,0.0,2.50603492,0.3053529281752878,"{55: 1, 3: 1, 12: 6}","[3, 12, 55]",31126551,Cs1Li1Mg6
LiLaMg6,mp-1021296,0.0,3.57730059,0.1278943412500002,"{3: 1, 57: 1, 12: 6}","[3, 12, 57]",31126571,Li1La1Mg6
LiCeMg6,mp-1021521,0.0,2.13005579,0.1239293379166666,"{3: 1, 58: 1, 12: 6}","[3, 12, 58]",31126581,Li1Ce1Mg6
LiHfMg6,mp-1017482,0.0,3.1308187,0.16912297874999993,"{3: 1, 72: 1, 12: 6}","[3, 12, 72]",31126721,Li1Hf1Mg6
LiMg6W,mp-1021322,0.0,3.50371454,0.26919510666666646,"{3: 1, 12: 6, 74: 1}","[3, 12, 74]",31126741,Li1Mg6W1
LiMg6Bi,mp-1021273,0.0,3.72815782,0.10214733624999961,"{3: 1, 12: 6, 83: 1}","[3, 12, 83]",31126831,Li1Mg6Bi1
LiMg7,mp-1016274,0.0,2.88614996,0.015689256875000446,"{3: 1, 12: 7}","[3, 12]",31127,Li1Mg7
Li(Mg2Si)4,mp-1104791,0.0,4.9797458,0.033204025865383624,"{3: 1, 12: 8, 14: 4}","[3, 12, 14]",31128144,Li1Mg8Si4
LiAl,mp-1067,0.0,4.71681619,0.0,"{3: 1, 13: 1}","[3, 13]",31131,Li1Al1
LiAlSi,mp-3161,0.11209999999999987,4.89920206,0.0,"{3: 1, 13: 1, 14: 1}","[3, 13, 14]",31131141,Li1Al1Si1
LiAlP2,mp-1198560,0.0,4.91822151,0.3267285309375003,"{3: 1, 13: 1, 15: 2}","[3, 13, 15]",31131152,Li1Al1P2
LiAl(PS3)2,mp-1188124,2.749,2.32661532,0.0,"{3: 1, 13: 1, 15: 2, 16: 6}","[3, 13, 15, 16]",31131152166,Li1Al1P2S6
K2LiAlP2,mp-6450,1.8853,2.54664006,0.0,"{19: 2, 3: 1, 13: 1, 15: 2}","[3, 13, 15, 19]",31131152192,K2Li1Al1P2
LiAlS2,mp-1106183,4.1061000000000005,5.75541248,0.0,"{3: 1, 13: 1, 16: 2}","[3, 13, 16]",31131162,Li1Al1S2
LiAlCl4,mp-22983,5.5616,-1.38237934,0.0,"{3: 1, 13: 1, 17: 4}","[3, 13, 17]",31131174,Li1Al1Cl4
LiCa2Al,mp-862632,0.0,2.40985658,0.0,"{3: 1, 20: 2, 13: 1}","[3, 13, 20]",31131202,Li1Ca2Al1
LiSc2Al,mp-1095751,0.2319,-2.47768939,2.5573584841666674,"{3: 1, 21: 2, 13: 1}","[3, 13, 21]",31131212,Li1Sc2Al1
LiAlNi2,mp-867812,0.0,6.56872948,0.01952963520833606,"{3: 1, 13: 1, 28: 2}","[3, 13, 28]",31131282,Li1Al1Ni2
LiAlZn2,mp-1185304,0.0,3.9871306,0.0016959008333321535,"{3: 1, 13: 1, 30: 2}","[3, 13, 30]",31131302,Li1Al1Zn2
LiAlGa2,mp-1097579,0.6543000000000001,-2.47933013,1.3784889335,"{3: 1, 13: 1, 31: 2}","[3, 13, 31]",31131312,Li1Al1Ga2
LiAlGe,mp-5920,0.05269999999999975,4.9768912,0.0,"{3: 1, 13: 1, 32: 1}","[3, 13, 32]",31131321,Li1Al1Ge1
LiAlAs2,mp-1201040,0.014300000000000423,3.91323648,0.2469927418749993,"{3: 1, 13: 1, 33: 2}","[3, 13, 33]",31131332,Li1Al1As2
LiAlSe2,mp-7117,3.0233,1.23473877,0.0,"{3: 1, 13: 1, 34: 2}","[3, 13, 34]",31131342,Li1Al1Se2
SrLiAlSb2,mp-1218153,0.0,4.16942631,0.029460242999999497,"{38: 1, 3: 1, 13: 1, 51: 2}","[3, 13, 38, 51]",31131381512,Sr1Li1Al1Sb2
Sr2LiAl,mp-1097457,0.029499999999999638,-2.53001448,1.5197268963888888,"{38: 2, 3: 1, 13: 1}","[3, 13, 38]",31131382,Sr2Li1Al1
LiAlRh2,mp-862297,0.0,5.55971967,0.0,"{3: 1, 13: 1, 45: 2}","[3, 13, 45]",31131452,Li1Al1Rh2
LiAlPd,mp-1206725,0.0,5.18972611,0.11548561083333375,"{3: 1, 13: 1, 46: 1}","[3, 13, 46]",31131461,Li1Al1Pd1
LiAlPd2,mp-867820,0.0,5.56336261,0.0,"{3: 1, 13: 1, 46: 2}","[3, 13, 46]",31131462,Li1Al1Pd2
LiAlAg2,mp-11947,0.0,5.00448206,0.0,"{3: 1, 13: 1, 47: 2}","[3, 13, 47]",31131472,Li1Al1Ag2
LiAlTe2,mp-4586,2.4411,2.55454027,0.0,"{3: 1, 13: 1, 52: 2}","[3, 13, 52]",31131522,Li1Al1Te2
LiLa2Al,mp-973874,0.0,6.21302485,0.02777335364583422,"{3: 1, 57: 2, 13: 1}","[3, 13, 57]",31131572,Li1La2Al1
LiCe2Al,mp-1185234,0.0,6.04816347,0.13615519541666643,"{3: 1, 58: 2, 13: 1}","[3, 13, 58]",31131582,Li1Ce2Al1
LiPr2Al,mp-1185391,0.0,3.26838809,0.01447240645833503,"{3: 1, 59: 2, 13: 1}","[3, 13, 59]",31131592,Li1Pr2Al1
LiNd2Al,mp-866017,0.0,3.23810504,0.008795741770832421,"{3: 1, 60: 2, 13: 1}","[3, 13, 60]",31131602,Li1Nd2Al1
LiPm2Al,mp-861948,0.0,3.1573196,0.004703284999997948,"{3: 1, 61: 2, 13: 1}","[3, 13, 61]",31131612,Li1Pm2Al1
LiSm2Al,mp-1185458,0.0,3.08023813,0.006355630052087946,"{3: 1, 62: 2, 13: 1}","[3, 13, 62]",31131622,Li1Sm2Al1
LiGd2Al,mp-1185392,0.0,3.0414074,0.006683447333333703,"{3: 1, 64: 2, 13: 1}","[3, 13, 64]",31131642,Li1Gd2Al1
LiDy2Al,mp-861913,0.0,3.14340011,0.008685380208333981,"{3: 1, 66: 2, 13: 1}","[3, 13, 66]",31131662,Li1Dy2Al1
LiHo2Al,mp-973841,0.0,3.08958479,0.010715533333332417,"{3: 1, 67: 2, 13: 1}","[3, 13, 67]",31131672,Li1Ho2Al1
LiEr2Al,mp-862493,0.0,3.10903246,0.01488029208332975,"{3: 1, 68: 2, 13: 1}","[3, 13, 68]",31131682,Li1Er2Al1
LiTm2Al,mp-867873,0.0,3.09208423,0.0,"{3: 1, 69: 2, 13: 1}","[3, 13, 69]",31131692,Li1Tm2Al1
LiLu2Al,mp-973058,0.0,3.12160767,0.004134654999997878,"{3: 1, 71: 2, 13: 1}","[3, 13, 71]",31131712,Li1Lu2Al1
LiAlIr2,mp-1096540,0.0748000000000002,-3.74897323,3.1965140950000013,"{3: 1, 13: 1, 77: 2}","[3, 13, 77]",31131772,Li1Al1Ir2
LiAlPt,mp-1025063,0.0,6.54141327,0.10021248083333134,"{3: 1, 13: 1, 78: 1}","[3, 13, 78]",31131781,Li1Al1Pt1
LiAlPt2,mp-862296,0.0,7.09136783,0.0,"{3: 1, 13: 1, 78: 2}","[3, 13, 78]",31131782,Li1Al1Pt2
LiAlAu,mp-1206281,0.0,5.6588847,0.09991116285714341,"{3: 1, 13: 1, 79: 1}","[3, 13, 79]",31131791,Li1Al1Au1
LiAlAu2,mp-862717,0.0,5.58062537,0.0,"{3: 1, 13: 1, 79: 2}","[3, 13, 79]",31131792,Li1Al1Au2
LiAlHg2,mp-1096281,0.0,-2.53035973,1.0276233837500008,"{3: 1, 13: 1, 80: 2}","[3, 13, 80]",31131802,Li1Al1Hg2
LiAl2,mp-1211134,0.0,4.441121,0.36599554749999985,"{3: 1, 13: 2}","[3, 13]",31132,Li1Al2
LiAl2Co,mp-1097153,0.05909999999999993,-2.46341049,2.3180182317361124,"{3: 1, 13: 2, 27: 1}","[3, 13, 27]",31132271,Li1Al2Co1
LiAl2Ni,mp-862318,0.0,7.94366625,0.0,"{3: 1, 13: 2, 28: 1}","[3, 13, 28]",31132281,Li1Al2Ni1
LiAl2Ge,mp-1207174,0.0,5.29648862,0.293557760000001,"{3: 1, 13: 2, 32: 1}","[3, 13, 32]",31132321,Li1Al2Ge1
LiAl2Tc,mp-982666,0.0,6.71796789,0.024522562857145047,"{3: 1, 13: 2, 43: 1}","[3, 13, 43]",31132431,Li1Al2Tc1
LiAl2Ru,mp-1264151,0.0,-2.05557226,2.641929354166667,"{3: 1, 13: 2, 44: 1}","[3, 13, 44]",31132441,Li1Al2Ru1
LiAl2Rh,mp-30821,0.0,7.03547348,0.0,"{3: 1, 13: 2, 45: 1}","[3, 13, 45]",31132451,Li1Al2Rh1
LiAl2Pd,mp-30817,0.0,7.66538372,0.0,"{3: 1, 13: 2, 46: 1}","[3, 13, 46]",31132461,Li1Al2Pd1
Li11Ge6,mp-29631,0.0,1.52581825,0.014863323235294601,"{3: 11, 32: 6}","[3, 32]",311326,Li11Ge6
LiAl2Os,mp-982667,0.0,6.89661264,0.02261172166666725,"{3: 1, 13: 2, 76: 1}","[3, 13, 76]",31132761,Li1Al2Os1
LiAl2Ir,mp-11512,0.0,7.66293874,0.0,"{3: 1, 13: 2, 77: 1}","[3, 13, 77]",31132771,Li1Al2Ir1
LiAl2Pt,mp-30819,0.0,8.03640257,0.0,"{3: 1, 13: 2, 78: 1}","[3, 13, 78]",31132781,Li1Al2Pt1
LiAl2Au,mp-1185321,0.0,7.20575351,0.015241723749998215,"{3: 1, 13: 2, 79: 1}","[3, 13, 79]",31132791,Li1Al2Au1
LiAl3,mp-10890,0.0,6.08130503,0.0109495750000006,"{3: 1, 13: 3}","[3, 13]",31133,Li1Al3
LiCaAl3,mp-1079781,0.0,4.08671313,0.4720190999999998,"{3: 1, 20: 1, 13: 3}","[3, 13, 20]",31133201,Li1Ca1Al3
LiSi,mp-795,0.0,4.69079616,0.012245563601190668,"{3: 1, 14: 1}","[3, 14]",31141,Li1Si1
LiScSi,mp-962070,0.44499999999999984,2.4237663,0.5955924511904742,"{3: 1, 21: 1, 14: 1}","[3, 14, 21]",31141211,Li1Sc1Si1
LiCo2Si,mp-867293,0.0,6.291582,0.0,"{3: 1, 27: 2, 14: 1}","[3, 14, 27]",31141272,Li1Co2Si1
LiSiNi2,mp-10181,0.0,8.17937719,0.0,"{3: 1, 14: 1, 28: 2}","[3, 14, 28]",31141282,Li1Si1Ni2
LiGaSi,mp-11390,0.18850000000000033,4.75435706,0.0746051049999994,"{3: 1, 31: 1, 14: 1}","[3, 14, 31]",31141311,Li1Ga1Si1
SrLiSi,mp-1208612,0.0,2.50073873,0.09032883066666919,"{38: 1, 3: 1, 14: 1}","[3, 14, 38]",31141381,Sr1Li1Si1
LiSiRu2,mp-865838,0.0,7.23842172,0.0,"{3: 1, 14: 1, 44: 2}","[3, 14, 44]",31141442,Li1Si1Ru2
LiSiRh2,mp-867902,0.0,6.90788123,0.0,"{3: 1, 14: 1, 45: 2}","[3, 14, 45]",31141452,Li1Si1Rh2
LiSiPd2,mp-864997,0.0,6.26790772,0.0,"{3: 1, 14: 1, 46: 2}","[3, 14, 46]",31141462,Li1Si1Pd2
LiSiAg2,mp-1185425,0.0,4.45018139,0.03132148499999854,"{3: 1, 14: 1, 47: 2}","[3, 14, 47]",31141472,Li1Si1Ag2
LiInSi,mp-1100436,0.0,5.53800567,0.3377599783333318,"{3: 1, 49: 1, 14: 1}","[3, 14, 49]",31141491,Li1In1Si1
LiPm2Si,mp-863697,0.0,3.98909495,0.0,"{3: 1, 61: 2, 14: 1}","[3, 14, 61]",31141612,Li1Pm2Si1
LiSiIr2,mp-865933,0.0,8.48083075,0.0,"{3: 1, 14: 1, 77: 2}","[3, 14, 77]",31141772,Li1Si1Ir2
LiSiPt2,mp-1185419,0.0,7.93836185,0.017619496874998752,"{3: 1, 14: 1, 78: 2}","[3, 14, 78]",31141782,Li1Si1Pt2
LiSiAu2,mp-1093675,0.1272000000000002,-3.39245985,1.425663903749998,"{3: 1, 14: 1, 79: 2}","[3, 14, 79]",31141792,Li1Si1Au2
LiAc2Si,mp-861876,0.0,6.00909695,0.0,"{3: 1, 89: 2, 14: 1}","[3, 14, 89]",31141892,Li1Ac2Si1
LiCaSi2,mp-13916,0.0,4.20375913,0.0,"{3: 1, 20: 1, 14: 2}","[3, 14, 20]",31142201,Li1Ca1Si2
Li(SiRh)2,mp-975044,0.0,7.57822716,0.0,"{3: 1, 14: 2, 45: 2}","[3, 14, 45]",31142452,Li1Si2Rh2
LiCeSi2,mp-1106082,0.0,6.59126829,0.0,"{3: 1, 58: 1, 14: 2}","[3, 14, 58]",31142581,Li1Ce1Si2
Li(NdSi)2,mp-1091362,0.0,3.80056203,0.014240214333332446,"{3: 1, 60: 2, 14: 2}","[3, 14, 60]",31142602,Li1Nd2Si2
LiSi2Ir,mp-1096288,0.22310000000000008,-3.14188408,2.4795053073214284,"{3: 1, 14: 2, 77: 1}","[3, 14, 77]",31142771,Li1Si2Ir1
LiSi3,mp-975321,0.0,7.63584529,0.31058448273809525,"{3: 1, 14: 3}","[3, 14]",31143,Li1Si3
LiCa2Si3,mp-20150,0.0,4.46303555,0.0,"{3: 1, 20: 2, 14: 3}","[3, 14, 20]",31143202,Li1Ca2Si3
Sr2LiSi3,mp-15551,0.0,3.93621424,0.0,"{38: 2, 3: 1, 14: 3}","[3, 14, 38]",31143382,Sr2Li1Si3
LiSi3Pd,mp-20747,0.0,6.51808655,0.3891782534421768,"{3: 1, 14: 3, 46: 1}","[3, 14, 46]",31143461,Li1Si3Pd1
LiEu2Si3,mp-581678,0.0,4.35588829,0.0,"{3: 1, 63: 2, 14: 3}","[3, 14, 63]",31143632,Li1Eu2Si3
K3LiSi4,mp-28316,1.5221999999999998,1.71124698,0.006832259978741817,"{19: 3, 3: 1, 14: 4}","[3, 14, 19]",31144193,K3Li1Si4
Li(SiNi)6,mp-15950,0.0,9.225335,0.0017566245897429056,"{3: 1, 14: 6, 28: 6}","[3, 14, 28]",31146286,Li1Si6Ni6
K7LiSi8,mp-3949,1.6927,1.39142849,0.0,"{19: 7, 3: 1, 14: 8}","[3, 14, 19]",31148197,K7Li1Si8
LiP,mp-9588,0.8094999999999999,4.12805224,0.0,"{3: 1, 15: 1}","[3, 15]",31151,Li1P1
LiZnPS4,mp-11175,2.7311999999999994,1.76933536,0.0,"{3: 1, 30: 1, 15: 1, 16: 4}","[3, 15, 16, 30]",31151164301,Li1Zn1P1S4
LiEuPS4,mp-672252,0.15229999999999944,4.38011115,0.0,"{3: 1, 63: 1, 15: 1, 16: 4}","[3, 15, 16, 63]",31151164631,Li1Eu1P1S4
LiCaP,mp-1211088,1.3986999999999998,4.66503179,0.0,"{3: 1, 20: 1, 15: 1}","[3, 15, 20]",31151201,Li1Ca1P1
LiMnP,mp-1176614,0.0,5.09539531,0.0,"{3: 1, 25: 1, 15: 1}","[3, 15, 25]",31151251,Li1Mn1P1
LiNiP,mp-754516,0.0,5.33395495,0.03949126666666203,"{3: 1, 28: 1, 15: 1}","[3, 15, 28]",31151281,Li1Ni1P1
Li11Mn12(BO3)12,mp-766526,0.0,1.80976615,0.022001089190140988,"{3: 11, 25: 12, 5: 12, 8: 36}","[3, 5, 8, 25]",3115128362512,Li11Mn12B12O36
LiZnP,mp-10182,1.3386,3.19037878,0.0,"{3: 1, 30: 1, 15: 1}","[3, 15, 30]",31151301,Li1Zn1P1
LiEuPSe4,mp-777825,0.0,3.77839126,0.016006834795920355,"{3: 1, 63: 1, 15: 1, 34: 4}","[3, 15, 34, 63]",31151344631,Li1Eu1P1Se4
SrLiP,mp-13276,1.3430999999999997,2.7438178,0.0,"{38: 1, 3: 1, 15: 1}","[3, 15, 38]",31151381,Sr1Li1P1
LiPRu2,mp-1096601,0.40370000000000017,-3.46811233,2.918955805416669,"{3: 1, 15: 1, 44: 2}","[3, 15, 44]",31151442,Li1P1Ru2
LiPRh2,mp-1096567,0.1155999999999997,-3.56096683,2.42483393775,"{3: 1, 15: 1, 45: 2}","[3, 15, 45]",31151452,Li1P1Rh2
LiPPd2,mp-1095728,0.21120000000000028,-3.84592892,2.0194428091666676,"{3: 1, 15: 1, 46: 2}","[3, 15, 46]",31151462,Li1P1Pd2
LiCdP,mp-10687,0.0,2.82531011,0.2234345394444457,"{3: 1, 48: 1, 15: 1}","[3, 15, 48]",31151481,Li1Cd1P1
LiEuP,mp-1211143,0.0,3.79784407,0.0,"{3: 1, 63: 1, 15: 1}","[3, 15, 63]",31151631,Li1Eu1P1
LiNi(PS3)2,mp-557500,0.0,3.61932685,0.03368544548958763,"{3: 1, 28: 1, 15: 2, 16: 6}","[3, 15, 16, 28]",31152166281,Li1Ni1P2S6
LiCrP2S7,mp-1176770,1.4187000000000003,2.64363502,0.03997085699242309,"{3: 1, 24: 1, 15: 2, 16: 7}","[3, 15, 16, 24]",31152167241,Li1Cr1P2S7
CsLiU(PS4)2,mp-1204089,0.15300000000000002,3.59778316,0.0,"{55: 1, 3: 1, 92: 1, 15: 2, 16: 8}","[3, 15, 16, 55, 92]",31152168551921,Cs1Li1U1P2S8
LiMnP2,mp-1211089,0.0,5.39467751,0.8260210235185195,"{3: 1, 25: 1, 15: 2}","[3, 15, 25]",31152251,Li1Mn1P2
Li(NiP)2,mp-8310,0.0,7.18928938,0.0,"{3: 1, 28: 2, 15: 2}","[3, 15, 28]",31152282,Li1Ni2P2
LiNi3P2,mp-685439,0.0,7.80576237,0.00025749011904707686,"{3: 1, 28: 3, 15: 2}","[3, 15, 28]",31152283,Li1Ni3P2
LiP3,mp-1025406,0.0,6.45597596,0.6552891627232134,"{3: 1, 15: 3}","[3, 15]",31153,Li1P3
LiCr2(PS4)3,mp-778530,0.0,1.46091783,0.016180438712962264,"{3: 1, 24: 2, 15: 3, 16: 12}","[3, 15, 16, 24]",311531612242,Li1Cr2P3S12
Li(Co3P2)2,mp-8864,0.0,7.58931273,0.0,"{3: 1, 27: 6, 15: 4}","[3, 15, 27]",31154276,Li1Co6P4
LiP5,mp-2412,1.2571000000000003,4.42335994,0.007694938690475439,"{3: 1, 15: 5}","[3, 15]",31155,Li1P5
LiP7,mp-27687,1.6526999999999998,3.75757214,0.0,"{3: 1, 15: 7}","[3, 15]",31157,Li1P7
LiS,mp-1180520,0.4295,2.75217477,0.15409723171874923,"{3: 1, 16: 1}","[3, 16]",31161,Li1S1