formula,material_id,band_gap,efermi,energy_above_hull,comp_atoms,sorted_keys_comp_atoms,comp_number,new_formula
Li3B(PO4)2,mp-1020022,6.1272,1.00923245,0.013199622142855638,"{3: 3, 5: 1, 15: 2, 8: 8}","[3, 5, 8, 15]",335188152,Li3B1P2O8
Li3Te,mp-1185280,0.0,3.79869014,0.06874713041666602,"{3: 3, 52: 1}","[3, 52]",33521,Li3Te1
Li3V3(BO5)2,mp-770155,1.2932000000000001,2.60421717,0.049207531666662696,"{3: 3, 23: 3, 5: 2, 8: 10}","[3, 5, 8, 23]",3352810233,Li3V3B2O10
Li3Al(BO3)2,mp-6097,4.8248,0.92904307,0.021378956041662178,"{3: 3, 13: 1, 5: 2, 8: 6}","[3, 5, 8, 13]",335286131,Li3Al1B2O6
Li3Sc(BO3)2,mp-557012,4.1608,0.90726512,0.0022469566666654117,"{3: 3, 21: 1, 5: 2, 8: 6}","[3, 5, 8, 21]",335286211,Li3Sc1B2O6
Li3Ti(BO3)2,mp-770194,0.1673,5.08112912,0.08733163046473802,"{3: 3, 22: 1, 5: 2, 8: 6}","[3, 5, 8, 22]",335286221,Li3Ti1B2O6
Li3V(BO3)2,mp-772628,2.1818,2.064131,0.03914621374999072,"{3: 3, 23: 1, 5: 2, 8: 6}","[3, 5, 8, 23]",335286231,Li3V1B2O6
Li3Cr(BO3)2,mp-760283,2.8884,1.60658311,0.04046060270833163,"{3: 3, 24: 1, 5: 2, 8: 6}","[3, 5, 8, 24]",335286241,Li3Cr1B2O6
Li3Mn(BO3)2,mp-770910,0.9808999999999999,1.49434215,0.024560782916666746,"{3: 3, 25: 1, 5: 2, 8: 6}","[3, 5, 8, 25]",335286251,Li3Mn1B2O6
Li3Co(BO3)2,mp-756335,1.1890999999999998,0.30767436,0.06287064208332716,"{3: 3, 27: 1, 5: 2, 8: 6}","[3, 5, 8, 27]",335286271,Li3Co1B2O6
Li3Ni(BO3)2,mp-770786,0.0,1.70825519,0.049782941111116585,"{3: 3, 28: 1, 5: 2, 8: 6}","[3, 5, 8, 28]",335286281,Li3Ni1B2O6
Li3Ga(BO3)2,mp-556014,4.1682,0.13798197,0.022149876874998142,"{3: 3, 31: 1, 5: 2, 8: 6}","[3, 5, 8, 31]",335286311,Li3Ga1B2O6
Li3In(BO3)2,mp-556799,3.6903999999999995,1.7821094,0.009382464062500873,"{3: 3, 49: 1, 5: 2, 8: 6}","[3, 5, 8, 49]",335286491,Li3In1B2O6
Li3Sn(BO3)2,mp-770286,1.5029,2.0401865,0.07137251697916636,"{3: 3, 50: 1, 5: 2, 8: 6}","[3, 5, 8, 50]",335286501,Li3Sn1B2O6
Li3B2SbO6,mp-770402,2.7455,1.41543199,0.059398175000001,"{3: 3, 5: 2, 51: 1, 8: 6}","[3, 5, 8, 51]",335286511,Li3B2Sb1O6
Li3Gd(BO3)2,mp-559706,2.9198,3.68852379,0.0,"{3: 3, 64: 1, 5: 2, 8: 6}","[3, 5, 8, 64]",335286641,Li3Gd1B2O6
Li3Bi(BO3)2,mp-768820,3.2169,1.74266573,0.0,"{3: 3, 83: 1, 5: 2, 8: 6}","[3, 5, 8, 83]",335286831,Li3Bi1B2O6
CsLi3I4,mp-1184020,4.2797,0.29692407,0.010985520625001577,"{55: 1, 3: 3, 53: 4}","[3, 53, 55]",33534551,Cs1Li3I4
Cs2Li3I5,mp-1080534,3.8569,0.28391595,0.011452729999999356,"{55: 2, 3: 3, 53: 5}","[3, 53, 55]",33535552,Cs2Li3I5
Cs2Sr2Li3B3(PO4)6,mp-1019609,5.6029,0.89373506,0.0,"{55: 2, 38: 2, 3: 3, 5: 3, 15: 6, 8: 24}","[3, 5, 8, 15, 38, 55]",3353824156382552,Cs2Sr2Li3B3P6O24
Cs2Li3B3P6(PbO12)2,mp-1196318,5.0959,1.77440524,0.0,"{55: 2, 3: 3, 5: 3, 15: 6, 82: 2, 8: 24}","[3, 5, 8, 15, 55, 82]",3353824156552822,Cs2Li3B3P6Pb2O24
Li3La2(BO3)3,mp-1211607,4.504899999999999,3.13087227,0.0031659916176476344,"{3: 3, 57: 2, 5: 3, 8: 9}","[3, 5, 8, 57]",335389572,Li3La2B3O9
Li3Ce2(BO3)3,mp-1211185,0.2344999999999997,6.37632678,0.03199409131535713,"{3: 3, 58: 2, 5: 3, 8: 9}","[3, 5, 8, 58]",335389582,Li3Ce2B3O9
Li3Pr2(BO3)3,mp-13772,4.486,1.91002415,0.0,"{3: 3, 59: 2, 5: 3, 8: 9}","[3, 5, 8, 59]",335389592,Li3Pr2B3O9
Li3Nd2(BO3)3,mp-15362,4.4838000000000005,1.76566857,0.005263666764705022,"{3: 3, 60: 2, 5: 3, 8: 9}","[3, 5, 8, 60]",335389602,Li3Nd2B3O9
Li3Sm2(BO3)3,mp-1211228,4.832000000000001,1.7747915,0.012104743161757803,"{3: 3, 62: 2, 5: 3, 8: 9}","[3, 5, 8, 62]",335389622,Li3Sm2B3O9
Li3Eu2(BO3)3,mp-1098016,0.03270000000000001,0.11082761,0.2640541980882354,"{3: 3, 63: 2, 5: 3, 8: 9}","[3, 5, 8, 63]",335389632,Li3Eu2B3O9
Li3Bi2(BO3)3,mp-768798,3.2060000000000004,2.87971745,0.04771272602941945,"{3: 3, 83: 2, 5: 3, 8: 9}","[3, 5, 8, 83]",335389832,Li3Bi2B3O9
Li3Mn3(BO3)4,mp-766488,0.4958,1.25168637,0.09528249879261441,"{3: 3, 25: 3, 5: 4, 8: 12}","[3, 5, 8, 25]",3354812253,Li3Mn3B4O12
Li3Mn4(BO3)4,mp-776994,0.20970000000000022,1.98063808,0.03676547721015133,"{3: 3, 25: 4, 5: 4, 8: 12}","[3, 5, 8, 25]",3354812254,Li3Mn4B4O12
Li3Co4(BO3)4,mp-768439,0.22420000000000018,1.87843518,0.17859550913041122,"{3: 3, 27: 4, 5: 4, 8: 12}","[3, 5, 8, 27]",3354812274,Li3Co4B4O12
Li3VB4O9,mp-768885,2.7324,1.95207633,0.06437003661763807,"{3: 3, 23: 1, 5: 4, 8: 9}","[3, 5, 8, 23]",335489231,Li3V1B4O9
Li3CrB4O9,mp-752710,1.7649000000000001,1.56655513,0.09840133488970704,"{3: 3, 24: 1, 5: 4, 8: 9}","[3, 5, 8, 24]",335489241,Li3Cr1B4O9
Li3MnB4O9,mp-768410,0.4887999999999999,1.20403387,0.07793494597428019,"{3: 3, 25: 1, 5: 4, 8: 9}","[3, 5, 8, 25]",335489251,Li3Mn1B4O9
Li3BiB4O9,mp-768715,3.6483,1.65125194,0.060758965441183754,"{3: 3, 83: 1, 5: 4, 8: 9}","[3, 5, 8, 83]",335489831,Li3Bi1B4O9
Li3V(BO2)5,mp-770344,2.4248,5.35859814,0.06888383669955722,"{3: 3, 23: 1, 5: 5, 8: 10}","[3, 5, 8, 23]",3355810231,Li3V1B5O10
Li3Mn(BO2)5,mp-768488,3.781,5.05512859,0.051195551657894356,"{3: 3, 25: 1, 5: 5, 8: 10}","[3, 5, 8, 25]",3355810251,Li3Mn1B5O10
Li3Co(BO2)5,mp-768669,3.0380000000000003,1.09660562,0.11728547982455861,"{3: 3, 27: 1, 5: 5, 8: 10}","[3, 5, 8, 27]",3355810271,Li3Co1B5O10
Li3Ni(BO2)5,mp-771081,3.8409999999999997,5.0269243,0.06671305151315554,"{3: 3, 28: 1, 5: 5, 8: 10}","[3, 5, 8, 28]",3355810281,Li3Ni1B5O10
Li3Sn(BO2)5,mp-768284,3.761,1.21862061,0.058434397302624674,"{3: 3, 50: 1, 5: 5, 8: 10}","[3, 5, 8, 50]",3355810501,Li3Sn1B5O10
Cs2Li3(BO2)5,mp-966802,4.5354,-0.16478163,0.006559990763888912,"{55: 2, 3: 3, 5: 5, 8: 10}","[3, 5, 8, 55]",3355810552,Cs2Li3B5O10
Li3MnB6O13,mp-779068,1.9312,0.94686226,0.08883289625646729,"{3: 3, 25: 1, 5: 6, 8: 13}","[3, 5, 8, 25]",3356813251,Li3Mn1B6O13
Li3La,mp-1185192,0.0,2.40756969,0.20126277874999943,"{3: 3, 57: 1}","[3, 57]",33571,Li3La1
Li3LaBi2,mp-1018768,0.1578999999999997,4.68304549,0.0,"{3: 3, 57: 1, 83: 2}","[3, 57, 83]",33571832,Li3La1Bi2
Li3B7O12,mp-16828,5.6047,0.26899749,0.0,"{3: 3, 5: 7, 8: 12}","[3, 5, 8]",3357812,Li3B7O12
K9Li3Nd3(BO3)7,mp-1195894,3.7614,4.26011774,0.0,"{19: 9, 3: 3, 60: 3, 5: 7, 8: 21}","[3, 5, 8, 19, 60]",3357821199603,K9Li3Nd3B7O21
Li3Ce,mp-1185231,0.0,1.87069647,0.3336341362499997,"{3: 3, 58: 1}","[3, 58]",33581,Li3Ce1
Li3CeBi2,mp-1018762,0.0,4.74959477,0.0,"{3: 3, 58: 1, 83: 2}","[3, 58, 83]",33581832,Li3Ce1Bi2
Li35(RuO4)12,mp-757535,0.0,2.50544839,0.003406417820174923,"{3: 35, 44: 12, 8: 48}","[3, 8, 44]",3358484412,Li35Ru12O48
Li3B8O15,mp-1203033,0.02279999999999993,-0.71657612,0.12478749822113233,"{3: 3, 5: 8, 8: 15}","[3, 5, 8]",3358815,Li3B8O15
Li3MnB8O15,mp-777353,1.3799000000000001,-0.45412639,0.08271944482446614,"{3: 3, 25: 1, 5: 8, 8: 15}","[3, 5, 8, 25]",3358815251,Li3Mn1B8O15
Li3BiB8O15,mp-777730,4.0047999999999995,-0.02114091,0.0666173227777831,"{3: 3, 83: 1, 5: 8, 8: 15}","[3, 5, 8, 83]",3358815831,Li3Bi1B8O15
Li3Pr,mp-976321,0.0,0.86823269,0.18982213125000058,"{3: 3, 59: 1}","[3, 59]",33591,Li3Pr1
Li3PrBi2,mp-1018770,0.0,3.95974913,0.0,"{3: 3, 59: 1, 83: 2}","[3, 59, 83]",33591832,Li3Pr1Bi2
Li3Nd,mp-976264,0.0,0.8139864,0.19684769312500094,"{3: 3, 60: 1}","[3, 60]",33601,Li3Nd1
Li3C,mp-976060,0.0,1.92359791,0.4763936750694442,"{3: 3, 6: 1}","[3, 6]",3361,Li3C1
Li3Pm,mp-1185206,0.0,0.87253777,0.19996609812499955,"{3: 3, 61: 1}","[3, 61]",33611,Li3Pm1
Li3CN2,mp-1247387,0.4981,4.51611853,0.15692114152777759,"{3: 3, 6: 1, 7: 2}","[3, 6, 7]",336172,Li3C1N2
Li3MgPCO7,mp-768190,5.3898,1.10561,0.04533298961538623,"{3: 3, 12: 1, 15: 1, 6: 1, 8: 7}","[3, 6, 8, 12, 15]",336187121151,Li3Mg1P1C1O7
Li3VSiCO7,mp-768601,1.7442000000000002,2.18965146,0.03403948812500435,"{3: 3, 23: 1, 14: 1, 6: 1, 8: 7}","[3, 6, 8, 14, 23]",336187141231,Li3V1Si1C1O7
Li3CrSiCO7,mp-774236,2.8655,1.50775551,0.037474403653848576,"{3: 3, 24: 1, 14: 1, 6: 1, 8: 7}","[3, 6, 8, 14, 24]",336187141241,Li3Cr1Si1C1O7
Li3MnSiCO7,mp-772668,0.8431000000000002,1.71284333,0.04134151003923403,"{3: 3, 25: 1, 14: 1, 6: 1, 8: 7}","[3, 6, 8, 14, 25]",336187141251,Li3Mn1Si1C1O7
Li3CoSiCO7,mp-770659,0.8796999999999999,1.60746425,0.10594373782050681,"{3: 3, 27: 1, 14: 1, 6: 1, 8: 7}","[3, 6, 8, 14, 27]",336187141271,Li3Co1Si1C1O7
Li3SiSbCO7,mp-771304,3.4543,2.62238026,0.0876217138461497,"{3: 3, 14: 1, 51: 1, 6: 1, 8: 7}","[3, 6, 8, 14, 51]",336187141511,Li3Si1Sb1C1O7
Li3SiBiCO7,mp-768609,3.1966,1.8760218,0.07384226743589473,"{3: 3, 14: 1, 83: 1, 6: 1, 8: 7}","[3, 6, 8, 14, 83]",336187141831,Li3Si1Bi1C1O7
Li3CaPCO7,mp-768169,4.872999999999999,0.72160055,0.0814614469230781,"{3: 3, 20: 1, 15: 1, 6: 1, 8: 7}","[3, 6, 8, 15, 20]",336187151201,Li3Ca1P1C1O7
Li3TiPCO7,mp-25462,0.10170000000000012,5.53870997,0.2794797860576921,"{3: 3, 22: 1, 15: 1, 6: 1, 8: 7}","[3, 6, 8, 15, 22]",336187151221,Li3Ti1P1C1O7
Li3VPCO7,mp-25463,2.6239000000000003,3.24799576,0.0685425034615399,"{3: 3, 23: 1, 15: 1, 6: 1, 8: 7}","[3, 6, 8, 15, 23]",336187151231,Li3V1P1C1O7
Li3CrPCO7,mp-25459,2.6266,2.40630245,0.07469476252404483,"{3: 3, 24: 1, 15: 1, 6: 1, 8: 7}","[3, 6, 8, 15, 24]",336187151241,Li3Cr1P1C1O7
Li3MnPCO7,mp-771340,3.8050999999999995,1.79853412,0.04733827346153863,"{3: 3, 25: 1, 15: 1, 6: 1, 8: 7}","[3, 6, 8, 15, 25]",336187151251,Li3Mn1P1C1O7
Li3CoPCO7,mp-25458,2.4231,1.57390396,0.03933515884615435,"{3: 3, 27: 1, 15: 1, 6: 1, 8: 7}","[3, 6, 8, 15, 27]",336187151271,Li3Co1P1C1O7
Li3NiPCO7,mp-25446,4.0127,1.62333941,0.03721470519230863,"{3: 3, 28: 1, 15: 1, 6: 1, 8: 7}","[3, 6, 8, 15, 28]",336187151281,Li3Ni1P1C1O7
Li3ZnPCO7,mp-772753,4.138199999999999,0.88874074,0.04194048346153689,"{3: 3, 30: 1, 15: 1, 6: 1, 8: 7}","[3, 6, 8, 15, 30]",336187151301,Li3Zn1P1C1O7
Li3PWCO7,mp-25404,0.7744999999999997,4.85987541,0.2722401614835217,"{3: 3, 15: 1, 74: 1, 6: 1, 8: 7}","[3, 6, 8, 15, 74]",336187151741,Li3P1W1C1O7
Li3TlPCO7,mp-771334,0.0,2.24589955,0.11016473423077144,"{3: 3, 81: 1, 15: 1, 6: 1, 8: 7}","[3, 6, 8, 15, 81]",336187151811,Li3Tl1P1C1O7
Li3MnAsCO7,mp-771034,2.1045999999999996,1.77533052,0.06015227634615439,"{3: 3, 25: 1, 33: 1, 6: 1, 8: 7}","[3, 6, 8, 25, 33]",336187251331,Li3Mn1As1C1O7
Li3NiAsCO7,mp-771015,2.9590999999999994,1.32604049,0.04733123230769376,"{3: 3, 28: 1, 33: 1, 6: 1, 8: 7}","[3, 6, 8, 28, 33]",336187281331,Li3Ni1As1C1O7
Li3Sm,mp-1185272,0.0,0.83211688,0.20259081374999965,"{3: 3, 62: 1}","[3, 62]",33621,Li3Sm1
Li3SmBi2,mp-1018780,0.0,4.04931154,0.0,"{3: 3, 62: 1, 83: 2}","[3, 62, 83]",33621832,Li3Sm1Bi2
Li3V2(CO5)2,mp-758380,0.001100000000000101,1.9223491,0.0758307530882334,"{3: 3, 23: 2, 6: 2, 8: 10}","[3, 6, 8, 23]",3362810232,Li3V2C2O10
Li3Mn2(CO5)2,mp-758407,0.0,0.97203725,0.09145386512255094,"{3: 3, 25: 2, 6: 2, 8: 10}","[3, 6, 8, 25]",3362810252,Li3Mn2C2O10
Na3Li3Mn2P2(CO7)2,mp-771021,3.5219,2.00694433,0.023688817500007175,"{11: 3, 3: 3, 25: 2, 15: 2, 6: 2, 8: 14}","[3, 6, 8, 11, 15, 25]",3362814113152252,Na3Li3Mn2P2C2O14
Li3Cr2P2(CO7)2,mp-763241,0.11119999999999997,0.45291427,0.048102542028983564,"{3: 3, 24: 2, 15: 2, 6: 2, 8: 14}","[3, 6, 8, 15, 24]",3362814152242,Li3Cr2P2C2O14
Li3Mn2P2(CO7)2,mp-1177646,0.6622,0.52718515,0.02651936670290045,"{3: 3, 25: 2, 15: 2, 6: 2, 8: 14}","[3, 6, 8, 15, 25]",3362814152252,Li3Mn2P2C2O14
Li3Eu,mp-1185227,0.0,0.55825345,0.08981631749999863,"{3: 3, 63: 1}","[3, 63]",33631,Li3Eu1
Li3V(CO3)3,mp-758041,2.6147,0.59825668,0.04795916937500433,"{3: 3, 23: 1, 6: 3, 8: 9}","[3, 6, 8, 23]",336389231,Li3V1C3O9
Li3Cr(CO3)3,mp-765400,2.1942,0.88990382,0.05864357562499656,"{3: 3, 24: 1, 6: 3, 8: 9}","[3, 6, 8, 24]",336389241,Li3Cr1C3O9
Li3Mn(CO3)3,mp-758341,0.6702,0.28214149,0.058859523281251214,"{3: 3, 25: 1, 6: 3, 8: 9}","[3, 6, 8, 25]",336389251,Li3Mn1C3O9
Li3Mn2C3O9F,mp-766471,4.0815,1.4718954,0.052065139166663776,"{3: 3, 25: 2, 6: 3, 8: 9, 9: 1}","[3, 6, 8, 9, 25]",33638991252,Li3Mn2C3O9F1
Li3Gd,mp-1185269,0.0,1.01413284,0.16257343624999976,"{3: 3, 64: 1}","[3, 64]",33641,Li3Gd1
Li3GdBi2,mp-1077469,0.0,3.91844731,0.0,"{3: 3, 64: 1, 83: 2}","[3, 64, 83]",33641832,Li3Gd1Bi2
Li3V2(CO3)4,mp-1644899,0.4979,2.34425103,0.0712401026636913,"{3: 3, 23: 2, 6: 4, 8: 12}","[3, 6, 8, 23]",3364812232,Li3V2C4O12
Li3Mn(CO3)4,mp-758628,0.0242,-0.75522766,0.16530613777083758,"{3: 3, 25: 1, 6: 4, 8: 12}","[3, 6, 8, 25]",3364812251,Li3Mn1C4O12
Li3Mn2(CO3)4,mp-752801,0.5701999999999999,0.23919893,0.056279619166674344,"{3: 3, 25: 2, 6: 4, 8: 12}","[3, 6, 8, 25]",3364812252,Li3Mn2C4O12
Li3Co2(CO3)4,mp-1640104,0.7432,-0.20973101,0.03669179402778244,"{3: 3, 27: 2, 6: 4, 8: 12}","[3, 6, 8, 27]",3364812272,Li3Co2C4O12
Li3Ni2(CO3)4,mp-752720,0.018100000000000005,0.70206092,0.06568531386905008,"{3: 3, 28: 2, 6: 4, 8: 12}","[3, 6, 8, 28]",3364812282,Li3Ni2C4O12
Li3Tb,mp-1185282,0.0,0.87151411,0.21079133125000027,"{3: 3, 65: 1}","[3, 65]",33651,Li3Tb1
Li3Dy,mp-977188,0.0,0.81075214,0.21250930749999952,"{3: 3, 66: 1}","[3, 66]",33661,Li3Dy1
Li3Ho,mp-1185197,0.0,0.82603391,0.21280641124999988,"{3: 3, 67: 1}","[3, 67]",33671,Li3Ho1
Li3Er,mp-977195,0.0,0.77615232,0.21249929875000007,"{3: 3, 68: 1}","[3, 68]",33681,Li3Er1
Li3Tm,mp-1185283,0.0,0.78862925,0.21345819958333223,"{3: 3, 69: 1}","[3, 69]",33691,Li3Tm1
Li3N,mp-2251,0.9840000000000001,0.3339454,0.0,"{3: 3, 7: 1}","[3, 7]",3371,Li3N1
Li3Lu,mp-1185208,0.0,0.8015216,0.21219816999999885,"{3: 3, 71: 1}","[3, 71]",33711,Li3Lu1
Li3V6N11,mp-1246631,0.7609000000000001,1.90223514,0.19042940849999646,"{3: 3, 23: 6, 7: 11}","[3, 7, 23]",33711236,Li3V6N11
Li3SNO3,mp-1222478,4.9652,6.5372476,0.04460543722656318,"{3: 3, 16: 1, 7: 1, 8: 3}","[3, 7, 8, 16]",337183161,Li3S1N1O3
Li3N2,mp-1222421,0.0,-0.46108366,0.7593217765000011,"{3: 3, 7: 2}","[3, 7]",3372,Li3N2
Na3Li3N2,mp-29928,0.0,0.83842763,0.18628931406609173,"{11: 3, 3: 3, 7: 2}","[3, 7, 11]",3372113,Na3Li3N2
Li3AlN2,mp-13944,2.9371,3.00129695,0.0,"{3: 3, 13: 1, 7: 2}","[3, 7, 13]",3372131,Li3Al1N2
Li3ScN2,mp-542435,2.2440999999999995,1.79396778,0.0,"{3: 3, 21: 1, 7: 2}","[3, 7, 21]",3372211,Li3Sc1N2
Li3TiN2,mp-1246937,0.0,5.01396196,0.09539215737847329,"{3: 3, 22: 1, 7: 2}","[3, 7, 22]",3372221,Li3Ti1N2
Li3VN2,mp-1247342,0.0,4.63581553,0.16602511852182378,"{3: 3, 23: 1, 7: 2}","[3, 7, 23]",3372231,Li3V1N2
Li3CrN2,mp-1247472,0.0,4.64226222,0.14320320999999936,"{3: 3, 24: 1, 7: 2}","[3, 7, 24]",3372241,Li3Cr1N2
Li3MnN2,mp-1246635,0.0,4.31944074,0.09838251119047303,"{3: 3, 25: 1, 7: 2}","[3, 7, 25]",3372251,Li3Mn1N2
Li3CoN2,mp-1029492,0.0,3.63768967,0.020552375208334972,"{3: 3, 27: 1, 7: 2}","[3, 7, 27]",3372271,Li3Co1N2
Li3NiN2,mp-1246064,0.0,3.60145982,0.133238519652779,"{3: 3, 28: 1, 7: 2}","[3, 7, 28]",3372281,Li3Ni1N2
Li3GaN2,mp-3887,2.3783,2.32173425,0.0,"{3: 3, 31: 1, 7: 2}","[3, 7, 31]",3372311,Li3Ga1N2
Li3ZrN2,mp-1247372,0.0,4.44986355,0.14134298944444268,"{3: 3, 40: 1, 7: 2}","[3, 7, 40]",3372401,Li3Zr1N2
Li3NbN2,mp-1246022,0.0,4.57620556,0.226841357053571,"{3: 3, 41: 1, 7: 2}","[3, 7, 41]",3372411,Li3Nb1N2
Li3MoN2,mp-1245736,0.0,5.21653067,0.3062986552083329,"{3: 3, 42: 1, 7: 2}","[3, 7, 42]",3372421,Li3Mo1N2
Li3RuN2,mp-1247350,0.0,4.68241956,0.1495565447916647,"{3: 3, 44: 1, 7: 2}","[3, 7, 44]",3372441,Li3Ru1N2
Li3RhN2,mp-1246336,0.0,1.38748656,0.07312692805555443,"{3: 3, 45: 1, 7: 2}","[3, 7, 45]",3372451,Li3Rh1N2
Li3InN2,mp-1029562,1.0920999999999998,3.78190541,0.0,"{3: 3, 49: 1, 7: 2}","[3, 7, 49]",3372491,Li3In1N2
Li3SbN2,mp-1247352,0.5767,1.77213467,0.3503288839351839,"{3: 3, 51: 1, 7: 2}","[3, 7, 51]",3372511,Li3Sb1N2
Li3TaN2,mp-1245553,0.0,5.03979233,0.26006922812499944,"{3: 3, 73: 1, 7: 2}","[3, 7, 73]",3372731,Li3Ta1N2
Li3WN2,mp-1246718,0.0,2.96604552,0.2501789758333324,"{3: 3, 74: 1, 7: 2}","[3, 7, 74]",3372741,Li3W1N2
Li3ReN2,mp-1246502,0.09229999999999983,2.17413543,0.22227800513888774,"{3: 3, 75: 1, 7: 2}","[3, 7, 75]",3372751,Li3Re1N2
Li3OsN2,mp-1245764,0.6377999999999999,1.99596347,0.2783618291666725,"{3: 3, 76: 1, 7: 2}","[3, 7, 76]",3372761,Li3Os1N2
Li3IrN2,mp-1247375,0.8756000000000002,1.76629555,0.02272717263888957,"{3: 3, 77: 1, 7: 2}","[3, 7, 77]",3372771,Li3Ir1N2
Li3AuN2,mp-1247381,0.0,2.77742696,0.4036304691666679,"{3: 3, 79: 1, 7: 2}","[3, 7, 79]",3372791,Li3Au1N2
Li3BiN2,mp-1246199,0.0,4.19737478,0.2945807229861117,"{3: 3, 83: 1, 7: 2}","[3, 7, 83]",3372831,Li3Bi1N2
Li3CaMnN3,mp-569112,0.07319999999999993,3.82414688,0.0,"{3: 3, 20: 1, 25: 1, 7: 3}","[3, 7, 20, 25]",3373201251,Li3Ca1Mn1N3
SrLi3MnN3,mp-570931,0.0,3.65501379,0.0,"{38: 1, 3: 3, 25: 1, 7: 3}","[3, 7, 25, 38]",3373251381,Sr1Li3Mn1N3
Li3SbN3(O3F)3,mp-769129,3.0075,-0.61680105,0.10044837894736958,"{3: 3, 51: 1, 7: 3, 8: 9, 9: 3}","[3, 7, 8, 9, 51]",33738993511,Li3Sb1N3O9F3
Li3W,mp-1185290,0.0,1.40719885,0.9752482049999998,"{3: 3, 74: 1}","[3, 74]",33741,Li3W1
Sr3Li3(NiN)4,mp-568322,0.0,3.46858268,0.0,"{38: 3, 3: 3, 28: 4, 7: 4}","[3, 7, 28, 38]",3374284383,Sr3Li3Ni4N4
Sr2Li3NbN4,mp-541568,2.1148000000000002,2.34949182,0.0,"{38: 2, 3: 3, 41: 1, 7: 4}","[3, 7, 38, 41]",3374382411,Sr2Li3Nb1N4
Sr2Li3TaN4,mp-541569,2.1584,2.35858506,0.0,"{38: 2, 3: 3, 73: 1, 7: 4}","[3, 7, 38, 73]",3374382731,Sr2Li3Ta1N4
Li3Re,mp-983152,0.0,1.5583979,0.8359992687499993,"{3: 3, 75: 1}","[3, 75]",33751,Li3Re1
Li3W2N5,mp-1245410,2.0692000000000004,1.08834951,0.04628759852419151,"{3: 3, 74: 2, 7: 5}","[3, 7, 74]",3375742,Li3W2N5
Li3Co(NO2)6,mp-772317,2.3954999999999997,0.36044803,0.11076502743507266,"{3: 3, 27: 1, 7: 6, 8: 12}","[3, 7, 8, 27]",3376812271,Li3Co1N6O12
Li3Rh(N3O8)2,mp-1222915,0.1975,-1.98641998,0.5429873374038392,"{3: 3, 45: 1, 7: 6, 8: 16}","[3, 7, 8, 45]",3376816451,Li3Rh1N6O16
Li3Gd(NO3)6,mp-1212476,2.6228,-0.66268288,0.0,"{3: 3, 64: 1, 7: 6, 8: 18}","[3, 7, 8, 64]",3376818641,Li3Gd1N6O18
Li3Tb(NO3)6,mp-1212130,3.104,-0.71992935,0.0,"{3: 3, 65: 1, 7: 6, 8: 18}","[3, 7, 8, 65]",3376818651,Li3Tb1N6O18
Li3Dy(NO3)6,mp-1211772,3.1081000000000003,-0.56864655,0.0,"{3: 3, 66: 1, 7: 6, 8: 18}","[3, 7, 8, 66]",3376818661,Li3Dy1N6O18
Li3Er(NO3)6,mp-559129,3.1386000000000003,-0.85821514,0.0,"{3: 3, 68: 1, 7: 6, 8: 18}","[3, 7, 8, 68]",3376818681,Li3Er1N6O18
Li3Tm(NO3)6,mp-1212059,3.0238,-0.73241299,0.0,"{3: 3, 69: 1, 7: 6, 8: 18}","[3, 7, 8, 69]",3376818691,Li3Tm1N6O18
Li3Lu(NO3)6,mp-1212270,3.1118,-0.45128759,0.0,"{3: 3, 71: 1, 7: 6, 8: 18}","[3, 7, 8, 71]",3376818711,Li3Lu1N6O18
Li3Pt,mp-976322,0.0,1.9805092,0.004036912500000156,"{3: 3, 78: 1}","[3, 78]",33781,Li3Pt1
Li3Au,mp-11247,0.0,2.47444662,0.0,"{3: 3, 79: 1}","[3, 79]",33791,Li3Au1
Li3Nd2(N3O10)3,mp-1213390,0.7861999999999999,-1.08404904,0.1452252070028459,"{3: 3, 60: 2, 7: 9, 8: 30}","[3, 7, 8, 60]",3379830602,Li3Nd2N9O30
Li3Hg,mp-976047,0.0,0.84921757,0.0,"{3: 3, 80: 1}","[3, 80]",33801,Li3Hg1
Li3V2(SiO5)2,mp-779630,1.2995,1.96727445,0.07379271637254448,"{3: 3, 23: 2, 14: 2, 8: 10}","[3, 8, 14, 23]",33810142232,Li3V2Si2O10
Li3Si2Bi3O10,mp-757200,2.9044,3.08944922,0.05866412342593019,"{3: 3, 14: 2, 83: 3, 8: 10}","[3, 8, 14, 83]",33810142833,Li3Si2Bi3O10
Li3Co2Si3O10,mp-1177711,0.0,1.84754986,0.06837718879630472,"{3: 3, 27: 2, 14: 3, 8: 10}","[3, 8, 14, 27]",33810143272,Li3Co2Si3O10
Li3Ti2V3O10,mp-752510,1.3123999999999998,4.70410091,0.038581146180579395,"{3: 3, 22: 2, 23: 3, 8: 10}","[3, 8, 22, 23]",33810222233,Li3Ti2V3O10
Li3Ti2Mn3O10,mp-753035,0.9013,2.37416866,0.04286166482640574,"{3: 3, 22: 2, 25: 3, 8: 10}","[3, 8, 22, 25]",33810222253,Li3Ti2Mn3O10
Li3Ti2Co3O10,mp-753046,0.22199999999999998,2.49080736,0.15546981083334632,"{3: 3, 22: 2, 27: 3, 8: 10}","[3, 8, 22, 27]",33810222273,Li3Ti2Co3O10
Li3V2(GeO5)2,mp-25277,0.0,1.95312795,0.0905455850000072,"{3: 3, 23: 2, 32: 2, 8: 10}","[3, 8, 23, 32]",33810232322,Li3V2Ge2O10
Li3V3Cr2O10,mp-849418,0.9018999999999999,3.80318174,0.09317524256944232,"{3: 3, 23: 3, 24: 2, 8: 10}","[3, 8, 23, 24]",33810233242,Li3V3Cr2O10
Li3V5O10,mp-762265,0.8931999999999998,4.1979126,0.05150446958333532,"{3: 3, 23: 5, 8: 10}","[3, 8, 23]",33810235,Li3V5O10
Li3Cr5O10,mp-762282,0.0,2.26963624,0.06865298413580767,"{3: 3, 24: 5, 8: 10}","[3, 8, 24]",33810245,Li3Cr5O10
Li3Mn5O10,mp-753084,0.25649999999999995,2.40744181,0.05795407888888349,"{3: 3, 25: 5, 8: 10}","[3, 8, 25]",33810255,Li3Mn5O10
Li3Co2Ni3O10,mp-1177722,0.0,2.35210329,0.06910715982638749,"{3: 3, 27: 2, 28: 3, 8: 10}","[3, 8, 27, 28]",33810272283,Li3Co2Ni3O10
Li3(CoO2)5,mp-774507,0.0,2.2943484,0.05116241763889473,"{3: 3, 27: 5, 8: 10}","[3, 8, 27]",33810275,Li3Co5O10