formula,material_id,band_gap,efermi,energy_above_hull,comp_atoms,sorted_keys_comp_atoms,comp_number,new_formula
NaLi2AlF6,mp-1111553,5.8337,-1.88625,0.2410062499999981,"{11: 1, 3: 2, 13: 1, 9: 6}","[3, 9, 11, 13]",3296111131,Na1Li2Al1F6
NaLi2TiF6,mp-1111096,0.0,3.0396029,0.2934321585833306,"{11: 1, 3: 2, 22: 1, 9: 6}","[3, 9, 11, 22]",3296111221,Na1Li2Ti1F6
NaLi2VF6,mp-1111338,0.0,0.91938597,0.3648571159999996,"{11: 1, 3: 2, 23: 1, 9: 6}","[3, 9, 11, 23]",3296111231,Na1Li2V1F6
NaLi2CrF6,mp-1111349,4.2989999999999995,3.11737495,0.2641883849166744,"{11: 1, 3: 2, 24: 1, 9: 6}","[3, 9, 11, 24]",3296111241,Na1Li2Cr1F6
NaLi2MnF6,mp-1111191,0.0,0.21895018,0.3263716769999947,"{11: 1, 3: 2, 25: 1, 9: 6}","[3, 9, 11, 25]",3296111251,Na1Li2Mn1F6
NaLi2CoF6,mp-1111550,3.085,1.53878249,0.23763751549999856,"{11: 1, 3: 2, 27: 1, 9: 6}","[3, 9, 11, 27]",3296111271,Na1Li2Co1F6
NaLi2GaF6,mp-1111142,5.3441,-2.66583333,0.24342875813333542,"{11: 1, 3: 2, 31: 1, 9: 6}","[3, 9, 11, 31]",3296111311,Na1Li2Ga1F6
NaLi2AsF6,mp-1111350,3.6191999999999998,-0.2525,0.3309508872500011,"{11: 1, 3: 2, 33: 1, 9: 6}","[3, 9, 11, 33]",3296111331,Na1Li2As1F6
NaLi2NbF6,mp-1111343,0.0,2.49082991,0.41737898543332363,"{11: 1, 3: 2, 41: 1, 9: 6}","[3, 9, 11, 41]",3296111411,Na1Li2Nb1F6
NaLi2MoF6,mp-1111098,2.4654,2.57038151,0.28000060349999956,"{11: 1, 3: 2, 42: 1, 9: 6}","[3, 9, 11, 42]",3296111421,Na1Li2Mo1F6
NaLi2RuF6,mp-1111341,0.0,1.25880733,0.3063730176249999,"{11: 1, 3: 2, 44: 1, 9: 6}","[3, 9, 11, 44]",3296111441,Na1Li2Ru1F6
NaLi2RhF6,mp-1111095,1.9166,0.01,0.2719094699999962,"{11: 1, 3: 2, 45: 1, 9: 6}","[3, 9, 11, 45]",3296111451,Na1Li2Rh1F6
NaLi2TaF6,mp-1111340,0.0,3.04896186,0.5316149506999963,"{11: 1, 3: 2, 73: 1, 9: 6}","[3, 9, 11, 73]",3296111731,Na1Li2Ta1F6
NaLi2IrF6,mp-1111346,1.8335,0.94833333,0.2674171665999996,"{11: 1, 3: 2, 77: 1, 9: 6}","[3, 9, 11, 77]",3296111771,Na1Li2Ir1F6
Li2AlAgF6,mp-1111366,2.0864,0.12833333,0.3087268784999999,"{3: 2, 13: 1, 47: 1, 9: 6}","[3, 9, 13, 47]",3296131471,Li2Al1Ag1F6
Li2AlHgF6,mp-1111352,0.0,1.04099384,0.4556613629999955,"{3: 2, 13: 1, 80: 1, 9: 6}","[3, 9, 13, 80]",3296131801,Li2Al1Hg1F6
Li2SiF6,mp-1193269,8.0844,-1.81119678,0.0,"{3: 2, 14: 1, 9: 6}","[3, 9, 14]",3296141,Li2Si1F6
Li2TiF6,mp-7603,4.1597,-2.43004376,0.0,"{3: 2, 22: 1, 9: 6}","[3, 9, 22]",3296221,Li2Ti1F6
Li2VF6,mp-753861,2.1121,-1.20372569,0.0,"{3: 2, 23: 1, 9: 6}","[3, 9, 23]",3296231,Li2V1F6
Li2CrF6,mp-555112,1.2088999999999999,-1.83876026,0.0,"{3: 2, 24: 1, 9: 6}","[3, 9, 24]",3296241,Li2Cr1F6
Li2MnF6,mp-754966,2.6841,-2.40072138,0.0,"{3: 2, 25: 1, 9: 6}","[3, 9, 25]",3296251,Li2Mn1F6
Li2MnAgF6,mp-1111362,0.0,0.18502355,0.3358122510000019,"{3: 2, 25: 1, 47: 1, 9: 6}","[3, 9, 25, 47]",3296251471,Li2Mn1Ag1F6
Li2CoAgF6,mp-1111099,1.7043,1.15646121,0.32498615475000037,"{3: 2, 27: 1, 47: 1, 9: 6}","[3, 9, 27, 47]",3296271471,Li2Co1Ag1F6
Li2CoHgF6,mp-1111351,0.0,0.43828392,0.48970909600000034,"{3: 2, 27: 1, 80: 1, 9: 6}","[3, 9, 27, 80]",3296271801,Li2Co1Hg1F6
Li2NiAgF6,mp-1111146,0.0,-0.45782552,0.31859104600000165,"{3: 2, 28: 1, 47: 1, 9: 6}","[3, 9, 28, 47]",3296281471,Li2Ni1Ag1F6
Li2GeF6,mp-7791,5.5194,-2.39751646,0.0,"{3: 2, 32: 1, 9: 6}","[3, 9, 32]",3296321,Li2Ge1F6
Li2AgAsF6,mp-1111365,1.8182,0.56667318,0.4207823019583339,"{3: 2, 47: 1, 33: 1, 9: 6}","[3, 9, 33, 47]",3296331471,Li2Ag1As1F6
Li2ZrF6,mp-542219,6.0773,-1.99811327,0.0,"{3: 2, 40: 1, 9: 6}","[3, 9, 40]",3296401,Li2Zr1F6
Li2NbF6,mp-2356674,0.07390000000000008,2.35503469,0.023324956148149667,"{3: 2, 41: 1, 9: 6}","[3, 9, 41]",3296411,Li2Nb1F6
Li2MoF6,mp-22439,2.0388,-0.40606103,0.0,"{3: 2, 42: 1, 9: 6}","[3, 9, 42]",3296421,Li2Mo1F6
Li2RuF6,mp-976955,0.0398,0.34432287,0.0,"{3: 2, 44: 1, 9: 6}","[3, 9, 44]",3296441,Li2Ru1F6
Li2RhF6,mp-7661,0.0,-0.78665288,0.0,"{3: 2, 45: 1, 9: 6}","[3, 9, 45]",3296451,Li2Rh1F6
Li2PdF6,mp-13985,1.6748999999999998,-1.88532539,0.0,"{3: 2, 46: 1, 9: 6}","[3, 9, 46]",3296461,Li2Pd1F6
Li2AgF6,mp-765413,0.0,-2.0499508,0.0,"{3: 2, 47: 1, 9: 6}","[3, 9, 47]",3296471,Li2Ag1F6
Li2Ag3F6,mp-757872,0.0,-0.59998247,0.0681120004545459,"{3: 2, 47: 3, 9: 6}","[3, 9, 47]",3296473,Li2Ag3F6
Li2SnF6,mp-1205739,5.0089,-1.23399657,0.0,"{3: 2, 50: 1, 9: 6}","[3, 9, 50]",3296501,Li2Sn1F6
Li2TbF6,mp-1196923,0.0,-2.59846275,0.015431405555556665,"{3: 2, 65: 1, 9: 6}","[3, 9, 65]",3296651,Li2Tb1F6
Li2PtF6,mp-13986,2.3577,-0.94079848,0.0,"{3: 2, 78: 1, 9: 6}","[3, 9, 78]",3296781,Li2Pt1F6
Li2VF7,mp-759125,1.3491,-2.36300034,0.06349640575000048,"{3: 2, 23: 1, 9: 7}","[3, 9, 23]",3297231,Li2V1F7
Li2V2F7,mp-760262,0.2643,1.06236639,0.048639838181819606,"{3: 2, 23: 2, 9: 7}","[3, 9, 23]",3297232,Li2V2F7
Li2Mn2F7,mp-765055,0.12080000000000002,-0.60653393,0.05194572363635963,"{3: 2, 25: 2, 9: 7}","[3, 9, 25]",3297252,Li2Mn2F7
Li2CaHfF8,mp-16577,6.9952000000000005,-1.69035026,0.0,"{3: 2, 20: 1, 72: 1, 9: 8}","[3, 9, 20, 72]",3298201721,Li2Ca1Hf1F8
Li2V3F8,mp-778241,1.8531999999999997,1.7366533,0.08696144615384593,"{3: 2, 23: 3, 9: 8}","[3, 9, 23]",3298233,Li2V3F8
Li2Mn3F8,mp-1177965,3.1397999999999997,0.21022781,0.02455886615384717,"{3: 2, 25: 3, 9: 8}","[3, 9, 25]",3298253,Li2Mn3F8
NaLi3,mp-973316,0.0,0.24303389,0.04065985874999978,"{11: 1, 3: 3}","[3, 11]",33111,Na1Li3
Na(LiSi2)3,mp-28612,0.12260000000000026,5.00126759,0.021562639647783044,"{11: 1, 3: 3, 14: 6}","[3, 11, 14]",33111146,Na1Li3Si6
Li31Zr2P13,mp-34541,0.0,2.33249029,0.14564661429347892,"{3: 31, 40: 2, 15: 13}","[3, 15, 40]",3311513402,Li31Zr2P13
Na5Li3(TiS4)2,mp-554395,1.9652,1.23434006,0.0,"{11: 5, 3: 3, 22: 2, 16: 8}","[3, 11, 16, 22]",33115168222,Na5Li3Ti2S8
Li3Mg,mp-976139,0.0,0.90432612,0.0021042304166667414,"{3: 3, 12: 1}","[3, 12]",33121,Li3Mg1
Li3Mg5,mp-1206428,0.0,2.20357113,0.026798313125000472,"{3: 3, 12: 5}","[3, 12]",33125,Li3Mg5
Li3Mg5Bi3Pb,mp-1222536,0.2008000000000001,3.719502,0.027088313333330394,"{3: 3, 12: 5, 83: 3, 82: 1}","[3, 12, 82, 83]",33125821833,Li3Mg5Bi3Pb1
Li3(Mg2Si)4,mp-1103513,0.0,4.81738792,0.11417556524999872,"{3: 3, 12: 8, 14: 4}","[3, 12, 14]",33128144,Li3Mg8Si4
Li3Al,mp-975868,0.0,1.71783733,0.05941175812499999,"{3: 3, 13: 1}","[3, 13]",33131,Li3Al1
Li3Al2,mp-16506,0.0,4.3607966,0.0,"{3: 3, 13: 2}","[3, 13]",33132,Li3Al2
Li31Zr2As13,mp-34355,0.0,1.91656309,0.12674754152173984,"{3: 31, 40: 2, 33: 13}","[3, 33, 40]",3313313402,Li31Zr2As13
Li31Zr2Sb13,mp-35091,0.0,2.96173309,0.11082353152173852,"{3: 31, 40: 2, 51: 13}","[3, 40, 51]",3314025113,Li31Zr2Sb13
Li3Si3Ag2,mp-29165,0.0,5.03467707,0.11646274011904767,"{3: 3, 14: 3, 47: 2}","[3, 14, 47]",33143472,Li3Si3Ag2
Li3P,mp-736,0.6996000000000002,1.72650997,0.0,"{3: 3, 15: 1}","[3, 15]",33151,Li3P1
Li3PS4,mp-985583,2.8091,1.41355318,0.0,"{3: 3, 15: 1, 16: 4}","[3, 15, 16]",33151164,Li3P1S4
Li3MnP2,mp-33326,0.0,2.90571737,0.14397123708333392,"{3: 3, 25: 1, 15: 2}","[3, 15, 25]",33152251,Li3Mn1P2
Li3LaP2,mp-8407,0.6124999999999998,4.64591457,0.0,"{3: 3, 57: 1, 15: 2}","[3, 15, 57]",33152571,Li3La1P2
Li3Cr2(PS4)3,mp-778433,1.2201,2.38822304,0.0,"{3: 3, 24: 2, 15: 3, 16: 12}","[3, 15, 16, 24]",331531612242,Li3Cr2P3S12
Li3P7,mp-28336,1.7927,3.39114777,0.0,"{3: 3, 15: 7}","[3, 15]",33157,Li3P7
Li3Sb11S18,mp-767088,0.6052999999999997,4.76883203,0.004442537343750885,"{3: 3, 51: 11, 16: 18}","[3, 16, 51]",3316185111,Li3Sb11S18
Li3Sb17S27,mp-767137,0.5084,4.8561654,0.01303425388297974,"{3: 3, 51: 17, 16: 27}","[3, 16, 51]",3316275117,Li3Sb17S27
Li3AuS2,mp-15999,2.0985,1.88519563,0.0,"{3: 3, 79: 1, 16: 2}","[3, 16, 79]",33162791,Li3Au1S2
Li3TiS3,mp-753497,0.0,4.45546964,0.08365499285714328,"{3: 3, 22: 1, 16: 3}","[3, 16, 22]",33163221,Li3Ti1S3
Li3VS3,mp-1177470,0.0,3.84969088,0.09115266234693742,"{3: 3, 23: 1, 16: 3}","[3, 16, 23]",33163231,Li3V1S3
Li3AsS3,mp-28471,2.2848999999999995,1.59097423,0.0,"{3: 3, 33: 1, 16: 3}","[3, 16, 33]",33163331,Li3As1S3
Li3SbS3,mp-1194339,2.4016,4.66958921,0.0,"{3: 3, 51: 1, 16: 3}","[3, 16, 51]",33163511,Li3Sb1S3
Li3BiS3,mp-753720,2.4456999999999995,2.12653022,0.02513505000000027,"{3: 3, 83: 1, 16: 3}","[3, 16, 83]",33163831,Li3Bi1S3
Li3VS4,mp-760375,1.8832,-0.97864236,0.0,"{3: 3, 23: 1, 16: 4}","[3, 16, 23]",33164231,Li3V1S4
Li3CrS4,mp-753982,0.0,0.21979927,0.02412328250000062,"{3: 3, 24: 1, 16: 4}","[3, 16, 24]",33164241,Li3Cr1S4
Li3NbS4,mp-769032,1.2022,2.71789299,0.0015491655592096976,"{3: 3, 41: 1, 16: 4}","[3, 16, 41]",33164411,Li3Nb1S4
Li3SbS4,mp-756316,2.1452,1.13156774,0.0,"{3: 3, 51: 1, 16: 4}","[3, 16, 51]",33164511,Li3Sb1S4
Li3BiS4,mp-766422,1.6645,1.89141671,0.051271542656250446,"{3: 3, 83: 1, 16: 4}","[3, 16, 83]",33164831,Li3Bi1S4
Li3(VS2)4,mp-1177739,0.0,4.53920044,0.06359484466666654,"{3: 3, 23: 4, 16: 8}","[3, 16, 23]",33168234,Li3V4S8
Li3(CrS2)4,mp-755947,0.0,3.39380955,0.030503620333333537,"{3: 3, 24: 4, 16: 8}","[3, 16, 24]",33168244,Li3Cr4S8
Li3(CoS2)4,mp-767412,0.0,3.633741,0.05325609099999973,"{3: 3, 27: 4, 16: 8}","[3, 16, 27]",33168274,Li3Co4S8
Li3(Mo3S4)2,mp-675383,0.0,5.30920966,0.006942668823533893,"{3: 3, 42: 6, 16: 8}","[3, 16, 42]",33168426,Li3Mo6S8
Li3(Nb2Cl5)8,mp-686087,0.03100000000000014,2.8805745,0.012024316951185554,"{3: 3, 41: 16, 17: 40}","[3, 17, 41]",3317404116,Li3Nb16Cl40
CsLi3Cl4,mp-571666,5.2744,-0.37135364,0.028355159062499524,"{55: 1, 3: 3, 17: 4}","[3, 17, 55]",33174551,Cs1Li3Cl4
Li3ScCl6,mp-686004,3.6981,-0.21796457,0.0013576660000005347,"{3: 3, 21: 1, 17: 6}","[3, 17, 21]",33176211,Li3Sc1Cl6
Li3InCl6,mp-676109,3.373,-0.20579706,0.0,"{3: 3, 49: 1, 17: 6}","[3, 17, 49]",33176491,Li3In1Cl6
Li3SbCl6,mp-1111149,2.8486000000000002,0.6689573,0.29358938850000094,"{3: 3, 51: 1, 17: 6}","[3, 17, 51]",33176511,Li3Sb1Cl6
Li3ErCl6,mp-676361,5.2109000000000005,-0.27929372,0.0,"{3: 3, 68: 1, 17: 6}","[3, 17, 68]",33176681,Li3Er1Cl6
K8Li31Al8O32,mp-1185277,0.0,0.35548857,0.014991266206487275,"{19: 8, 3: 31, 13: 8, 8: 32}","[3, 8, 13, 19]",331832138198,K8Li31Al8O32
KLi3,mp-1185026,0.0,-0.07460005,0.17843251175000008,"{19: 1, 3: 3}","[3, 19]",33191,K1Li3
Li3Ca,mp-976075,0.0,0.62324165,0.06004755895833336,"{3: 3, 20: 1}","[3, 20]",33201,Li3Ca1
Li3Sc,mp-1185268,0.0,0.92657219,0.2221045625000002,"{3: 3, 21: 1}","[3, 21]",33211,Li3Sc1
Li3Cr,mp-976010,0.0,0.9432316,0.3888354525000004,"{3: 3, 24: 1}","[3, 24]",33241,Li3Cr1
Li3MnAs2,mp-1222432,0.0,2.08401513,0.07035335750000016,"{3: 3, 25: 1, 33: 2}","[3, 25, 33]",33251332,Li3Mn1As2
Li3Co,mp-977165,0.0,1.07199755,0.3279079337499997,"{3: 3, 27: 1}","[3, 27]",33271,Li3Co1
Li3Ni,mp-1185204,0.0,1.5979358,0.0932833249999998,"{3: 3, 28: 1}","[3, 28]",33281,Li3Ni1
Li3Ni11As7,mp-1222560,0.0,6.77400763,0.0,"{3: 3, 28: 11, 33: 7}","[3, 28, 33]",332811337,Li3Ni11As7
Li32Ti11Cr5O48,mp-777936,0.0,2.54282686,0.011648175703113495,"{3: 32, 22: 11, 24: 5, 8: 48}","[3, 8, 22, 24]",3328482211245,Li32Ti11Cr5O48
Li32Ti13Cr3O48,mp-1177824,1.5932000000000002,1.90184778,0.006556652838531463,"{3: 32, 22: 13, 24: 3, 8: 48}","[3, 8, 22, 24]",3328482213243,Li32Ti13Cr3O48
Li32Ti3Cr13O48,mp-777558,0.9914000000000001,2.28035455,0.018335241328122365,"{3: 32, 22: 3, 24: 13, 8: 48}","[3, 8, 22, 24]",3328482232413,Li32Ti3Cr13O48
Li32Ti5Cr11O48,mp-777532,0.8324000000000003,2.33743492,0.029081018671867298,"{3: 32, 22: 5, 24: 11, 8: 48}","[3, 8, 22, 24]",3328482252411,Li32Ti5Cr11O48
Li32Mn5Cr11O48,mp-778376,0.5009000000000001,2.99835457,0.033233315286457454,"{3: 32, 25: 5, 24: 11, 8: 48}","[3, 8, 24, 25]",3328482411255,Li32Mn5Cr11O48
Li32Mn3Cr13O48,mp-777842,0.8376999999999999,2.26144499,0.027992849010417764,"{3: 32, 25: 3, 24: 13, 8: 48}","[3, 8, 24, 25]",3328482413253,Li32Mn3Cr13O48
Li32Mn13Cr3O48,mp-777884,1.2401000000000002,2.04407339,0.014467619322916292,"{3: 32, 25: 13, 24: 3, 8: 48}","[3, 8, 24, 25]",3328482432513,Li32Mn13Cr3O48
Li32Mn11Cr5O48,mp-1177917,1.1768,3.05869282,0.024232022656250685,"{3: 32, 25: 11, 24: 5, 8: 48}","[3, 8, 24, 25]",3328482452511,Li32Mn11Cr5O48
Li3Zn,mp-976414,0.0,0.26216832,0.025022655416666595,"{3: 3, 30: 1}","[3, 30]",33301,Li3Zn1
Li3Tb4ZnSn8,mp-1222622,0.0,6.25520286,0.1522192809114573,"{3: 3, 65: 4, 30: 1, 50: 8}","[3, 30, 50, 65]",33301508654,Li3Tb4Zn1Sn8
Li3(ZnSn2)2,mp-1188187,0.0,4.45570025,0.0,"{3: 3, 30: 2, 50: 4}","[3, 30, 50]",33302504,Li3Zn2Sn4
Li3Ga,mp-976023,0.0,1.33726209,0.021047610833333508,"{3: 3, 31: 1}","[3, 31]",33311,Li3Ga1
Li3Ga14,mp-1222489,0.0,1.83754912,0.00958796441176446,"{3: 3, 31: 14}","[3, 31]",333114,Li3Ga14
Li3Ga2,mp-9568,0.0,3.25826807,0.0,"{3: 3, 31: 2}","[3, 31]",33312,Li3Ga2
Li3Ga7,mp-567306,0.0,2.93662913,0.024923377700000415,"{3: 3, 31: 7}","[3, 31]",33317,Li3Ga7
Li3LaGa8,mp-1222997,0.0,3.20225695,0.08677557552083393,"{3: 3, 57: 1, 31: 8}","[3, 31, 57]",33318571,Li3La1Ga8
Li3CeGa8,mp-1222867,0.0,3.51038966,0.017486918166666143,"{3: 3, 58: 1, 31: 8}","[3, 31, 58]",33318581,Li3Ce1Ga8
Li3NdGa8,mp-1222551,0.0,3.07452271,0.010232414833334147,"{3: 3, 60: 1, 31: 8}","[3, 31, 60]",33318601,Li3Nd1Ga8
Li3Ge,mp-867342,0.0,1.11076474,0.008542325000000073,"{3: 3, 32: 1}","[3, 32]",33321,Li3Ge1
Li3Ag3Ge2,mp-1222558,0.0,2.71770735,0.05235585396739051,"{3: 3, 47: 3, 32: 2}","[3, 32, 47]",33322473,Li3Ag3Ge2
Li3Ag2Ge3,mp-29166,0.0,3.12133187,0.07215678437500017,"{3: 3, 47: 2, 32: 3}","[3, 32, 47]",33323472,Li3Ag2Ge3
Li3Ce5Ge4,mp-20063,0.0,5.15014097,0.24118375819444715,"{3: 3, 58: 5, 32: 4}","[3, 32, 58]",33324585,Li3Ce5Ge4
Sr4Li3InGe6,mp-1218608,0.0,2.91218546,0.006517641785713124,"{38: 4, 3: 3, 49: 1, 32: 6}","[3, 32, 38, 49]",33326384491,Sr4Li3In1Ge6
Li3As,mp-757,0.6364999999999998,1.37594068,0.0,"{3: 3, 33: 1}","[3, 33]",33331,Li3As1
Li3LaAs2,mp-1018766,0.5023,4.18853491,0.0,"{3: 3, 57: 1, 33: 2}","[3, 33, 57]",33332571,Li3La1As2
Li3NdAs2,mp-8406,0.035800000000000054,3.25666224,0.0,"{3: 3, 60: 1, 33: 2}","[3, 33, 60]",33332601,Li3Nd1As2
Li3As7,mp-680395,1.3268999999999997,2.30716422,0.000924287437500837,"{3: 3, 33: 7}","[3, 33]",33337,Li3As7
Li3Mo15Se19,mp-1223482,0.0,4.17131289,0.04391281081080933,"{3: 3, 42: 15, 34: 19}","[3, 34, 42]",3334194215,Li3Mo15Se19
CsLi3Br4,mp-580554,4.1475,-0.93804964,0.050124006875000404,"{55: 1, 3: 3, 35: 4}","[3, 35, 55]",33354551,Cs1Li3Br4
Cs2Li3Br5,mp-571409,4.4362,-0.94695044,0.005485786499997758,"{55: 2, 3: 3, 35: 5}","[3, 35, 55]",33355552,Cs2Li3Br5
Li3InBr6,mp-1147621,2.8468999999999998,2.64091999,0.019537600999998794,"{3: 3, 49: 1, 35: 6}","[3, 35, 49]",33356491,Li3In1Br6
Li3ErBr6,mp-1222492,4.4222,-0.70086497,0.0,"{3: 3, 68: 1, 35: 6}","[3, 35, 68]",33356681,Li3Er1Br6
Li3Zr,mp-1185295,0.0,0.9519516,0.4431440024999995,"{3: 3, 40: 1}","[3, 40]",33401,Li3Zr1
Li3Be,mp-975794,0.0,0.14933693,0.24167899125000014,"{3: 3, 4: 1}","[3, 4]",3341,Li3Be1
Li3Nb,mp-1185216,0.0,1.22287689,0.6821420599999994,"{3: 3, 41: 1}","[3, 41]",33411,Li3Nb1
Li3BePCO7,mp-771341,5.4524,0.75078857,0.05088277423077159,"{3: 3, 4: 1, 15: 1, 6: 1, 8: 7}","[3, 4, 6, 8, 15]",33416187151,Li3Be1P1C1O7
Li34(Sb3S2)3,mp-767715,0.0,2.08153681,0.09019344996598644,"{3: 34, 51: 9, 16: 6}","[3, 16, 51]",334166519,Li34Sb9S6
Li34Sb8S7,mp-767765,0.0,2.15396714,0.0795727227891172,"{3: 34, 51: 8, 16: 7}","[3, 16, 51]",334167518,Li34Sb8S7
Li3Mo,mp-1185187,0.0,1.77106461,0.7483757549999996,"{3: 3, 42: 1}","[3, 42]",33421,Li3Mo1
Li3Tc,mp-976334,0.0,1.55500135,0.6144726837499999,"{3: 3, 43: 1}","[3, 43]",33431,Li3Tc1
Li3Rh,mp-1185255,0.0,1.43028879,0.0696642879166669,"{3: 3, 45: 1}","[3, 45]",33451,Li3Rh1
Li3Pd,mp-976281,0.0,1.18648542,0.0029711416071425134,"{3: 3, 46: 1}","[3, 46]",33461,Li3Pd1
Li3Sn11Pd4,mp-1222500,0.0,7.08764441,0.0016695981746011057,"{3: 3, 50: 11, 46: 4}","[3, 46, 50]",334645011,Li3Sn11Pd4
Li3Ag,mp-865875,0.0,0.75212716,0.0,"{3: 3, 47: 1}","[3, 47]",33471,Li3Ag1
Li3Ag2,mp-1222584,0.0,1.60076803,0.022602524333333207,"{3: 3, 47: 2}","[3, 47]",33472,Li3Ag2
Li3Ag3Sn2,mp-1222568,0.0,4.35729013,0.02507126624999989,"{3: 3, 47: 3, 50: 2}","[3, 47, 50]",33473502,Li3Ag3Sn2
Li3Cd,mp-975904,0.0,0.44335962,0.0,"{3: 3, 48: 1}","[3, 48]",33481,Li3Cd1
Li3Tl2Cd,mp-1222424,0.0,3.91592185,0.0,"{3: 3, 81: 2, 48: 1}","[3, 48, 81]",33481812,Li3Tl2Cd1
Li3In,mp-867226,0.0,2.56974908,0.005150574464284574,"{3: 3, 49: 1}","[3, 49]",33491,Li3In1
Li3In2,mp-21293,0.0,5.35634933,0.0,"{3: 3, 49: 2}","[3, 49]",33492,Li3In2
Li3Sn,mp-1185265,0.0,2.88324876,0.0,"{3: 3, 50: 1}","[3, 50]",33501,Li3Sn1
Li3Sn3Pt2,mp-1211411,0.0,7.15291337,0.01619891640624882,"{3: 3, 50: 3, 78: 2}","[3, 50, 78]",33503782,Li3Sn3Pt2
Li3B,mp-1185180,0.0,1.02412159,0.4563498458333335,"{3: 3, 5: 1}","[3, 5]",3351,Li3B1
Li3Sb,mp-7955,0.4833000000000003,2.34408978,0.0,"{3: 3, 51: 1}","[3, 51]",33511,Li3Sb1
Li3BS3,mp-5614,3.0495,0.90904378,0.0,"{3: 3, 5: 1, 16: 3}","[3, 5, 16]",3351163,Li3B1S3
Li3B11O18,mp-1020014,5.5447,-0.35782223,0.0,"{3: 3, 5: 11, 8: 18}","[3, 5, 8]",33511818,Li3B11O18
Li3LaSb2,mp-8405,0.20389999999999997,5.1007357,0.0,"{3: 3, 57: 1, 51: 2}","[3, 51, 57]",33512571,Li3La1Sb2
Li3CeSb2,mp-1018761,0.0,5.29573952,0.0,"{3: 3, 58: 1, 51: 2}","[3, 51, 58]",33512581,Li3Ce1Sb2
Li3PrSb2,mp-1018779,0.0,4.3523527,0.0,"{3: 3, 59: 1, 51: 2}","[3, 51, 59]",33512591,Li3Pr1Sb2
Li3NdSb2,mp-1018769,0.0,4.34063573,0.0,"{3: 3, 60: 1, 51: 2}","[3, 51, 60]",33512601,Li3Nd1Sb2
Li3SmSb2,mp-1018781,0.0,4.40399097,0.0,"{3: 3, 62: 1, 51: 2}","[3, 51, 62]",33512621,Li3Sm1Sb2
Li3DySb2,mp-1018763,0.0,4.61920729,0.0,"{3: 3, 66: 1, 51: 2}","[3, 51, 66]",33512661,Li3Dy1Sb2
Li3HoSb2,mp-1018764,0.0,4.6206281,0.0,"{3: 3, 67: 1, 51: 2}","[3, 51, 67]",33512671,Li3Ho1Sb2
Li3Pr2Sb3,mp-1211878,0.0,3.08060249,1.0315381750000014,"{3: 3, 59: 2, 51: 3}","[3, 51, 59]",33513592,Li3Pr2Sb3
Li3Nd2Sb3,mp-1211777,0.0,3.03030608,1.0321692962500002,"{3: 3, 60: 2, 51: 3}","[3, 51, 60]",33513602,Li3Nd2Sb3
Li3BN2,mp-5001,3.2057999999999995,1.02868686,0.0,"{3: 3, 5: 1, 7: 2}","[3, 5, 7]",335172,Li3B1N2
K2Li3B(P2O7)2,mp-1019778,5.5903,0.47693747,0.0,"{19: 2, 3: 3, 5: 1, 15: 4, 8: 14}","[3, 5, 8, 15, 19]",3351814154192,K2Li3B1P4O14
Rb2Li3B(P2O7)2,mp-1020705,5.5484,0.45115031,0.0,"{37: 2, 3: 3, 5: 1, 15: 4, 8: 14}","[3, 5, 8, 15, 37]",3351814154372,Rb2Li3B1P4O14
Li3BO3,mp-27275,5.1473,0.24049652,0.0,"{3: 3, 5: 1, 8: 3}","[3, 5, 8]",335183,Li3B1O3
Li3CoBO4,mp-768705,1.7308000000000003,2.29654599,0.14458802784721936,"{3: 3, 27: 1, 5: 1, 8: 4}","[3, 5, 8, 27]",335184271,Li3Co1B1O4
Li3VBO5,mp-768849,1.5281999999999996,2.36352903,0.1001864289999963,"{3: 3, 23: 1, 5: 1, 8: 5}","[3, 5, 8, 23]",335185231,Li3V1B1O5
Li3CrBO5,mp-768521,1.5616000000000003,1.90034353,0.10483567047222575,"{3: 3, 24: 1, 5: 1, 8: 5}","[3, 5, 8, 24]",335185241,Li3Cr1B1O5
Li3VSiBO7,mp-771263,1.5995,1.89842004,0.07594716442307181,"{3: 3, 23: 1, 14: 1, 5: 1, 8: 7}","[3, 5, 8, 14, 23]",335187141231,Li3V1Si1B1O7
Li3CrSiBO7,mp-773206,0.6769000000000001,1.19462328,0.08612341074787189,"{3: 3, 24: 1, 14: 1, 5: 1, 8: 7}","[3, 5, 8, 14, 24]",335187141241,Li3Cr1Si1B1O7
Li3MnSiBO7,mp-755970,1.2309,1.04897163,0.06295138803845024,"{3: 3, 25: 1, 14: 1, 5: 1, 8: 7}","[3, 5, 8, 14, 25]",335187141251,Li3Mn1Si1B1O7
Li3CoSiBO7,mp-771167,0.02519999999999989,1.93982186,0.0915818034695528,"{3: 3, 27: 1, 14: 1, 5: 1, 8: 7}","[3, 5, 8, 14, 27]",335187141271,Li3Co1Si1B1O7
Li3SiSnBO7,mp-770756,3.2406999999999995,1.77333151,0.06410464903846336,"{3: 3, 14: 1, 50: 1, 5: 1, 8: 7}","[3, 5, 8, 14, 50]",335187141501,Li3Si1Sn1B1O7
Li3SiBiBO7,mp-771028,0.0,2.05535233,0.10178577519231347,"{3: 3, 14: 1, 83: 1, 5: 1, 8: 7}","[3, 5, 8, 14, 83]",335187141831,Li3Si1Bi1B1O7
Li3VBPO7,mp-768575,1.9571999999999998,1.89680164,0.08819071576921989,"{3: 3, 23: 1, 5: 1, 15: 1, 8: 7}","[3, 5, 8, 15, 23]",335187151231,Li3V1B1P1O7
Li3CrBPO7,mp-768576,3.1695999999999995,1.27832658,0.07654130846153695,"{3: 3, 24: 1, 5: 1, 15: 1, 8: 7}","[3, 5, 8, 15, 24]",335187151241,Li3Cr1B1P1O7
Li3MnBPO7,mp-757046,1.1598000000000002,1.78195842,0.08139038790465047,"{3: 3, 25: 1, 5: 1, 15: 1, 8: 7}","[3, 5, 8, 15, 25]",335187151251,Li3Mn1B1P1O7
Li3CrBAsO7,mp-754292,2.627,1.03181151,0.08406786596153992,"{3: 3, 24: 1, 5: 1, 33: 1, 8: 7}","[3, 5, 8, 24, 33]",335187241331,Li3Cr1B1As1O7
Li3MnBAsO7,mp-771037,0.9886999999999999,1.62021029,0.09181322610348097,"{3: 3, 25: 1, 5: 1, 33: 1, 8: 7}","[3, 5, 8, 25, 33]",335187251331,Li3Mn1B1As1O7