formula,material_id,band_gap,efermi,energy_above_hull,comp_atoms,sorted_keys_comp_atoms,comp_number,new_formula
Li4V2Cr3Ni3O16,mp-756568,0.0,3.00177186,0.24724101023809375,"{3: 4, 23: 2, 24: 3, 28: 3, 8: 16}","[3, 8, 23, 24, 28]",34816232243283,Li4V2Cr3Ni3O16
Li4V2Cr3Sn3O16,mp-774669,0.9131999999999998,5.08587943,0.045327040513384986,"{3: 4, 23: 2, 24: 3, 50: 3, 8: 16}","[3, 8, 23, 24, 50]",34816232243503,Li4V2Cr3Sn3O16
Li4V2Cr3Sb3O16,mp-774622,0.2214999999999998,5.6378271,0.09778646823214476,"{3: 4, 23: 2, 24: 3, 51: 3, 8: 16}","[3, 8, 23, 24, 51]",34816232243513,Li4V2Cr3Sb3O16
Li4Mn3V2Co3O16,mp-756676,0.36030000000000006,2.87036748,0.07531951336735077,"{3: 4, 25: 3, 23: 2, 27: 3, 8: 16}","[3, 8, 23, 25, 27]",34816232253273,Li4Mn3V2Co3O16
Li4Mn3V2Ni3O16,mp-771254,0.3125,3.58305594,0.08109370339286404,"{3: 4, 25: 3, 23: 2, 28: 3, 8: 16}","[3, 8, 23, 25, 28]",34816232253283,Li4Mn3V2Ni3O16
Li4Mn3V2Sb3O16,mp-775695,0.46609999999999996,4.22022418,0.06268524459822089,"{3: 4, 25: 3, 23: 2, 51: 3, 8: 16}","[3, 8, 23, 25, 51]",34816232253513,Li4Mn3V2Sb3O16
Li4V2Co3Ni3O16,mp-758110,0.0,2.8244354,0.08172587884672744,"{3: 4, 23: 2, 27: 3, 28: 3, 8: 16}","[3, 8, 23, 27, 28]",34816232273283,Li4V2Co3Ni3O16
Li4Nb3V2Co3O16,mp-775754,0.22339999999999982,3.61866705,0.14556172909225662,"{3: 4, 41: 3, 23: 2, 27: 3, 8: 16}","[3, 8, 23, 27, 41]",34816232273413,Li4Nb3V2Co3O16
Li4V2Co3Sn3O16,mp-778338,1.1273999999999997,4.59430165,0.13044155772959076,"{3: 4, 23: 2, 27: 3, 50: 3, 8: 16}","[3, 8, 23, 27, 50]",34816232273503,Li4V2Co3Sn3O16
Li4V2Co3Sb3O16,mp-775336,0.8033999999999999,4.24852695,0.07679130474702411,"{3: 4, 23: 2, 27: 3, 51: 3, 8: 16}","[3, 8, 23, 27, 51]",34816232273513,Li4V2Co3Sb3O16
Li4Nb3V2Ni3O16,mp-1177484,0.36240000000000006,3.17068821,0.08919212803571419,"{3: 4, 41: 3, 23: 2, 28: 3, 8: 16}","[3, 8, 23, 28, 41]",34816232283413,Li4Nb3V2Ni3O16
Li4V2Ni3Sn3O16,mp-774900,1.2281,4.99077201,0.09604492142856991,"{3: 4, 23: 2, 28: 3, 50: 3, 8: 16}","[3, 8, 23, 28, 50]",34816232283503,Li4V2Ni3Sn3O16
Li4V2Ni3Sb3O16,mp-774610,0.2984,5.28520655,0.05781580656250629,"{3: 4, 23: 2, 28: 3, 51: 3, 8: 16}","[3, 8, 23, 28, 51]",34816232283513,Li4V2Ni3Sb3O16
Li4Mn3V3Cr2O16,mp-770524,0.33550000000000013,3.19554247,0.11446756384920853,"{3: 4, 25: 3, 23: 3, 24: 2, 8: 16}","[3, 8, 23, 24, 25]",34816233242253,Li4Mn3V3Cr2O16
Li4Nb3V3Cr2O16,mp-757154,0.0,4.15653224,0.17280072292410864,"{3: 4, 41: 3, 23: 3, 24: 2, 8: 16}","[3, 8, 23, 24, 41]",34816233242413,Li4Nb3V3Cr2O16
Li4V3Cr2Sn3O16,mp-777461,1.3282000000000003,3.91387581,0.04553608375000007,"{3: 4, 23: 3, 24: 2, 50: 3, 8: 16}","[3, 8, 23, 24, 50]",34816233242503,Li4V3Cr2Sn3O16
Li4Mn2V3Cr3O16,mp-773000,0.4346000000000001,2.98680539,0.11561765140624836,"{3: 4, 25: 2, 23: 3, 24: 3, 8: 16}","[3, 8, 23, 24, 25]",34816233243252,Li4Mn2V3Cr3O16
Li4Nb2V3Cr3O16,mp-770954,1.1347999999999998,4.45966301,0.009534310066957374,"{3: 4, 41: 2, 23: 3, 24: 3, 8: 16}","[3, 8, 23, 24, 41]",34816233243412,Li4Nb2V3Cr3O16
Li4V3Cr3(SnO8)2,mp-777670,0.6871,4.82341395,0.0,"{3: 4, 23: 3, 24: 3, 50: 2, 8: 16}","[3, 8, 23, 24, 50]",34816233243502,Li4V3Cr3Sn2O16
Li4V3Cr3(SbO8)2,mp-776595,1.3902,4.07646097,0.014090125357142824,"{3: 4, 23: 3, 24: 3, 51: 2, 8: 16}","[3, 8, 23, 24, 51]",34816233243512,Li4V3Cr3Sb2O16
Li4V3Cr3(TeO8)2,mp-769563,0.8393999999999995,4.20014466,0.043738541116067786,"{3: 4, 23: 3, 24: 3, 52: 2, 8: 16}","[3, 8, 23, 24, 52]",34816233243522,Li4V3Cr3Te2O16
Li4V3Cr3(WO8)2,mp-756412,1.5726,3.5065286,0.006191012678570473,"{3: 4, 23: 3, 24: 3, 74: 2, 8: 16}","[3, 8, 23, 24, 74]",34816233243742,Li4V3Cr3W2O16
Li4V3Cr5O16,mp-775818,0.4634999999999998,3.59072896,0.048387334174114116,"{3: 4, 23: 3, 24: 5, 8: 16}","[3, 8, 23, 24]",34816233245,Li4V3Cr5O16
Li4Mn2Nb3V3O16,mp-762830,0.0,3.1852401,0.060059125625004484,"{3: 4, 25: 2, 41: 3, 23: 3, 8: 16}","[3, 8, 23, 25, 41]",34816233252413,Li4Mn2Nb3V3O16
Li4Mn2V3Sn3O16,mp-777427,1.0476,3.46010055,0.05458834205357821,"{3: 4, 25: 2, 23: 3, 50: 3, 8: 16}","[3, 8, 23, 25, 50]",34816233252503,Li4Mn2V3Sn3O16
Li4Mn2V3Sb3O16,mp-765741,0.0,4.44261096,0.031044272142850993,"{3: 4, 25: 2, 23: 3, 51: 3, 8: 16}","[3, 8, 23, 25, 51]",34816233252513,Li4Mn2V3Sb3O16
Li4Mn3V3(NiO8)2,mp-774572,0.6217999999999999,3.65337602,0.08017581482811575,"{3: 4, 25: 3, 23: 3, 28: 2, 8: 16}","[3, 8, 23, 25, 28]",34816233253282,Li4Mn3V3Ni2O16
Li4Mn3Nb2V3O16,mp-775656,0.24990000000000023,3.48621053,0.04548828860119869,"{3: 4, 25: 3, 41: 2, 23: 3, 8: 16}","[3, 8, 23, 25, 41]",34816233253412,Li4Mn3Nb2V3O16
Li4Mn3V3(SnO8)2,mp-775771,0.5051000000000001,4.39087382,0.04953433482141456,"{3: 4, 25: 3, 23: 3, 50: 2, 8: 16}","[3, 8, 23, 25, 50]",34816233253502,Li4Mn3V3Sn2O16
Li4Mn3V3(SbO8)2,mp-776978,0.35230000000000006,4.05601111,0.02728814727679385,"{3: 4, 25: 3, 23: 3, 51: 2, 8: 16}","[3, 8, 23, 25, 51]",34816233253512,Li4Mn3V3Sb2O16
Li4Mn3V3(TeO8)2,mp-1177458,0.4295,4.21610544,0.0813258780803583,"{3: 4, 25: 3, 23: 3, 52: 2, 8: 16}","[3, 8, 23, 25, 52]",34816233253522,Li4Mn3V3Te2O16
Li4Mn3V3(WO8)2,mp-753065,0.8083999999999998,3.35591677,0.0360651672321346,"{3: 4, 25: 3, 23: 3, 74: 2, 8: 16}","[3, 8, 23, 25, 74]",34816233253742,Li4Mn3V3W2O16
Li4Mn5V3O16,mp-773194,0.2576999999999998,3.18517235,0.06377726338168,"{3: 4, 25: 5, 23: 3, 8: 16}","[3, 8, 23, 25]",34816233255,Li4Mn5V3O16
Li4Nb3V3(CoO8)2,mp-763698,0.0,3.51607422,0.1164296475446367,"{3: 4, 41: 3, 23: 3, 27: 2, 8: 16}","[3, 8, 23, 27, 41]",34816233272413,Li4Nb3V3Co2O16
Li4V3Co2Sn3O16,mp-778284,0.8900999999999999,4.55343047,0.09962941890306176,"{3: 4, 23: 3, 27: 2, 50: 3, 8: 16}","[3, 8, 23, 27, 50]",34816233272503,Li4V3Co2Sn3O16
Li4V3Co2Sb3O16,mp-770636,0.05149999999999988,4.45933194,0.08610914227678546,"{3: 4, 23: 3, 27: 2, 51: 3, 8: 16}","[3, 8, 23, 27, 51]",34816233272513,Li4V3Co2Sb3O16
Li4Nb2V3Co3O16,mp-1177325,1.1374,3.69223511,0.09929982946429661,"{3: 4, 41: 2, 23: 3, 27: 3, 8: 16}","[3, 8, 23, 27, 41]",34816233273412,Li4Nb2V3Co3O16
Li4V3Co3(SnO8)2,mp-774843,0.4488000000000003,3.47519951,0.08823829709183517,"{3: 4, 23: 3, 27: 3, 50: 2, 8: 16}","[3, 8, 23, 27, 50]",34816233273502,Li4V3Co3Sn2O16
Li4V3Co3(SbO8)2,mp-765171,0.0,3.73014396,0.06677621339285711,"{3: 4, 23: 3, 27: 3, 51: 2, 8: 16}","[3, 8, 23, 27, 51]",34816233273512,Li4V3Co3Sb2O16
Li4V3Co3(TeO8)2,mp-771757,1.2845,4.45090836,0.10771257898809594,"{3: 4, 23: 3, 27: 3, 52: 2, 8: 16}","[3, 8, 23, 27, 52]",34816233273522,Li4V3Co3Te2O16
Li4V3Co3(WO8)2,mp-757526,0.0,3.6673377,0.2724737605357088,"{3: 4, 23: 3, 27: 3, 74: 2, 8: 16}","[3, 8, 23, 27, 74]",34816233273742,Li4V3Co3W2O16
Li4Nb3V3(NiO8)2,mp-770999,0.0,3.31055203,0.08971151874999883,"{3: 4, 41: 3, 23: 3, 28: 2, 8: 16}","[3, 8, 23, 28, 41]",34816233282413,Li4Nb3V3Ni2O16
Li4V3Ni2Sn3O16,mp-777392,1.2162999999999995,4.81668621,0.07871256321428355,"{3: 4, 23: 3, 28: 2, 50: 3, 8: 16}","[3, 8, 23, 28, 50]",34816233282503,Li4V3Ni2Sn3O16
Li4V3Ni2Sb3O16,mp-1177235,0.010600000000000165,4.66536824,0.0617517512500001,"{3: 4, 23: 3, 28: 2, 51: 3, 8: 16}","[3, 8, 23, 28, 51]",34816233282513,Li4V3Ni2Sb3O16
Li4Nb2V3Ni3O16,mp-776390,1.2178999999999998,4.22124101,0.021791712857140766,"{3: 4, 41: 2, 23: 3, 28: 3, 8: 16}","[3, 8, 23, 28, 41]",34816233283412,Li4Nb2V3Ni3O16
Li4V3Ni3(SnO8)2,mp-775442,0.1318999999999999,4.13989175,0.08184557821429195,"{3: 4, 23: 3, 28: 3, 50: 2, 8: 16}","[3, 8, 23, 28, 50]",34816233283502,Li4V3Ni3Sn2O16
Li4V3Ni3(SbO8)2,mp-756761,0.4476,3.94674724,0.028232999107140166,"{3: 4, 23: 3, 28: 3, 51: 2, 8: 16}","[3, 8, 23, 28, 51]",34816233283512,Li4V3Ni3Sb2O16
Li4V3Ni3(TeO8)2,mp-763968,0.9095999999999997,3.59156594,0.055094042976187474,"{3: 4, 23: 3, 28: 3, 52: 2, 8: 16}","[3, 8, 23, 28, 52]",34816233283522,Li4V3Ni3Te2O16
Li4V3Ni3(WO8)2,mp-776367,1.0464999999999995,3.73694253,0.02280533582589417,"{3: 4, 23: 3, 28: 3, 74: 2, 8: 16}","[3, 8, 23, 28, 74]",34816233283742,Li4V3Ni3W2O16
Li4Nb2V3Sn3O16,mp-774909,0.0,5.30190572,0.09234754723213534,"{3: 4, 41: 2, 23: 3, 50: 3, 8: 16}","[3, 8, 23, 41, 50]",34816233412503,Li4Nb2V3Sn3O16
Li4Nb3V3(SnO8)2,mp-757062,0.12340000000000018,4.86722908,0.09772078486607239,"{3: 4, 41: 3, 23: 3, 50: 2, 8: 16}","[3, 8, 23, 41, 50]",34816233413502,Li4Nb3V3Sn2O16
Li4Nb3V3(SbO8)2,mp-776001,0.0,4.71636428,0.09553129123883597,"{3: 4, 41: 3, 23: 3, 51: 2, 8: 16}","[3, 8, 23, 41, 51]",34816233413512,Li4Nb3V3Sb2O16
Li4Nb5V3O16,mp-770888,0.13159999999999972,4.36013808,0.0784950321651916,"{3: 4, 41: 5, 23: 3, 8: 16}","[3, 8, 23, 41]",34816233415,Li4Nb5V3O16
Li4V3Sn3(SbO8)2,mp-776849,0.6482999999999999,4.63783519,0.05496372410714212,"{3: 4, 23: 3, 50: 3, 51: 2, 8: 16}","[3, 8, 23, 50, 51]",34816233503512,Li4V3Sn3Sb2O16
Li4V3Sn3(TeO8)2,mp-1662514,1.0821000000000005,6.42472011,0.0917493525000026,"{3: 4, 23: 3, 50: 3, 52: 2, 8: 16}","[3, 8, 23, 50, 52]",34816233503522,Li4V3Sn3Te2O16
Li4V3Sb5O16,mp-773139,1.2006000000000006,4.7183721,0.08818527255357811,"{3: 4, 23: 3, 51: 5, 8: 16}","[3, 8, 23, 51]",34816233515,Li4V3Sb5O16
Li4V5Cr3O16,mp-777002,0.6927000000000003,3.93749674,0.027895431718754082,"{3: 4, 23: 5, 24: 3, 8: 16}","[3, 8, 23, 24]",34816235243,Li4V5Cr3O16
Li4Mn3V5O16,mp-773187,0.5089999999999999,3.7801993,0.06390387839285694,"{3: 4, 25: 3, 23: 5, 8: 16}","[3, 8, 23, 25]",34816235253,Li4Mn3V5O16
Li4V5Co3O16,mp-1177160,1.2917,3.74793273,0.10861028406592865,"{3: 4, 23: 5, 27: 3, 8: 16}","[3, 8, 23, 27]",34816235273,Li4V5Co3O16
Li4V5Ni3O16,mp-1177166,1.1340999999999997,3.98560994,0.07182586500000276,"{3: 4, 23: 5, 28: 3, 8: 16}","[3, 8, 23, 28]",34816235283,Li4V5Ni3O16
Li4Nb3V5O16,mp-772554,0.0,4.16625032,0.050418718482147185,"{3: 4, 41: 3, 23: 5, 8: 16}","[3, 8, 23, 41]",34816235413,Li4Nb3V5O16
Li4V5Sn3O16,mp-868646,1.3602000000000003,3.75249364,0.03440549625000067,"{3: 4, 23: 5, 50: 3, 8: 16}","[3, 8, 23, 50]",34816235503,Li4V5Sn3O16
Li4V5Sb3O16,mp-775960,0.43069999999999986,5.49512757,0.09167694751785138,"{3: 4, 23: 5, 51: 3, 8: 16}","[3, 8, 23, 51]",34816235513,Li4V5Sb3O16
Li4Mn3Cr2Co3O16,mp-769581,0.0,2.65538446,0.09753591296627295,"{3: 4, 25: 3, 24: 2, 27: 3, 8: 16}","[3, 8, 24, 25, 27]",34816242253273,Li4Mn3Cr2Co3O16
Li4Mn3Cr2Sn3O16,mp-774860,0.19809999999999972,4.06607009,0.14056317958334041,"{3: 4, 25: 3, 24: 2, 50: 3, 8: 16}","[3, 8, 24, 25, 50]",34816242253503,Li4Mn3Cr2Sn3O16
Li4Mn3Cr2Sb3O16,mp-761171,0.07420000000000027,4.58606185,0.11053793335565754,"{3: 4, 25: 3, 24: 2, 51: 3, 8: 16}","[3, 8, 24, 25, 51]",34816242253513,Li4Mn3Cr2Sb3O16
Li4Cr2Co3Sn3O16,mp-774884,0.0,3.95813351,0.07348907217261313,"{3: 4, 24: 2, 27: 3, 50: 3, 8: 16}","[3, 8, 24, 27, 50]",34816242273503,Li4Cr2Co3Sn3O16
Li4Cr2Co3Sb3O16,mp-753885,0.22280000000000033,4.8465242,0.09642609535714541,"{3: 4, 24: 2, 27: 3, 51: 3, 8: 16}","[3, 8, 24, 27, 51]",34816242273513,Li4Cr2Co3Sb3O16
Li4Cr2Ni3Sb3O16,mp-764319,0.05250000000000021,4.11007213,0.06927894738094853,"{3: 4, 24: 2, 28: 3, 51: 3, 8: 16}","[3, 8, 24, 28, 51]",34816242283513,Li4Cr2Ni3Sb3O16
Li4Cr2Ni3Te3O16,mp-754975,0.6059000000000001,5.46426713,0.09943385967261875,"{3: 4, 24: 2, 28: 3, 52: 3, 8: 16}","[3, 8, 24, 28, 52]",34816242283523,Li4Cr2Ni3Te3O16
Li4Mn2Cr3Co3O16,mp-758129,0.0,2.89580662,0.12115260672619765,"{3: 4, 25: 2, 24: 3, 27: 3, 8: 16}","[3, 8, 24, 25, 27]",34816243252273,Li4Mn2Cr3Co3O16
Li4Mn2Nb3Cr3O16,mp-867530,0.10729999999999995,2.85137573,0.09206550374999978,"{3: 4, 25: 2, 41: 3, 24: 3, 8: 16}","[3, 8, 24, 25, 41]",34816243252413,Li4Mn2Nb3Cr3O16
Li4Mn2Cr3Sn3O16,mp-775298,0.039899999999999824,3.77328247,0.1359782024330336,"{3: 4, 25: 2, 24: 3, 50: 3, 8: 16}","[3, 8, 24, 25, 50]",34816243252503,Li4Mn2Cr3Sn3O16
Li4Mn2Cr3Sb3O16,mp-766080,0.12300000000000022,4.32893852,0.06969834575148148,"{3: 4, 25: 2, 24: 3, 51: 3, 8: 16}","[3, 8, 24, 25, 51]",34816243252513,Li4Mn2Cr3Sb3O16
Li4Mn3Cr3(CoO8)2,mp-776269,0.0,2.65967566,0.14546339249999907,"{3: 4, 25: 3, 24: 3, 27: 2, 8: 16}","[3, 8, 24, 25, 27]",34816243253272,Li4Mn3Cr3Co2O16
Li4Mn3Cr3(NiO8)2,mp-757051,0.6302000000000003,3.1941172,0.10552035512500257,"{3: 4, 25: 3, 24: 3, 28: 2, 8: 16}","[3, 8, 24, 25, 28]",34816243253282,Li4Mn3Cr3Ni2O16
Li4Mn3Nb2Cr3O16,mp-756399,0.6616,2.93058614,0.08558444725000491,"{3: 4, 25: 3, 41: 2, 24: 3, 8: 16}","[3, 8, 24, 25, 41]",34816243253412,Li4Mn3Nb2Cr3O16
Li4Mn3Cr3(SnO8)2,mp-776096,0.0,3.95754389,0.1284986175000009,"{3: 4, 25: 3, 24: 3, 50: 2, 8: 16}","[3, 8, 24, 25, 50]",34816243253502,Li4Mn3Cr3Sn2O16
Li4Mn3Cr3(SbO8)2,mp-774806,0.25009999999999977,4.3413034,0.06672763340986076,"{3: 4, 25: 3, 24: 3, 51: 2, 8: 16}","[3, 8, 24, 25, 51]",34816243253512,Li4Mn3Cr3Sb2O16
Li4Mn3Cr3(TeO8)2,mp-774791,0.0484,4.27084185,0.12749215964285554,"{3: 4, 25: 3, 24: 3, 52: 2, 8: 16}","[3, 8, 24, 25, 52]",34816243253522,Li4Mn3Cr3Te2O16
Li4Mn3Cr3(WO8)2,mp-776267,0.0,3.63009614,0.08115797957143656,"{3: 4, 25: 3, 24: 3, 74: 2, 8: 16}","[3, 8, 24, 25, 74]",34816243253742,Li4Mn3Cr3W2O16
Li4Mn5Cr3O16,mp-772050,0.0,2.89915204,0.1403888135119047,"{3: 4, 25: 5, 24: 3, 8: 16}","[3, 8, 24, 25]",34816243255,Li4Mn5Cr3O16
Li4Cr3Co2Sn3O16,mp-775520,0.0,3.39745944,0.10668551235118695,"{3: 4, 24: 3, 27: 2, 50: 3, 8: 16}","[3, 8, 24, 27, 50]",34816243272503,Li4Cr3Co2Sn3O16
Li4Cr3Co2Sb3O16,mp-764773,0.22330000000000005,4.52510426,0.06700237535713605,"{3: 4, 24: 3, 27: 2, 51: 3, 8: 16}","[3, 8, 24, 27, 51]",34816243272513,Li4Cr3Co2Sb3O16
Li4Cr3Co3(NiO8)2,mp-758563,0.6257999999999999,3.0743512,0.06261680749404519,"{3: 4, 24: 3, 27: 3, 28: 2, 8: 16}","[3, 8, 24, 27, 28]",34816243273282,Li4Cr3Co3Ni2O16
Li4Nb2Cr3Co3O16,mp-765095,0.7717999999999998,3.02305104,0.05094405131448099,"{3: 4, 41: 2, 24: 3, 27: 3, 8: 16}","[3, 8, 24, 27, 41]",34816243273412,Li4Nb2Cr3Co3O16
Li4Cr3Co3(SnO8)2,mp-778219,0.0,3.65749089,0.03352083559523322,"{3: 4, 24: 3, 27: 3, 50: 2, 8: 16}","[3, 8, 24, 27, 50]",34816243273502,Li4Cr3Co3Sn2O16
Li4Cr3Co3(SbO8)2,mp-758153,0.0,4.19545641,0.025532389285721102,"{3: 4, 24: 3, 27: 3, 51: 2, 8: 16}","[3, 8, 24, 27, 51]",34816243273512,Li4Cr3Co3Sb2O16
Li4Cr3Co3(TeO8)2,mp-775136,0.0,4.5007099,0.03477845133928614,"{3: 4, 24: 3, 27: 3, 52: 2, 8: 16}","[3, 8, 24, 27, 52]",34816243273522,Li4Cr3Co3Te2O16
Li4Cr3Co3(WO8)2,mp-849422,0.0,3.14631225,0.06239212946428552,"{3: 4, 24: 3, 27: 3, 74: 2, 8: 16}","[3, 8, 24, 27, 74]",34816243273742,Li4Cr3Co3W2O16
Li4Cr3Co5O16,mp-770878,0.0,2.2756742,0.0976627040773792,"{3: 4, 24: 3, 27: 5, 8: 16}","[3, 8, 24, 27]",34816243275,Li4Cr3Co5O16
Li4Nb3Cr3(NiO8)2,mp-1177319,0.46199999999999974,2.71622036,0.09572107767856863,"{3: 4, 41: 3, 24: 3, 28: 2, 8: 16}","[3, 8, 24, 28, 41]",34816243282413,Li4Nb3Cr3Ni2O16
Li4Cr3Ni2Sn3O16,mp-774861,0.3066,4.06999868,0.08133157559523685,"{3: 4, 24: 3, 28: 2, 50: 3, 8: 16}","[3, 8, 24, 28, 50]",34816243282503,Li4Cr3Ni2Sn3O16
Li4Cr3Ni2Sb3O16,mp-756608,0.2989999999999995,4.75290642,0.07309350946428328,"{3: 4, 24: 3, 28: 2, 51: 3, 8: 16}","[3, 8, 24, 28, 51]",34816243282513,Li4Cr3Ni2Sb3O16
Li4Nb2Cr3Ni3O16,mp-779200,0.0,2.60452693,0.041351365595235556,"{3: 4, 41: 2, 24: 3, 28: 3, 8: 16}","[3, 8, 24, 28, 41]",34816243283412,Li4Nb2Cr3Ni3O16
Li4Cr3Ni3(SnO8)2,mp-774864,0.0,3.30876177,0.07300180551586344,"{3: 4, 24: 3, 28: 3, 50: 2, 8: 16}","[3, 8, 24, 28, 50]",34816243283502,Li4Cr3Ni3Sn2O16
Li4Cr3Ni3(SbO8)2,mp-774232,0.0,3.64464959,0.03205085803571439,"{3: 4, 24: 3, 28: 3, 51: 2, 8: 16}","[3, 8, 24, 28, 51]",34816243283512,Li4Cr3Ni3Sb2O16
Li4Cr3Ni3(TeO8)2,mp-757190,0.0,3.99482143,0.007087811785718046,"{3: 4, 24: 3, 28: 3, 52: 2, 8: 16}","[3, 8, 24, 28, 52]",34816243283522,Li4Cr3Ni3Te2O16
Li4Cr3Ni3(WO8)2,mp-757815,0.0,3.52296583,0.03341594132936354,"{3: 4, 24: 3, 28: 3, 74: 2, 8: 16}","[3, 8, 24, 28, 74]",34816243283742,Li4Cr3Ni3W2O16
Li4Nb5Cr3O16,mp-771179,0.04290000000000038,4.35595804,0.10443953781251203,"{3: 4, 41: 5, 24: 3, 8: 16}","[3, 8, 24, 41]",34816243415,Li4Nb5Cr3O16
Li4Cr3Sn3(SbO8)2,mp-755860,0.0,5.09470209,0.06411782499999585,"{3: 4, 24: 3, 50: 3, 51: 2, 8: 16}","[3, 8, 24, 50, 51]",34816243503512,Li4Cr3Sn3Sb2O16
Li4Cr3Sn3(TeO8)2,mp-774846,0.8853,5.38351339,0.08554461027529303,"{3: 4, 24: 3, 50: 3, 52: 2, 8: 16}","[3, 8, 24, 50, 52]",34816243503522,Li4Cr3Sn3Te2O16
Li4Cr3Sn5O16,mp-773182,0.0,6.48494685,0.027848306584823845,"{3: 4, 24: 3, 50: 5, 8: 16}","[3, 8, 24, 50]",34816243505,Li4Cr3Sn5O16
Li4Mn3Cr5O16,mp-771148,0.24029999999999996,2.72346801,0.1227560350000001,"{3: 4, 25: 3, 24: 5, 8: 16}","[3, 8, 24, 25]",34816245253,Li4Mn3Cr5O16
Li4Cr5Co3O16,mp-771854,0.0472999999999999,2.7151814,0.07358244429563143,"{3: 4, 24: 5, 27: 3, 8: 16}","[3, 8, 24, 27]",34816245273,Li4Cr5Co3O16
Li4Nb3Cr5O16,mp-756891,0.0,4.40573746,0.06624879178571419,"{3: 4, 41: 3, 24: 5, 8: 16}","[3, 8, 24, 41]",34816245413,Li4Nb3Cr5O16
Li4Cr5Sn3O16,mp-770671,0.0,3.6064593,0.05155189525793524,"{3: 4, 24: 5, 50: 3, 8: 16}","[3, 8, 24, 50]",34816245503,Li4Cr5Sn3O16
Li4Mn2Co3Ni3O16,mp-776416,0.0,3.15011367,0.08972348498511895,"{3: 4, 25: 2, 27: 3, 28: 3, 8: 16}","[3, 8, 25, 27, 28]",34816252273283,Li4Mn2Co3Ni3O16
Li4Mn2Nb3Co3O16,mp-774294,0.5815999999999999,2.87353083,0.13531496526785158,"{3: 4, 25: 2, 41: 3, 27: 3, 8: 16}","[3, 8, 25, 27, 41]",34816252273413,Li4Mn2Nb3Co3O16
Li4Mn2Co3Sn3O16,mp-850186,0.0,4.23535554,0.08671830600000519,"{3: 4, 25: 2, 27: 3, 50: 3, 8: 16}","[3, 8, 25, 27, 50]",34816252273503,Li4Mn2Co3Sn3O16
Li4Mn2Co3Sb3O16,mp-770842,0.0,4.03470567,0.11139033380953567,"{3: 4, 25: 2, 27: 3, 51: 3, 8: 16}","[3, 8, 25, 27, 51]",34816252273513,Li4Mn2Co3Sb3O16
Li4Mn2Co3Te3O16,mp-753987,0.48399999999999954,3.69626488,0.08492596598214419,"{3: 4, 25: 2, 27: 3, 52: 3, 8: 16}","[3, 8, 25, 27, 52]",34816252273523,Li4Mn2Co3Te3O16
Li4Mn2Ni3Sn3O16,mp-1177530,0.0,4.57038973,0.07220373962053372,"{3: 4, 25: 2, 28: 3, 50: 3, 8: 16}","[3, 8, 25, 28, 50]",34816252283503,Li4Mn2Ni3Sn3O16
Li4Mn2Ni3Sb3O16,mp-766017,0.0,4.24007564,0.07965943922619001,"{3: 4, 25: 2, 28: 3, 51: 3, 8: 16}","[3, 8, 25, 28, 51]",34816252283513,Li4Mn2Ni3Sb3O16
Li4Mn3Co2Ni3O16,mp-867541,0.0,2.71482657,0.08548593982142894,"{3: 4, 25: 3, 27: 2, 28: 3, 8: 16}","[3, 8, 25, 27, 28]",34816253272283,Li4Mn3Co2Ni3O16
Li4Mn3Co2Sn3O16,mp-774784,0.0,3.97958023,0.07187727621428497,"{3: 4, 25: 3, 27: 2, 50: 3, 8: 16}","[3, 8, 25, 27, 50]",34816253272503,Li4Mn3Co2Sn3O16
Li4Mn3Co2Sb3O16,mp-754687,0.0,3.93663368,0.06771459517857092,"{3: 4, 25: 3, 27: 2, 51: 3, 8: 16}","[3, 8, 25, 27, 51]",34816253272513,Li4Mn3Co2Sb3O16
Li4Mn3Co2Te3O16,mp-753545,0.16389999999999993,4.20289155,0.09978386526786398,"{3: 4, 25: 3, 27: 2, 52: 3, 8: 16}","[3, 8, 25, 27, 52]",34816253272523,Li4Mn3Co2Te3O16
Li4Mn3Co3(NiO8)2,mp-758046,0.6252,3.11410263,0.11358002370535658,"{3: 4, 25: 3, 27: 3, 28: 2, 8: 16}","[3, 8, 25, 27, 28]",34816253273282,Li4Mn3Co3Ni2O16
Li4Mn3Nb2Co3O16,mp-763519,0.0,2.59847133,0.045727687792211924,"{3: 4, 25: 3, 41: 2, 27: 3, 8: 16}","[3, 8, 25, 27, 41]",34816253273412,Li4Mn3Nb2Co3O16
Li4Mn3Co3(SnO8)2,mp-777041,0.0,4.12928932,0.02464416446428519,"{3: 4, 25: 3, 27: 3, 50: 2, 8: 16}","[3, 8, 25, 27, 50]",34816253273502,Li4Mn3Co3Sn2O16
Li4Mn3Co3(SbO8)2,mp-758093,0.0,4.2482104,0.039928443392856394,"{3: 4, 25: 3, 27: 3, 51: 2, 8: 16}","[3, 8, 25, 27, 51]",34816253273512,Li4Mn3Co3Sb2O16
Li4Mn3Co3(TeO8)2,mp-769585,0.0,3.99531977,0.006942697142860332,"{3: 4, 25: 3, 27: 3, 52: 2, 8: 16}","[3, 8, 25, 27, 52]",34816253273522,Li4Mn3Co3Te2O16
Li4Mn3Co3(WO8)2,mp-774604,0.3201999999999998,2.70520184,0.09988215785714072,"{3: 4, 25: 3, 27: 3, 74: 2, 8: 16}","[3, 8, 25, 27, 74]",34816253273742,Li4Mn3Co3W2O16
Li4Mn3Co5O16,mp-754275,0.0,3.16242175,0.06039587522320211,"{3: 4, 25: 3, 27: 5, 8: 16}","[3, 8, 25, 27]",34816253275,Li4Mn3Co5O16
Li4Mn3Ni2Sn3O16,mp-774492,0.6145,4.23616638,0.07030674928571834,"{3: 4, 25: 3, 28: 2, 50: 3, 8: 16}","[3, 8, 25, 28, 50]",34816253282503,Li4Mn3Ni2Sn3O16
Li4Mn3Ni2Sb3O16,mp-757668,0.0,4.20409508,0.07329552107142945,"{3: 4, 25: 3, 28: 2, 51: 3, 8: 16}","[3, 8, 25, 28, 51]",34816253282513,Li4Mn3Ni2Sb3O16
Li4Mn3Nb2Ni3O16,mp-758591,0.0,3.39638026,0.03948821696428695,"{3: 4, 25: 3, 41: 2, 28: 3, 8: 16}","[3, 8, 25, 28, 41]",34816253283412,Li4Mn3Nb2Ni3O16
Li4Mn3Ni3(SnO8)2,mp-774587,0.005700000000000038,3.5517764,0.018744679107142836,"{3: 4, 25: 3, 28: 3, 50: 2, 8: 16}","[3, 8, 25, 28, 50]",34816253283502,Li4Mn3Ni3Sn2O16