formula,material_id,band_gap,efermi,energy_above_hull,comp_atoms,sorted_keys_comp_atoms,comp_number,new_formula
Li12Mo5O17,mp-1199885,1.2811,3.37071684,0.00872842205881863,"{3: 12, 42: 5, 8: 17}","[3, 8, 42]",312817425,Li12Mo5O17
LiZnNi2,mp-1185421,0.0,4.35674524,0.0,"{3: 1, 30: 1, 28: 2}","[3, 28, 30]",31282301,Li1Zn1Ni2
LiGaNi2,mp-867197,0.0,5.58093269,0.0,"{3: 1, 31: 1, 28: 2}","[3, 28, 31]",31282311,Li1Ga1Ni2
LiNi2Ge,mp-16349,0.0,7.38441401,0.0,"{3: 1, 28: 2, 32: 1}","[3, 28, 32]",31282321,Li1Ni2Ge1
LiNi2As,mp-1096495,0.006399999999999739,-3.68692749,2.24608917734375,"{3: 1, 28: 2, 33: 1}","[3, 28, 33]",31282331,Li1Ni2As1
Li12CrGa11O24,mp-770660,1.3460999999999999,2.15632425,0.04924509734374638,"{3: 12, 24: 1, 31: 11, 8: 24}","[3, 8, 24, 31]",3128242413111,Li12Cr1Ga11O24
Li12MnCo(Ni5O12)2,mp-1120802,0.0,3.40984204,0.019513328159719734,"{3: 12, 25: 1, 27: 1, 28: 10, 8: 24}","[3, 8, 25, 27, 28]",3128242512712810,Li12Mn1Co1Ni10O24
LiNi2Sn,mp-13915,0.0,7.49428482,0.0,"{3: 1, 28: 2, 50: 1}","[3, 28, 50]",31282501,Li1Ni2Sn1
LiNi2Sb,mp-1185260,0.0,8.16326888,0.05419088583333398,"{3: 1, 28: 2, 51: 1}","[3, 28, 51]",31282511,Li1Ni2Sb1
Li12Ni11O28,mp-759703,0.6335999999999999,2.25097744,0.0664345329913143,"{3: 12, 28: 11, 8: 28}","[3, 8, 28]",3128282811,Li12Ni11O28
Li12(WO4)7,mp-1210972,0.0,-0.39376189,0.06945258731383142,"{3: 12, 74: 7, 8: 28}","[3, 8, 74]",312828747,Li12W7O28
LiNi3,mp-1185266,0.0,5.9250169,0.062328318333333854,"{3: 1, 28: 3}","[3, 28]",31283,Li1Ni3
Li12Nb14ZnO42,mp-767604,3.2580000000000005,1.02158731,0.006906106702965431,"{3: 12, 41: 14, 30: 1, 8: 42}","[3, 8, 30, 41]",3128423014114,Li12Nb14Zn1O42
Li12Mn7V(PO4)12,mp-1178090,0.6222000000000001,1.59886708,0.011519824450001437,"{3: 12, 25: 7, 23: 1, 15: 12, 8: 48}","[3, 8, 15, 23, 25]",3128481512231257,Li12Mn7V1P12O48
Li12Mn5V3(PO4)12,mp-850892,0.0,2.26028832,0.022178578406239602,"{3: 12, 25: 5, 23: 3, 15: 12, 8: 48}","[3, 8, 15, 23, 25]",3128481512233255,Li12Mn5V3P12O48
Li12Mn3V5(PO4)12,mp-887443,0.5555000000000003,1.91449686,0.023278052585922637,"{3: 12, 25: 3, 23: 5, 15: 12, 8: 48}","[3, 8, 15, 23, 25]",3128481512235253,Li12Mn3V5P12O48
Li12MnV7(PO4)12,mp-779342,0.1814,2.02723002,0.010462117445309005,"{3: 12, 25: 1, 23: 7, 15: 12, 8: 48}","[3, 8, 15, 23, 25]",3128481512237251,Li12Mn1V7P12O48
Li(NiGe)6,mp-15949,0.0,6.32562647,0.0,"{3: 1, 28: 6, 32: 6}","[3, 28, 32]",31286326,Li1Ni6Ge6
Li12Mn2O9,mp-753075,0.724,0.84221032,0.06953926391304588,"{3: 12, 25: 2, 8: 9}","[3, 8, 25]",31289252,Li12Mn2O9
LiZn,mp-1934,0.0,1.98576397,0.0,"{3: 1, 30: 1}","[3, 30]",31301,Li1Zn1
LiZn13,mp-1193737,0.0,2.31570696,0.0,"{3: 1, 30: 13}","[3, 30]",313013,Li1Zn13
LiZnGa2,mp-1097166,0.18150000000000022,-2.58356943,1.3120530692499992,"{3: 1, 30: 1, 31: 2}","[3, 30, 31]",31301312,Li1Zn1Ga2
LiZnGe,mp-569788,0.0,2.89286225,0.0,"{3: 1, 30: 1, 32: 1}","[3, 30, 32]",31301321,Li1Zn1Ge1
LiZnAs,mp-9124,0.5518000000000001,2.99085436,0.0,"{3: 1, 30: 1, 33: 1}","[3, 30, 33]",31301331,Li1Zn1As1
Sr2LiZn,mp-1096595,0.0,-1.79885838,1.2712199374999997,"{38: 2, 3: 1, 30: 1}","[3, 30, 38]",31301382,Sr2Li1Zn1
LiZnPd2,mp-867258,0.0,3.4348423,0.0,"{3: 1, 30: 1, 46: 2}","[3, 30, 46]",31301462,Li1Zn1Pd2
LiZnAg2,mp-861625,0.0,2.62516113,0.0,"{3: 1, 30: 1, 47: 2}","[3, 30, 47]",31301472,Li1Zn1Ag2
LiZnCd2,mp-1185432,0.0,2.54695762,0.024179960833329517,"{3: 1, 30: 1, 48: 2}","[3, 30, 48]",31301482,Li1Zn1Cd2
LiZnSb,mp-9919,0.4057000000000004,4.47948322,0.0,"{3: 1, 30: 1, 51: 1}","[3, 30, 51]",31301511,Li1Zn1Sb1
LiZnPt2,mp-1185418,0.0,4.56281966,0.0,"{3: 1, 30: 1, 78: 2}","[3, 30, 78]",31301782,Li1Zn1Pt2
LiZnAu2,mp-861932,0.0,3.81612657,0.0,"{3: 1, 30: 1, 79: 2}","[3, 30, 79]",31301792,Li1Zn1Au2
LiZnHg2,mp-1096409,0.0,-2.06335825,0.6745077062500009,"{3: 1, 30: 1, 80: 2}","[3, 30, 80]",31301802,Li1Zn1Hg2
LiZn2,mp-1210982,0.0,1.15390957,0.2752141683333331,"{3: 1, 30: 2}","[3, 30]",31302,Li1Zn2
LiZn2Ru,mp-1096439,0.046399999999999775,-3.17725916,1.9406728983333317,"{3: 1, 30: 2, 44: 1}","[3, 30, 44]",31302441,Li1Zn2Ru1
LiZn2Rh,mp-865912,0.0,2.96441119,0.0,"{3: 1, 30: 2, 45: 1}","[3, 30, 45]",31302451,Li1Zn2Rh1
LiZn2Pd,mp-867250,0.0,3.01743552,0.0,"{3: 1, 30: 2, 46: 1}","[3, 30, 46]",31302461,Li1Zn2Pd1
LiZn2Ag,mp-1185422,0.0,2.57302539,0.0,"{3: 1, 30: 2, 47: 1}","[3, 30, 47]",31302471,Li1Zn2Ag1
LiLaZn2,mp-1095737,0.0,-2.01038793,1.7656082816666672,"{3: 1, 57: 1, 30: 2}","[3, 30, 57]",31302571,Li1La1Zn2
LiCeZn2,mp-1185346,0.0,3.70518087,0.038064674166667256,"{3: 1, 58: 1, 30: 2}","[3, 30, 58]",31302581,Li1Ce1Zn2
LiPrZn2,mp-1185408,0.0,2.16489246,0.006913966666667992,"{3: 1, 59: 1, 30: 2}","[3, 30, 59]",31302591,Li1Pr1Zn2
LiNdZn2,mp-1185390,0.0,2.09394314,0.009899585416667467,"{3: 1, 60: 1, 30: 2}","[3, 30, 60]",31302601,Li1Nd1Zn2
LiPmZn2,mp-983444,0.0,2.07129012,0.0,"{3: 1, 61: 1, 30: 2}","[3, 30, 61]",31302611,Li1Pm1Zn2
LiZn2Ir,mp-867253,0.0,3.54910557,0.0,"{3: 1, 30: 2, 77: 1}","[3, 30, 77]",31302771,Li1Zn2Ir1
LiZn2Pt,mp-867251,0.0,3.68818131,0.0,"{3: 1, 30: 2, 78: 1}","[3, 30, 78]",31302781,Li1Zn2Pt1
LiZn2Au,mp-867255,0.0,3.29104783,0.0,"{3: 1, 30: 2, 79: 1}","[3, 30, 79]",31302791,Li1Zn2Au1
LiZn3,mp-865907,0.0,3.431513,0.0,"{3: 1, 30: 3}","[3, 30]",31303,Li1Zn3
LiGa,mp-1307,0.0,4.14649114,0.0,"{3: 1, 31: 1}","[3, 31]",31311,Li1Ga1
LiGaGe,mp-7874,0.0,3.31194229,0.0,"{3: 1, 31: 1, 32: 1}","[3, 31, 32]",31311321,Li1Ga1Ge1
LiGa(GeSe3)2,mp-1222398,1.5103999999999997,2.21354162,0.014973975499999348,"{3: 1, 31: 1, 32: 2, 34: 6}","[3, 31, 32, 34]",31311322346,Li1Ga1Ge2Se6
LiGaSe2,mp-11582,2.0656,0.80562194,0.0,"{3: 1, 31: 1, 34: 2}","[3, 31, 34]",31311342,Li1Ga1Se2
LiGaBr3,mp-28327,2.956,-0.48986217,0.0,"{3: 1, 31: 1, 35: 3}","[3, 31, 35]",31311353,Li1Ga1Br3
LiGaBr4,mp-28326,3.4374000000000002,-1.47816731,0.0,"{3: 1, 31: 1, 35: 4}","[3, 31, 35]",31311354,Li1Ga1Br4
Sr2LiGa,mp-1187085,0.0,1.73733467,0.0349322889285717,"{38: 2, 3: 1, 31: 1}","[3, 31, 38]",31311382,Sr2Li1Ga1
LiGaRh2,mp-862730,0.0,4.4646701,0.0,"{3: 1, 31: 1, 45: 2}","[3, 31, 45]",31311452,Li1Ga1Rh2
LiGaPd2,mp-867198,0.0,4.19283447,0.0,"{3: 1, 31: 1, 46: 2}","[3, 31, 46]",31311462,Li1Ga1Pd2
LiGaAg2,mp-865963,0.0,3.05154709,0.0,"{3: 1, 31: 1, 47: 2}","[3, 31, 47]",31311472,Li1Ga1Ag2
LiGaTe2,mp-5048,1.5885000000000002,2.3152225,0.0,"{3: 1, 31: 1, 52: 2}","[3, 31, 52]",31311522,Li1Ga1Te2
LiGaI3,mp-29345,2.2473,1.14664265,0.0,"{3: 1, 31: 1, 53: 3}","[3, 31, 53]",31311533,Li1Ga1I3
LiGaI4,mp-567967,2.5201,0.67736941,0.0,"{3: 1, 31: 1, 53: 4}","[3, 31, 53]",31311534,Li1Ga1I4
LiCe2Ga,mp-1185229,0.0,5.66900018,0.10794508354166865,"{3: 1, 58: 2, 31: 1}","[3, 31, 58]",31311582,Li1Ce2Ga1
LiPr2Ga,mp-1185403,0.0,2.88785441,0.02543289423611128,"{3: 1, 59: 2, 31: 1}","[3, 31, 59]",31311592,Li1Pr2Ga1
LiNd2Ga,mp-865578,0.0,2.83027176,0.020288928854167665,"{3: 1, 60: 2, 31: 1}","[3, 31, 60]",31311602,Li1Nd2Ga1
LiPm2Ga,mp-861947,0.0,2.8894447,0.0,"{3: 1, 61: 2, 31: 1}","[3, 31, 61]",31311612,Li1Pm2Ga1
LiSm2Ga,mp-1185441,0.0,2.70103272,0.022834300364586113,"{3: 1, 62: 2, 31: 1}","[3, 31, 62]",31311622,Li1Sm2Ga1
LiGd2Ga,mp-1185394,0.0,2.67268671,0.0,"{3: 1, 64: 2, 31: 1}","[3, 31, 64]",31311642,Li1Gd2Ga1
LiDy2Ga,mp-1185347,0.0,2.80585378,0.022431281510417733,"{3: 1, 66: 2, 31: 1}","[3, 31, 66]",31311662,Li1Dy2Ga1
LiHo2Ga,mp-867145,0.0,2.71180899,0.026632636354167794,"{3: 1, 67: 2, 31: 1}","[3, 31, 67]",31311672,Li1Ho2Ga1
LiEr2Ga,mp-976793,0.0,2.73489829,0.027004099947916416,"{3: 1, 68: 2, 31: 1}","[3, 31, 68]",31311682,Li1Er2Ga1
LiTm2Ga,mp-1185242,0.0,2.75991628,0.03178354677083206,"{3: 1, 69: 2, 31: 1}","[3, 31, 69]",31311692,Li1Tm2Ga1
LiLu2Ga,mp-976596,0.0,2.75312788,0.03845257385416545,"{3: 1, 71: 2, 31: 1}","[3, 31, 71]",31311712,Li1Lu2Ga1
LiGaIr,mp-1207274,0.0,5.28051928,0.0,"{3: 1, 31: 1, 77: 1}","[3, 31, 77]",31311771,Li1Ga1Ir1
LiGaIr2,mp-1097641,0.09020000000000028,-3.76955113,2.944283376153848,"{3: 1, 31: 1, 77: 2}","[3, 31, 77]",31311772,Li1Ga1Ir2
LiGaPt,mp-1207369,0.0,4.9604355,0.027158743333333568,"{3: 1, 31: 1, 78: 1}","[3, 31, 78]",31311781,Li1Ga1Pt1
LiGaPt2,mp-867170,0.0,5.87052042,0.0,"{3: 1, 31: 1, 78: 2}","[3, 31, 78]",31311782,Li1Ga1Pt2
LiGaAu2,mp-861900,0.0,4.32998215,0.0,"{3: 1, 31: 1, 79: 2}","[3, 31, 79]",31311792,Li1Ga1Au2
LiGaHg2,mp-1097500,0.0,-2.46890221,0.8702170282142845,"{3: 1, 31: 1, 80: 2}","[3, 31, 80]",31311802,Li1Ga1Hg2
LiAc2Ga,mp-862613,0.0,4.91341079,0.0,"{3: 1, 89: 2, 31: 1}","[3, 31, 89]",31311892,Li1Ac2Ga1
LiGa2,mp-1210887,0.0,1.92124456,0.2082132621666677,"{3: 1, 31: 2}","[3, 31]",31312,Li1Ga2
LiGa2Tc,mp-1096584,0.0,-2.41172798,2.087398016249999,"{3: 1, 31: 2, 43: 1}","[3, 31, 43]",31312431,Li1Ga2Tc1
LiGa2Ru,mp-20567,0.0,4.75343674,0.00573874958332965,"{3: 1, 31: 2, 44: 1}","[3, 31, 44]",31312441,Li1Ga2Ru1
LiGa2Rh,mp-4913,0.0,4.96848562,0.0,"{3: 1, 31: 2, 45: 1}","[3, 31, 45]",31312451,Li1Ga2Rh1
LiGa2Pd,mp-5159,0.0,4.93520826,0.0,"{3: 1, 31: 2, 46: 1}","[3, 31, 46]",31312461,Li1Ga2Pd1
LiGa2Ag,mp-1096116,0.011200000000000099,-2.36779518,1.3519411116250009,"{3: 1, 31: 2, 47: 1}","[3, 31, 47]",31312471,Li1Ga2Ag1
LiPmGa2,mp-1185409,0.0,3.06290659,0.0,"{3: 1, 61: 1, 31: 2}","[3, 31, 61]",31312611,Li1Pm1Ga2
LiGa2Ir,mp-5419,0.0,5.30801167,0.0,"{3: 1, 31: 2, 77: 1}","[3, 31, 77]",31312771,Li1Ga2Ir1
LiGa2Pt,mp-20363,0.0,5.76479498,0.0,"{3: 1, 31: 2, 78: 1}","[3, 31, 78]",31312781,Li1Ga2Pt1
LiGa2Au,mp-1096393,0.007400000000000073,-2.37881686,1.2778114967968754,"{3: 1, 31: 2, 79: 1}","[3, 31, 79]",31312791,Li1Ga2Au1
LiGa3,mp-863257,0.0,3.24885879,0.008717875749999493,"{3: 1, 31: 3}","[3, 31]",31313,Li1Ga3
LiGa3Te5,mp-33338,1.041,3.36483642,0.006060284166661933,"{3: 1, 31: 3, 52: 5}","[3, 31, 52]",31313525,Li1Ga3Te5
Li13(Si5Pd7)2,mp-1211165,0.0,4.99640414,0.0,"{3: 13, 14: 10, 46: 14}","[3, 14, 46]",31314104614,Li13Si10Pd14
Li13Si4,mp-672287,0.0,1.98061153,0.0,"{3: 13, 14: 4}","[3, 14]",313144,Li13Si4
LiEu2Ga7,mp-1222348,0.0,3.2358076,0.0,"{3: 1, 63: 2, 31: 7}","[3, 31, 63]",31317632,Li1Eu2Ga7
LiGe,mp-9918,0.0,2.48529575,0.0,"{3: 1, 32: 1}","[3, 32]",31321,Li1Ge1
LiZr4Ge,mp-1222416,0.0,3.91278283,0.2027592934027771,"{3: 1, 40: 4, 32: 1}","[3, 32, 40]",31321404,Li1Zr4Ge1
LiGeRh2,mp-13322,0.0,7.01843206,0.0,"{3: 1, 32: 1, 45: 2}","[3, 32, 45]",31321452,Li1Ge1Rh2
LiGePd2,mp-29633,0.0,5.74009277,0.0,"{3: 1, 32: 1, 46: 2}","[3, 32, 46]",31321462,Li1Ge1Pd2
LiAg2Ge,mp-9472,0.0,4.85793649,0.0,"{3: 1, 47: 2, 32: 1}","[3, 32, 47]",31321472,Li1Ag2Ge1
LiInGe,mp-16343,0.0,5.39070005,0.0,"{3: 1, 49: 1, 32: 1}","[3, 32, 49]",31321491,Li1In1Ge1
LiGeSbTe3,mp-1222311,0.8220000000000001,5.74728896,0.02946463250000031,"{3: 1, 32: 1, 51: 1, 52: 3}","[3, 32, 51, 52]",31321511523,Li1Ge1Sb1Te3
LiGeTe2,mp-28060,0.43710000000000004,3.56909044,0.0,"{3: 1, 32: 1, 52: 2}","[3, 32, 52]",31321522,Li1Ge1Te2
LiLa2Ge,mp-1096482,0.0927,-2.00277839,2.196463475,"{3: 1, 57: 2, 32: 1}","[3, 32, 57]",31321572,Li1La2Ge1
LiPrGe,mp-8481,0.0,2.67196751,0.0,"{3: 1, 59: 1, 32: 1}","[3, 32, 59]",31321591,Li1Pr1Ge1
LiNdGe,mp-15821,0.0,2.62481419,0.0,"{3: 1, 60: 1, 32: 1}","[3, 32, 60]",31321601,Li1Nd1Ge1
LiPm2Ge,mp-861955,0.0,3.41325129,0.0,"{3: 1, 61: 2, 32: 1}","[3, 32, 61]",31321612,Li1Pm2Ge1
LiSmGe,mp-15822,0.0,2.61730039,0.0,"{3: 1, 62: 1, 32: 1}","[3, 32, 62]",31321621,Li1Sm1Ge1
LiGdGe,mp-14210,0.0,2.48908971,0.0,"{3: 1, 64: 1, 32: 1}","[3, 32, 64]",31321641,Li1Gd1Ge1
LiTbGe,mp-1078961,0.0,2.73896095,0.0,"{3: 1, 65: 1, 32: 1}","[3, 32, 65]",31321651,Li1Tb1Ge1
LiDyGe,mp-1079394,0.0,2.73325638,0.0,"{3: 1, 66: 1, 32: 1}","[3, 32, 66]",31321661,Li1Dy1Ge1
LiHoGe,mp-15820,0.0,2.80151257,0.0,"{3: 1, 67: 1, 32: 1}","[3, 32, 67]",31321671,Li1Ho1Ge1
LiErGe,mp-13474,0.0,2.85625289,0.0,"{3: 1, 68: 1, 32: 1}","[3, 32, 68]",31321681,Li1Er1Ge1
LiTmGe,mp-1205941,0.0,2.69017225,0.0,"{3: 1, 69: 1, 32: 1}","[3, 32, 69]",31321691,Li1Tm1Ge1
LiLuGe,mp-1205878,0.0,2.6456362,0.0,"{3: 1, 71: 1, 32: 1}","[3, 32, 71]",31321711,Li1Lu1Ge1
LiGeIr2,mp-861882,0.0,6.86265842,0.0,"{3: 1, 32: 1, 77: 2}","[3, 32, 77]",31321772,Li1Ge1Ir2
LiGePt2,mp-1185305,0.0,6.2123613,0.0030907325000022468,"{3: 1, 32: 1, 78: 2}","[3, 32, 78]",31321782,Li1Ge1Pt2
LiGeAu2,mp-861881,0.0,4.57137038,0.0,"{3: 1, 32: 1, 79: 2}","[3, 32, 79]",31321792,Li1Ge1Au2
LiAc2Ge,mp-862667,0.0,5.42805139,0.0,"{3: 1, 89: 2, 32: 1}","[3, 32, 89]",31321892,Li1Ac2Ge1
SrLiGe2,mp-13139,0.0,2.29719199,0.0,"{38: 1, 3: 1, 32: 2}","[3, 32, 38]",31322381,Sr1Li1Ge2
Sr2LiInGe2,mp-571617,0.0,3.54732214,0.0,"{38: 2, 3: 1, 49: 1, 32: 2}","[3, 32, 38, 49]",31322382491,Sr2Li1In1Ge2
LiGe2Rh,mp-1093630,0.19440000000000035,-3.30895695,2.0592094206250002,"{3: 1, 32: 2, 45: 1}","[3, 32, 45]",31322451,Li1Ge2Rh1
LiLaGe2,mp-1188255,0.0,5.16329839,0.0,"{3: 1, 57: 1, 32: 2}","[3, 32, 57]",31322571,Li1La1Ge2
LiCeGe2,mp-20428,0.0,4.842905,0.0,"{3: 1, 58: 1, 32: 2}","[3, 32, 58]",31322581,Li1Ce1Ge2
LiPrGe2,mp-865658,0.0,3.65643041,0.0,"{3: 1, 59: 1, 32: 2}","[3, 32, 59]",31322591,Li1Pr1Ge2
LiNdGe2,mp-1188849,0.0,3.5664836,0.0,"{3: 1, 60: 1, 32: 2}","[3, 32, 60]",31322601,Li1Nd1Ge2
LiSmGe2,mp-1188183,0.0,3.52358526,0.0,"{3: 1, 62: 1, 32: 2}","[3, 32, 62]",31322621,Li1Sm1Ge2
LiEuGe2,mp-1106100,0.0,2.62951008,0.0,"{3: 1, 63: 1, 32: 2}","[3, 32, 63]",31322631,Li1Eu1Ge2
LiGe2Ir,mp-1185318,0.0,5.88764136,0.013681885343750366,"{3: 1, 32: 2, 77: 1}","[3, 32, 77]",31322771,Li1Ge2Ir1
LiGe2Pt,mp-1096335,0.2623000000000002,-3.87273957,1.7047537163124988,"{3: 1, 32: 2, 78: 1}","[3, 32, 78]",31322781,Li1Ge2Pt1
LiGe3,mp-1185336,0.0,3.46904444,0.14597456062500047,"{3: 1, 32: 3}","[3, 32]",31323,Li1Ge3
Sr2LiGe3,mp-1191694,0.0,2.48820169,0.0026338000000007966,"{38: 2, 3: 1, 32: 3}","[3, 32, 38]",31323382,Sr2Li1Ge3
LiGe3SbTe5,mp-1222357,0.8269000000000002,5.62582729,0.01292447849999867,"{3: 1, 32: 3, 51: 1, 52: 5}","[3, 32, 51, 52]",31323511525,Li1Ge3Sb1Te5
LiEu2Ge3,mp-637249,0.0,2.6903067,0.00675667416666581,"{3: 1, 63: 2, 32: 3}","[3, 32, 63]",31323632,Li1Eu2Ge3
Li(CeGe)4,mp-1197625,0.0,5.57916904,0.024348807916666715,"{3: 1, 58: 4, 32: 4}","[3, 32, 58]",31324584,Li1Ce4Ge4
Li(PrGe)4,mp-1197150,0.05510000000000037,3.42574161,0.0,"{3: 1, 59: 4, 32: 4}","[3, 32, 59]",31324594,Li1Pr4Ge4
Li(NdGe)4,mp-1196908,0.05569999999999986,3.40034216,0.0,"{3: 1, 60: 4, 32: 4}","[3, 32, 60]",31324604,Li1Nd4Ge4
Li(HoGe)4,mp-1195831,0.0,3.41443283,0.0,"{3: 1, 67: 4, 32: 4}","[3, 32, 67]",31324674,Li1Ho4Ge4
Li(ErGe)4,mp-1211564,0.0,3.49335979,0.0,"{3: 1, 68: 4, 32: 4}","[3, 32, 68]",31324684,Li1Er4Ge4
Li(TmGe2)2,mp-1222756,0.0,3.62507835,0.026754998214283177,"{3: 1, 69: 2, 32: 4}","[3, 32, 69]",31324692,Li1Tm2Ge4
Li(TmGe)4,mp-1211496,0.0,3.47464743,0.0,"{3: 1, 69: 4, 32: 4}","[3, 32, 69]",31324694,Li1Tm4Ge4
Li(LuGe)4,mp-1211602,0.0,3.46581004,0.0,"{3: 1, 71: 4, 32: 4}","[3, 32, 71]",31324714,Li1Lu4Ge4
Li13(Mn3As4)2,mp-675195,0.0,3.14024575,0.11061416789484912,"{3: 13, 25: 6, 33: 8}","[3, 25, 33]",313256338,Li13Mn6As8
Li(PrGe3)2,mp-4960,0.0,3.69430348,0.09481227222222088,"{3: 1, 59: 2, 32: 6}","[3, 32, 59]",31326592,Li1Pr2Ge6
Li13Zn11Ge12,mp-1223160,0.0,1.51252647,0.17713405180555553,"{3: 13, 30: 11, 32: 12}","[3, 30, 32]",31330113212,Li13Zn11Ge12
LiAs,mp-7943,0.3285,3.14337844,0.0,"{3: 1, 33: 1}","[3, 33]",31331,Li1As1
LiAsSe2,mp-1078724,0.7504,2.42026674,0.0,"{3: 1, 33: 1, 34: 2}","[3, 33, 34]",31331342,Li1As1Se2
SrLiAs,mp-1101989,1.0323000000000002,2.65784631,0.0,"{38: 1, 3: 1, 33: 1}","[3, 33, 38]",31331381,Sr1Li1As1
LiAsRh2,mp-862335,0.0,7.06715846,0.0,"{3: 1, 33: 1, 45: 2}","[3, 33, 45]",31331452,Li1As1Rh2
LiAsPd2,mp-862321,0.0,5.15906527,0.013038180833330415,"{3: 1, 33: 1, 46: 2}","[3, 33, 46]",31331462,Li1As1Pd2
LiCdAs,mp-1018135,0.0,2.42788806,0.0,"{3: 1, 48: 1, 33: 1}","[3, 33, 48]",31331481,Li1Cd1As1
LiEuAs,mp-1095352,0.0,3.52471231,0.0,"{3: 1, 63: 1, 33: 1}","[3, 33, 63]",31331631,Li1Eu1As1
LiNbAs2,mp-676566,0.0,4.43086216,0.14413528249999885,"{3: 1, 41: 1, 33: 2}","[3, 33, 41]",31332411,Li1Nb1As2
LiAs3,mp-1206724,0.0,4.60159013,0.2921114765624999,"{3: 1, 33: 3}","[3, 33]",31333,Li1As3
RbLiSe,mp-9250,2.3089,0.62183477,0.0,"{37: 1, 3: 1, 34: 1}","[3, 34, 37]",31341371,Rb1Li1Se1
LiAgSe,mp-1100393,0.21399999999999997,2.01119337,0.17461224000000097,"{3: 1, 47: 1, 34: 1}","[3, 34, 47]",31341471,Li1Ag1Se1
Rb2LiSe2,mp-1209608,0.0,0.54249093,1.042967545333334,"{37: 2, 3: 1, 34: 2}","[3, 34, 37]",31342372,Rb2Li1Se2
LiZrSe2,mp-1001615,0.0,4.74425547,0.0,"{3: 1, 40: 1, 34: 2}","[3, 34, 40]",31342401,Li1Zr1Se2
LiNbSe2,mp-1025496,0.7318999999999996,5.60243542,0.0,"{3: 1, 41: 1, 34: 2}","[3, 34, 41]",31342411,Li1Nb1Se2
LiInSe2,mp-20187,1.5731,1.5806244,0.0,"{3: 1, 49: 1, 34: 2}","[3, 34, 49]",31342491,Li1In1Se2
LiSbSe2,mp-37480,0.2286999999999999,4.13985031,0.007847314062500388,"{3: 1, 51: 1, 34: 2}","[3, 34, 51]",31342511,Li1Sb1Se2
LiNdSe2,mp-37605,1.523,1.80664725,0.0022529945312577127,"{3: 1, 60: 1, 34: 2}","[3, 34, 60]",31342601,Li1Nd1Se2
LiSmSe2,mp-35388,1.5106,1.89053491,0.0,"{3: 1, 62: 1, 34: 2}","[3, 34, 62]",31342621,Li1Sm1Se2
LiGdSe2,mp-15792,1.1717,2.55225743,0.0,"{3: 1, 64: 1, 34: 2}","[3, 34, 64]",31342641,Li1Gd1Se2
LiTbSe2,mp-15793,1.5013,2.57718696,0.0,"{3: 1, 65: 1, 34: 2}","[3, 34, 65]",31342651,Li1Tb1Se2
LiDySe2,mp-15795,1.5347999999999997,2.27143029,0.0,"{3: 1, 66: 1, 34: 2}","[3, 34, 66]",31342661,Li1Dy1Se2
LiHoSe2,mp-15796,1.5729000000000002,2.23313827,0.0,"{3: 1, 67: 1, 34: 2}","[3, 34, 67]",31342671,Li1Ho1Se2
LiErSe2,mp-15797,1.6151,2.31434152,0.0,"{3: 1, 68: 1, 34: 2}","[3, 34, 68]",31342681,Li1Er1Se2
LiHfSe2,mp-1206373,0.0,4.90413323,0.0,"{3: 1, 72: 1, 34: 2}","[3, 34, 72]",31342721,Li1Hf1Se2
LiTaSe2,mp-1207005,0.0,5.32971173,0.08416588687499882,"{3: 1, 73: 1, 34: 2}","[3, 34, 73]",31342731,Li1Ta1Se2
Li(MoSe)3,mp-1103933,0.054999999999999716,4.39638214,0.043620399285714484,"{3: 1, 42: 3, 34: 3}","[3, 34, 42]",31343423,Li1Mo3Se3
LiIn(MoSe)6,mp-1222592,0.0484,4.37041255,0.0717555142857158,"{3: 1, 49: 1, 42: 6, 34: 6}","[3, 34, 42, 49]",31346426491,Li1In1Mo6Se6
Li(Mo3Se4)2,mp-1104651,0.0,4.54361351,0.04170747433333233,"{3: 1, 42: 6, 34: 8}","[3, 34, 42]",31348426,Li1Mo6Se8
Li13In3,mp-510430,0.0,1.91334446,0.0,"{3: 13, 49: 3}","[3, 49]",313493,Li13In3
Li13Sn5,mp-30769,0.0,3.97033391,0.0033475494444448195,"{3: 13, 50: 5}","[3, 50]",313505,Li13Sn5
LiBr,mp-976280,4.9350000000000005,-1.62961997,0.0,"{3: 1, 35: 1}","[3, 35]",31351,Li1Br1
RbLiBr2,mp-28237,4.322,-1.47033155,0.004808562500000058,"{37: 1, 3: 1, 35: 2}","[3, 35, 37]",31352371,Rb1Li1Br2
CsLiBr2,mp-23057,4.1375,-0.66433585,0.0,"{55: 1, 3: 1, 35: 2}","[3, 35, 55]",31352551,Cs1Li1Br2
Cs2LiBr3,mp-1095674,4.3476,-1.02972186,0.0003424058333401092,"{55: 2, 3: 1, 35: 3}","[3, 35, 55]",31353552,Cs2Li1Br3
Cs3LiBr4,mp-1189357,4.035,-1.24852386,0.042431250625000416,"{55: 3, 3: 1, 35: 4}","[3, 35, 55]",31354553,Cs3Li1Br4
LiUBr4,mp-1211505,0.00039999999999995595,2.9374264,0.006240206944440274,"{3: 1, 92: 1, 35: 4}","[3, 35, 92]",31354921,Li1U1Br4
LiSm2Br5,mp-1211059,0.14360000000000017,4.15716239,0.14412051354166522,"{3: 1, 62: 2, 35: 5}","[3, 35, 62]",31355622,Li1Sm2Br5
LiDy2Br5,mp-29431,0.12020000000000053,4.37388332,0.18625400729166586,"{3: 1, 66: 2, 35: 5}","[3, 35, 66]",31355662,Li1Dy2Br5
LiTm2Br5,mp-1211067,0.0,3.66176486,0.20285358548611043,"{3: 1, 69: 2, 35: 5}","[3, 35, 69]",31355692,Li1Tm2Br5
Rb2LiMoBr6,mp-1110711,1.2695,1.01416667,0.05474209845833311,"{37: 2, 3: 1, 42: 1, 35: 6}","[3, 35, 37, 42]",31356372421,Rb2Li1Mo1Br6
Rb2LiSbBr6,mp-1110708,2.3274,0.066875,0.032909101750000946,"{37: 2, 3: 1, 51: 1, 35: 6}","[3, 35, 37, 51]",31356372511,Rb2Li1Sb1Br6
Rb2LiCeBr6,mp-1110712,0.2925,1.96166667,0.029922662999999794,"{37: 2, 3: 1, 58: 1, 35: 6}","[3, 35, 37, 58]",31356372581,Rb2Li1Ce1Br6
Rb2LiPrBr6,mp-1110709,3.9853,-0.91916667,0.03931676900000003,"{37: 2, 3: 1, 59: 1, 35: 6}","[3, 35, 37, 59]",31356372591,Rb2Li1Pr1Br6
Rb2LiNdBr6,mp-1110710,4.001,-0.89916667,0.033354054499999286,"{37: 2, 3: 1, 60: 1, 35: 6}","[3, 35, 37, 60]",31356372601,Rb2Li1Nd1Br6
Rb2LiDyBr6,mp-567628,4.1439,-0.72858658,0.0,"{37: 2, 3: 1, 66: 1, 35: 6}","[3, 35, 37, 66]",31356372661,Rb2Li1Dy1Br6
Rb2LiTaBr6,mp-1110707,0.0,2.29846682,0.1292427887250014,"{37: 2, 3: 1, 73: 1, 35: 6}","[3, 35, 37, 73]",31356372731,Rb2Li1Ta1Br6