formula,material_id,band_gap,efermi,energy_above_hull,comp_atoms,sorted_keys_comp_atoms,comp_number,new_formula
LiPr(GeO3)4,mp-1519840,0.0,1.27755708,0.32269715643750363,"{3: 1, 59: 1, 32: 4, 8: 12}","[3, 8, 32, 59]",31812324591,Li1Pr1Ge4O12
LiZr2(AsO4)3,mp-1202818,3.8841,3.29071038,0.0,"{3: 1, 40: 2, 33: 3, 8: 12}","[3, 8, 33, 40]",31812333402,Li1Zr2As3O12
Rb2LiNb2(TeO6)2,mp-1235064,0.0,3.12586341,0.08897190611842021,"{37: 2, 3: 1, 41: 2, 52: 2, 8: 12}","[3, 8, 37, 41, 52]",31812372412522,Rb2Li1Nb2Te2O12
Sr2LiO12,mp-1235496,0.020199999999999996,0.92659745,0.10928579999999588,"{38: 2, 3: 1, 8: 12}","[3, 8, 38]",31812382,Sr2Li1O12
Sr4LiTb2(RuO6)2,mp-1235116,0.0,3.69039366,0.07986505422618428,"{38: 4, 3: 1, 65: 2, 44: 2, 8: 12}","[3, 8, 38, 44, 65]",31812384442652,Sr4Li1Tb2Ru2O12
Sr4Li(RuO4)3,mp-1218614,0.0,3.65606359,0.02566827474999478,"{38: 4, 3: 1, 44: 3, 8: 12}","[3, 8, 38, 44]",31812384443,Sr4Li1Ru3O12
Sr4LiSm2Ta2O12,mp-1235143,0.0,5.87822197,0.10732682652031045,"{38: 4, 3: 1, 62: 2, 73: 2, 8: 12}","[3, 8, 38, 62, 73]",31812384622732,Sr4Li1Sm2Ta2O12
LiNbTe2WO12,mp-752611,1.5177,2.34464477,0.023753456848741195,"{3: 1, 41: 1, 52: 2, 74: 1, 8: 12}","[3, 8, 41, 52, 74]",31812411522741,Li1Nb1Te2W1O12
LiNb(TeO4)3,mp-758389,1.6715999999999998,2.30236172,0.012977165304625338,"{3: 1, 41: 1, 52: 3, 8: 12}","[3, 8, 41, 52]",31812411523,Li1Nb1Te3O12
LiLaNb4O12,mp-1222364,1.3413,1.66517893,0.06856953527777421,"{3: 1, 57: 1, 41: 4, 8: 12}","[3, 8, 41, 57]",31812414571,Li1La1Nb4O12
LiNb7O12,mp-772147,0.0,3.40440086,0.034336230666664136,"{3: 1, 41: 7, 8: 12}","[3, 8, 41]",31812417,Li1Nb7O12
LiCd4(TcO3)4,mp-1236065,0.0,5.02219406,0.1820059045238116,"{3: 1, 48: 4, 43: 4, 8: 12}","[3, 8, 43, 48]",31812434484,Li1Cd4Tc4O12
LiAg4(RuO3)4,mp-1235400,0.0,2.58640079,0.08417976833333096,"{3: 1, 47: 4, 44: 4, 8: 12}","[3, 8, 44, 47]",31812444474,Li1Ag4Ru4O12
LiNd4(RhO3)4,mp-1235273,0.0,5.06392826,0.09828055934523938,"{3: 1, 60: 4, 45: 4, 8: 12}","[3, 8, 45, 60]",31812454604,Li1Nd4Rh4O12
LiIn(IO3)4,mp-973966,2.6987,2.41278701,0.0,"{3: 1, 49: 1, 53: 4, 8: 12}","[3, 8, 49, 53]",31812491534,Li1In1I4O12
LiGd6In2O12,mp-1235435,0.0,5.5502239,0.12844616214285942,"{3: 1, 64: 6, 49: 2, 8: 12}","[3, 8, 49, 64]",31812492646,Li1Gd6In2O12
LiMnO,mp-1239060,1.3847,-3.95237631,1.358623217844828,"{3: 1, 25: 1, 8: 1}","[3, 8, 25]",3181251,Li1Mn1O1
LiSbTe2WO12,mp-754339,1.8125,3.31009996,0.0408313103186293,"{3: 1, 51: 1, 52: 2, 74: 1, 8: 12}","[3, 8, 51, 52, 74]",31812511522741,Li1Sb1Te2W1O12
LiSb(TeO4)3,mp-761825,1.3945999999999996,3.07991261,0.0014468440686306039,"{3: 1, 51: 1, 52: 3, 8: 12}","[3, 8, 51, 52]",31812511523,Li1Sb1Te3O12
LiLa4Ho4O12,mp-1235170,0.0,8.05183429,0.1264562899603181,"{3: 1, 57: 4, 67: 4, 8: 12}","[3, 8, 57, 67]",31812574674,Li1La4Ho4O12
LiSm4Tm4O12,mp-1235085,0.3445999999999998,5.6136148,0.14960796543650723,"{3: 1, 62: 4, 69: 4, 8: 12}","[3, 8, 62, 69]",31812624694,Li1Sm4Tm4O12
LiTa4O12,mp-1236149,0.0,-0.40041833,0.13195204419116102,"{3: 1, 73: 4, 8: 12}","[3, 8, 73]",31812734,Li1Ta4O12
Li(ReO3)4,mp-756519,0.0,2.95903077,0.031848564460782214,"{3: 1, 75: 4, 8: 12}","[3, 8, 75]",31812754,Li1Re4O12
LiAcTl2,mp-862549,0.0,5.42761786,0.0,"{3: 1, 89: 1, 81: 2}","[3, 81, 89]",31812891,Li1Ac1Tl2
Sr3LiTa4(O6F)2,mp-756170,0.0,5.37927771,0.03804013238787185,"{38: 3, 3: 1, 73: 4, 8: 12, 9: 2}","[3, 8, 9, 38, 73]",3181292383734,Sr3Li1Ta4O12F2
LiTl3,mp-973191,0.0,4.69558627,0.04103744249999863,"{3: 1, 81: 3}","[3, 81]",31813,Li1Tl3
LiPW4O13,mp-757984,0.44540000000000024,2.27269206,0.06440650256579161,"{3: 1, 15: 1, 74: 4, 8: 13}","[3, 8, 15, 74]",31813151744,Li1P1W4O13
LiTi3P3O13,mp-1012865,0.0,4.22540596,0.06084368065714685,"{3: 1, 22: 3, 15: 3, 8: 13}","[3, 8, 15, 22]",31813153223,Li1Ti3P3O13
LiV3P3O13,mp-1013878,0.0,2.73717162,0.015165515375006322,"{3: 1, 23: 3, 15: 3, 8: 13}","[3, 8, 15, 23]",31813153233,Li1V3P3O13
LiCr2P3O13,mp-779318,0.6845000000000001,0.82171443,0.09799335131577713,"{3: 1, 24: 2, 15: 3, 8: 13}","[3, 8, 15, 24]",31813153242,Li1Cr2P3O13
LiCr3P3O13,mp-1012789,0.0,1.57420265,0.036321123500000496,"{3: 1, 24: 3, 15: 3, 8: 13}","[3, 8, 15, 24]",31813153243,Li1Cr3P3O13
LiMn3P3O13,mp-1013917,0.0,1.4367092,0.02139277008334961,"{3: 1, 25: 3, 15: 3, 8: 13}","[3, 8, 15, 25]",31813153253,Li1Mn3P3O13
LiMn5P3O13,mp-759188,2.0967,3.02014373,0.06700860715907453,"{3: 1, 25: 5, 15: 3, 8: 13}","[3, 8, 15, 25]",31813153255,Li1Mn5P3O13
LiCo3P3O13,mp-1013912,0.0,1.63460691,0.04999982762499844,"{3: 1, 27: 3, 15: 3, 8: 13}","[3, 8, 15, 27]",31813153273,Li1Co3P3O13
LiNi3P3O13,mp-1094143,0.0,1.21549508,0.14128765987500636,"{3: 1, 28: 3, 15: 3, 8: 13}","[3, 8, 15, 28]",31813153283,Li1Ni3P3O13
LiNi5P3O13,mp-861148,2.1798,5.7973782,0.0764025155681951,"{3: 1, 28: 5, 15: 3, 8: 13}","[3, 8, 15, 28]",31813153285,Li1Ni5P3O13
LiMo2P3O13,mp-26193,2.3002000000000002,1.39046039,0.026045299298255387,"{3: 1, 42: 2, 15: 3, 8: 13}","[3, 8, 15, 42]",31813153422,Li1Mo2P3O13
LiMo3P3O13,mp-1013898,0.8797000000000001,2.40306668,0.019016679791665325,"{3: 1, 42: 3, 15: 3, 8: 13}","[3, 8, 15, 42]",31813153423,Li1Mo3P3O13
LiP3W2O13,mp-758410,3.3183,1.2759122,0.047649133508747,"{3: 1, 15: 3, 74: 2, 8: 13}","[3, 8, 15, 74]",31813153742,Li1P3W2O13
LiVP4O13,mp-25948,0.9416,-0.50504273,0.020909404364029882,"{3: 1, 23: 1, 15: 4, 8: 13}","[3, 8, 15, 23]",31813154231,Li1V1P4O13
LiCrP4O13,mp-1101523,0.0,-0.73121724,0.09647442877193324,"{3: 1, 24: 1, 15: 4, 8: 13}","[3, 8, 15, 24]",31813154241,Li1Cr1P4O13
LiNbP4O13,mp-684534,2.229,-0.29869215,0.017450171166663253,"{3: 1, 41: 1, 15: 4, 8: 13}","[3, 8, 15, 41]",31813154411,Li1Nb1P4O13
LiMoP4O13,mp-26401,1.267,0.76135664,0.03851520914035245,"{3: 1, 42: 1, 15: 4, 8: 13}","[3, 8, 15, 42]",31813154421,Li1Mo1P4O13
LiP4WO13,mp-758454,2.3303000000000003,0.68053087,0.003464437938569098,"{3: 1, 15: 4, 74: 1, 8: 13}","[3, 8, 15, 74]",31813154741,Li1P4W1O13
LiTi8O13,mp-755797,0.0,5.93918055,0.05978826068183629,"{3: 1, 22: 8, 8: 13}","[3, 8, 22]",31813228,Li1Ti8O13
LiV6O13,mp-542050,0.6886999999999999,2.70268193,0.0834524267499912,"{3: 1, 23: 6, 8: 13}","[3, 8, 23]",31813236,Li1V6O13
LiNi9O13,mp-1235587,0.0,3.8385055,0.1388639735144821,"{3: 1, 28: 9, 8: 13}","[3, 8, 28]",31813289,Li1Ni9O13
LiBrO,mp-1222502,0.0,-0.20539767,0.5951806763596497,"{3: 1, 35: 1, 8: 1}","[3, 8, 35]",3181351,Li1Br1O1
LiTa2Te4Br10O,mp-1235131,0.30710000000000004,1.01806299,0.024924321939814753,"{3: 1, 73: 2, 52: 4, 35: 10, 8: 1}","[3, 8, 35, 52, 73]",31813510524732,Li1Ta2Te4Br10O1
RbLiO,mp-28545,2.2542999999999997,0.3893683,0.0012700191666663585,"{37: 1, 3: 1, 8: 1}","[3, 8, 37]",3181371,Rb1Li1O1
Na3Li(MoO7)2,mp-1203254,0.31910000000000005,-1.03812543,0.6126303204999983,"{11: 3, 3: 1, 42: 2, 8: 14}","[3, 8, 11, 42]",31814113422,Na3Li1Mo2O14
LiNb2O,mp-1025455,0.0,4.15937055,0.6863501408333343,"{3: 1, 41: 2, 8: 1}","[3, 8, 41]",3181412,Li1Nb2O1
LiSc4(Si2O7)2,mp-1235717,0.04659999999999975,8.85600117,0.20856251564538475,"{3: 1, 21: 4, 14: 4, 8: 14}","[3, 8, 14, 21]",31814144214,Li1Sc4Si4O14
Sr2LiV2(Si2O7)2,mp-1235062,0.6894,4.42656274,0.08464947494565855,"{38: 2, 3: 1, 23: 2, 14: 4, 8: 14}","[3, 8, 14, 23, 38]",31814144232382,Sr2Li1V2Si4O14
LiV(Si3O7)2,mp-774422,1.9559000000000002,2.63903852,0.09275592535984956,"{3: 1, 23: 1, 14: 6, 8: 14}","[3, 8, 14, 23]",31814146231,Li1V1Si6O14
LiSi6BiO14,mp-849779,3.9631,2.33850373,0.03334693060606142,"{3: 1, 14: 6, 83: 1, 8: 14}","[3, 8, 14, 83]",31814146831,Li1Si6Bi1O14
LiVCr(P2O7)2,mp-766002,1.3979000000000001,1.205224,0.006537007857128074,"{3: 1, 23: 1, 24: 1, 15: 4, 8: 14}","[3, 8, 15, 23, 24]",31814154231241,Li1V1Cr1P4O14
LiMnV(P2O7)2,mp-759232,1.3469000000000002,0.96172286,0.0,"{3: 1, 25: 1, 23: 1, 15: 4, 8: 14}","[3, 8, 15, 23, 25]",31814154231251,Li1Mn1V1P4O14
LiMn(P2O7)2,mp-1202232,0.0,-0.71634014,0.140411354624991,"{3: 1, 25: 1, 15: 4, 8: 14}","[3, 8, 15, 25]",31814154251,Li1Mn1P4O14
LiMn2(P2O7)2,mp-1236742,0.3181999999999999,0.76928412,0.06269893785714942,"{3: 1, 25: 2, 15: 4, 8: 14}","[3, 8, 15, 25]",31814154252,Li1Mn2P4O14
LiP4(RuO7)2,mp-1211129,0.030999999999999694,2.99516033,0.01375897710317453,"{3: 1, 15: 4, 44: 2, 8: 14}","[3, 8, 15, 44]",31814154442,Li1P4Ru2O14
LiAu(S2O7)2,mp-1105750,1.9832999999999998,-1.12749101,0.0,"{3: 1, 79: 1, 16: 4, 8: 14}","[3, 8, 16, 79]",31814164791,Li1Au1S4O14
LiLa6Mn3O14,mp-771258,0.2060000000000004,7.40392876,0.11980734439732466,"{3: 1, 57: 6, 25: 3, 8: 14}","[3, 8, 25, 57]",31814253576,Li1La6Mn3O14
LiMn7O14,mp-1176738,0.0,2.46686745,0.043286694397725256,"{3: 1, 25: 7, 8: 14}","[3, 8, 25]",31814257,Li1Mn7O14
LiIn4(Ge2O7)2,mp-1235177,0.0,7.44937766,0.13272516358695796,"{3: 1, 49: 4, 32: 4, 8: 14}","[3, 8, 32, 49]",31814324494,Li1In4Ge4O14
Rb4Li(Se2O7)2,mp-1235126,0.663,-0.67864011,0.060778045579703566,"{37: 4, 3: 1, 34: 4, 8: 14}","[3, 8, 34, 37]",31814344374,Rb4Li1Se4O14
LiEr4Zr4O14,mp-1235758,0.46450000000000014,5.04116647,0.16985433874999778,"{3: 1, 68: 4, 40: 4, 8: 14}","[3, 8, 40, 68]",31814404684,Li1Er4Zr4O14
LiNd4Nb2In2O14,mp-1235949,0.2779999999999996,5.55048907,0.1075016410446814,"{3: 1, 60: 4, 41: 2, 49: 2, 8: 14}","[3, 8, 41, 49, 60]",31814412492604,Li1Nd4Nb2In2O14
LiNb3(Bi2O7)2,mp-559052,2.7406,3.28339066,0.0,"{3: 1, 41: 3, 83: 4, 8: 14}","[3, 8, 41, 83]",31814413834,Li1Nb3Bi4O14
LiNb8O14,mp-772216,0.0,3.83860646,0.03592345351449211,"{3: 1, 41: 8, 8: 14}","[3, 8, 41]",31814418,Li1Nb8O14
LiSm4(Mo2O7)2,mp-1235612,1.5364999999999993,4.06500187,0.01009569885092354,"{3: 1, 62: 4, 42: 4, 8: 14}","[3, 8, 42, 62]",31814424624,Li1Sm4Mo4O14
LiSm3Bi(Ru2O7)2,mp-1236198,0.0,4.87548282,0.05291886170289484,"{3: 1, 62: 3, 83: 1, 44: 4, 8: 14}","[3, 8, 44, 62, 83]",31814444623831,Li1Sm3Bi1Ru4O14
LiEr6Ta2O14,mp-1236590,0.43040000000000056,4.88437012,0.08133266536377626,"{3: 1, 68: 6, 73: 2, 8: 14}","[3, 8, 68, 73]",31814686732,Li1Er6Ta2O14
LiAgO,mp-772290,1.0898999999999999,0.85740807,0.0,"{3: 1, 47: 1, 8: 1}","[3, 8, 47]",3181471,Li1Ag1O1
NaLiMg14O15,mp-1035393,1.7500000000000004,3.61714678,0.09887372967742003,"{11: 1, 3: 1, 12: 14, 8: 15}","[3, 8, 11, 12]",318151111214,Na1Li1Mg14O15
NaLiZr(Si2O5)3,mp-15543,4.928100000000001,0.72346884,0.0,"{11: 1, 3: 1, 40: 1, 14: 6, 8: 15}","[3, 8, 11, 14, 40]",31815111146401,Na1Li1Zr1Si6O15
Na2LiMn(PO3)5,mp-760056,3.6781000000000006,1.62224248,0.0452648841319645,"{11: 2, 3: 1, 25: 1, 15: 5, 8: 15}","[3, 8, 11, 15, 25]",31815112155251,Na2Li1Mn1P5O15
Na4LiNb5O15,mp-1221192,2.8430999999999997,3.95878078,0.02123391979999134,"{11: 4, 3: 1, 41: 5, 8: 15}","[3, 8, 11, 41]",31815114415,Na4Li1Nb5O15
KLiMg14O15,mp-1034028,1.4657,4.02824581,0.17422427447580624,"{19: 1, 3: 1, 12: 14, 8: 15}","[3, 8, 12, 19]",318151214191,K1Li1Mg14O15
RbLiMg14O15,mp-1035479,1.2721,3.41232787,0.19615773616935162,"{37: 1, 3: 1, 12: 14, 8: 15}","[3, 8, 12, 37]",318151214371,Rb1Li1Mg14O15
CsLiMg14O15,mp-1035562,1.1774999999999998,3.58175942,0.21534923387096683,"{55: 1, 3: 1, 12: 14, 8: 15}","[3, 8, 12, 55]",318151214551,Cs1Li1Mg14O15
LiHfMg14O15,mp-1035011,0.0,8.01052486,0.0972575624999994,"{3: 1, 72: 1, 12: 14, 8: 15}","[3, 8, 12, 72]",318151214721,Li1Hf1Mg14O15
LiV(Si2O5)3,mp-775301,2.0867,0.62710877,0.05446953445651914,"{3: 1, 23: 1, 14: 6, 8: 15}","[3, 8, 14, 23]",31815146231,Li1V1Si6O15
LiCr(Si2O5)3,mp-850539,0.7595000000000001,0.67194467,0.09195112221014945,"{3: 1, 24: 1, 14: 6, 8: 15}","[3, 8, 14, 24]",31815146241,Li1Cr1Si6O15
LiCr3P4O15,mp-775294,2.2298,0.98690507,0.05976190782608093,"{3: 1, 24: 3, 15: 4, 8: 15}","[3, 8, 15, 24]",31815154243,Li1Cr3P4O15
LiCo3P4O15,mp-775872,0.6998000000000001,0.63560099,0.07923385833332919,"{3: 1, 27: 3, 15: 4, 8: 15}","[3, 8, 15, 27]",31815154273,Li1Co3P4O15
LiNi3P4O15,mp-27080,0.0,0.39647889,0.11878754630433974,"{3: 1, 28: 3, 15: 4, 8: 15}","[3, 8, 15, 28]",31815154283,Li1Ni3P4O15
LiTi(PO3)5,mp-684119,1.4422,0.49439633,0.03073676666666625,"{3: 1, 22: 1, 15: 5, 8: 15}","[3, 8, 15, 22]",31815155221,Li1Ti1P5O15
LiV(PO3)5,mp-504206,0.8321999999999999,0.38897623,0.02078970632575672,"{3: 1, 23: 1, 15: 5, 8: 15}","[3, 8, 15, 23]",31815155231,Li1V1P5O15
LiV2(PO3)5,mp-756890,2.76,2.85192791,0.0552550274498218,"{3: 1, 23: 2, 15: 5, 8: 15}","[3, 8, 15, 23]",31815155232,Li1V2P5O15
LiCr(PO3)5,mp-705315,0.19090000000000001,-0.15704887,0.04856007774621496,"{3: 1, 24: 1, 15: 5, 8: 15}","[3, 8, 15, 24]",31815155241,Li1Cr1P5O15
LiCr2(PO3)5,mp-25861,3.0159999999999996,2.49116858,0.049214926099043765,"{3: 1, 24: 2, 15: 5, 8: 15}","[3, 8, 15, 24]",31815155242,Li1Cr2P5O15
LiMn(PO3)5,mp-1101538,0.0040000000000000036,-0.17930513,0.03684524744318196,"{3: 1, 25: 1, 15: 5, 8: 15}","[3, 8, 15, 25]",31815155251,Li1Mn1P5O15
LiMn2(PO3)5,mp-31961,4.0046,0.89627417,0.03784927815217198,"{3: 1, 25: 2, 15: 5, 8: 15}","[3, 8, 15, 25]",31815155252,Li1Mn2P5O15
LiCo(PO3)5,mp-705372,0.014900000000000024,-0.55473037,0.04478025041666189,"{3: 1, 27: 1, 15: 5, 8: 15}","[3, 8, 15, 27]",31815155271,Li1Co1P5O15
LiCo2(PO3)5,mp-1101526,3.1948,1.26334972,0.005959960724633895,"{3: 1, 27: 2, 15: 5, 8: 15}","[3, 8, 15, 27]",31815155272,Li1Co2P5O15
LiNi(PO3)5,mp-1101517,0.0,-0.48669287,0.08328010871211866,"{3: 1, 28: 1, 15: 5, 8: 15}","[3, 8, 15, 28]",31815155281,Li1Ni1P5O15
LiNi2(PO3)5,mp-25823,3.5491,0.84062813,0.04557766989131817,"{3: 1, 28: 2, 15: 5, 8: 15}","[3, 8, 15, 28]",31815155282,Li1Ni2P5O15
LiMo(PO3)5,mp-695791,1.6246,0.31546101,0.03718510992421109,"{3: 1, 42: 1, 15: 5, 8: 15}","[3, 8, 15, 42]",31815155421,Li1Mo1P5O15
LiSn2(PO3)5,mp-26949,3.9967999999999995,1.65004158,0.0,"{3: 1, 50: 2, 15: 5, 8: 15}","[3, 8, 15, 50]",31815155502,Li1Sn2P5O15
LiSb(PO3)5,mp-26652,0.0,0.76872024,0.051867013143889196,"{3: 1, 51: 1, 15: 5, 8: 15}","[3, 8, 15, 51]",31815155511,Li1Sb1P5O15
LiP5WO15,mp-772973,2.8415,0.20497724,0.02372640268941595,"{3: 1, 15: 5, 74: 1, 8: 15}","[3, 8, 15, 74]",31815155741,Li1P5W1O15
LiP5Pb2O15,mp-1222447,4.6531,1.01508629,0.0,"{3: 1, 15: 5, 82: 2, 8: 15}","[3, 8, 15, 82]",31815155822,Li1P5Pb2O15
K3LiNb6O15,mp-773049,0.0,3.46403163,0.08571716861537126,"{19: 3, 3: 1, 41: 6, 8: 15}","[3, 8, 19, 41]",31815193416,K3Li1Nb6O15
LiV6O15,mp-776036,0.6382000000000001,1.19755399,0.02494822693183174,"{3: 1, 23: 6, 8: 15}","[3, 8, 23]",31815236,Li1V6O15
LiCr10O15,mp-770681,0.0,5.14959491,0.10862172705128081,"{3: 1, 24: 10, 8: 15}","[3, 8, 24]",318152410,Li1Cr10O15
LiIO,mp-1222278,0.0,1.67538987,1.0146646099999996,"{3: 1, 53: 1, 8: 1}","[3, 8, 53]",3181531,Li1I1O1
LiCd4(GeO3)5,mp-1202839,0.5378000000000001,0.28392106,0.04797091279666876,"{3: 1, 48: 4, 32: 5, 8: 15}","[3, 8, 32, 48]",31815325484,Li1Cd4Ge5O15
CsLiO,mp-1178393,2.3971999999999998,3.84449917,0.05851497833333408,"{55: 1, 3: 1, 8: 1}","[3, 8, 55]",3181551,Cs1Li1O1
LiTa6O15,mp-1222573,1.1576999999999997,2.12343792,0.07957850111514375,"{3: 1, 73: 6, 8: 15}","[3, 8, 73]",31815736,Li1Ta6O15
Li(ReO3)5,mp-686110,0.0,2.77123396,0.028476777301586154,"{3: 1, 75: 5, 8: 15}","[3, 8, 75]",31815755,Li1Re5O15
LiMg14AlO16,mp-1036537,4.285999999999999,4.11905751,0.021739464921875395,"{3: 1, 12: 14, 13: 1, 8: 16}","[3, 8, 12, 13]",318161214131,Li1Mg14Al1O16
LiMg14SiO16,mp-1035536,0.0,8.17733795,0.11596785328124959,"{3: 1, 12: 14, 14: 1, 8: 16}","[3, 8, 12, 14]",318161214141,Li1Mg14Si1O16
LiMg14TiO16,mp-1034182,0.0,7.38170379,0.02646991640625007,"{3: 1, 12: 14, 22: 1, 8: 16}","[3, 8, 12, 22]",318161214221,Li1Mg14Ti1O16
LiMg14CrO16,mp-1035402,2.0146999999999995,4.07856532,0.016467809062491234,"{3: 1, 12: 14, 24: 1, 8: 16}","[3, 8, 12, 24]",318161214241,Li1Mg14Cr1O16
LiMg14MnO16,mp-1036220,0.7531999999999996,4.77220791,0.00927972203125016,"{3: 1, 12: 14, 25: 1, 8: 16}","[3, 8, 12, 25]",318161214251,Li1Mg14Mn1O16
LiMg14CoO16,mp-1035145,0.5909,4.00068404,0.03592055718749965,"{3: 1, 12: 14, 27: 1, 8: 16}","[3, 8, 12, 27]",318161214271,Li1Mg14Co1O16
LiMg14GaO16,mp-1035108,3.7045000000000003,3.95670307,0.018466592109374957,"{3: 1, 12: 14, 31: 1, 8: 16}","[3, 8, 12, 31]",318161214311,Li1Mg14Ga1O16
LiMg14SbO16,mp-1035164,1.4560000000000004,6.99012008,0.08350333093750084,"{3: 1, 12: 14, 51: 1, 8: 16}","[3, 8, 12, 51]",318161214511,Li1Mg14Sb1O16
LiLaMg14O16,mp-1035532,3.3859000000000004,4.38994955,0.10129594316406365,"{3: 1, 57: 1, 12: 14, 8: 16}","[3, 8, 12, 57]",318161214571,Li1La1Mg14O16
LiCeMg14O16,mp-1035550,0.0,8.41595471,0.09119317369140756,"{3: 1, 58: 1, 12: 14, 8: 16}","[3, 8, 12, 58]",318161214581,Li1Ce1Mg14O16
LiMg14WO16,mp-1035613,2.3137,5.48270611,0.051561178437499855,"{3: 1, 12: 14, 74: 1, 8: 16}","[3, 8, 12, 74]",318161214741,Li1Mg14W1O16
LiMg14BiO16,mp-1035156,2.1323999999999987,6.05527677,0.08054544789062579,"{3: 1, 12: 14, 83: 1, 8: 16}","[3, 8, 12, 83]",318161214831,Li1Mg14Bi1O16
LiMo3P3O16,mp-17314,1.6482999999999999,1.53079175,0.02224232649458102,"{3: 1, 42: 3, 15: 3, 8: 16}","[3, 8, 15, 42]",31816153423,Li1Mo3P3O16
LiMn3(PO4)4,mp-758525,0.0,1.27355688,0.06188924104167892,"{3: 1, 25: 3, 15: 4, 8: 16}","[3, 8, 15, 25]",31816154253,Li1Mn3P4O16
LiAs4(PO4)4,mp-1236232,0.05239999999999956,4.24054271,0.13425998259999794,"{3: 1, 33: 4, 15: 4, 8: 16}","[3, 8, 15, 33]",31816154334,Li1As4P4O16
LiV2P5O16,mp-25812,2.0618,1.47779982,0.0,"{3: 1, 23: 2, 15: 5, 8: 16}","[3, 8, 15, 23]",31816155232,Li1V2P5O16
LiCr2P5O16,mp-26133,2.9926,0.98494015,0.013583063749999624,"{3: 1, 24: 2, 15: 5, 8: 16}","[3, 8, 15, 24]",31816155242,Li1Cr2P5O16
LiMn2P5O16,mp-26188,1.2244,0.78801016,0.0030875844791786733,"{3: 1, 25: 2, 15: 5, 8: 16}","[3, 8, 15, 25]",31816155252,Li1Mn2P5O16
LiCo2P5O16,mp-26204,1.1541,0.20655899,0.01995633453125656,"{3: 1, 27: 2, 15: 5, 8: 16}","[3, 8, 15, 27]",31816155272,Li1Co2P5O16
LiNi2P5O16,mp-26192,0.38560000000000005,0.87248862,0.06997503916666936,"{3: 1, 28: 2, 15: 5, 8: 16}","[3, 8, 15, 28]",31816155282,Li1Ni2P5O16
LiSn2P5O16,mp-673029,0.0,2.70040936,0.08696727571178364,"{3: 1, 50: 2, 15: 5, 8: 16}","[3, 8, 15, 50]",31816155502,Li1Sn2P5O16
LiSb2P5O16,mp-684104,3.2950999999999997,1.19920066,0.047426788958328636,"{3: 1, 51: 2, 15: 5, 8: 16}","[3, 8, 15, 51]",31816155512,Li1Sb2P5O16
Rb4Li(SO4)4,mp-738389,0.0,-1.42422461,0.04807215635000084,"{37: 4, 3: 1, 16: 4, 8: 16}","[3, 8, 16, 37]",31816164374,Rb4Li1S4O16
K11LiMn4O16,mp-560465,1.2347000000000001,0.50563106,0.0,"{19: 11, 3: 1, 25: 4, 8: 16}","[3, 8, 19, 25]",318161911254,K11Li1Mn4O16
KLiNd2(MoO4)4,mp-581225,3.2028,0.76136436,0.0,"{19: 1, 3: 1, 60: 2, 42: 4, 8: 16}","[3, 8, 19, 42, 60]",31816191424602,K1Li1Nd2Mo4O16
KLiSm2(MoO4)4,mp-1211510,3.3372999999999995,0.78355116,0.008683669479175649,"{19: 1, 3: 1, 62: 2, 42: 4, 8: 16}","[3, 8, 19, 42, 62]",31816191424622,K1Li1Sm2Mo4O16
KLiGd2(MoO4)4,mp-1211850,2.9099,0.80533384,0.016958213020810575,"{19: 1, 3: 1, 64: 2, 42: 4, 8: 16}","[3, 8, 19, 42, 64]",31816191424642,K1Li1Gd2Mo4O16
KLiTb2(MoO4)4,mp-1211713,3.3146000000000004,0.97184814,0.01720955421874315,"{19: 1, 3: 1, 65: 2, 42: 4, 8: 16}","[3, 8, 19, 42, 65]",31816191424652,K1Li1Tb2Mo4O16
KLiDy2(MoO4)4,mp-1211571,3.2809,0.99247088,0.01789015177084252,"{19: 1, 3: 1, 66: 2, 42: 4, 8: 16}","[3, 8, 19, 42, 66]",31816191424662,K1Li1Dy2Mo4O16
KLiHo2(MoO4)4,mp-1211688,3.2260000000000004,0.98061699,0.018801412708322474,"{19: 1, 3: 1, 67: 2, 42: 4, 8: 16}","[3, 8, 19, 42, 67]",31816191424672,K1Li1Ho2Mo4O16
KLiEr2(MoO4)4,mp-1211563,3.2596,1.04420012,0.014006997326383441,"{19: 1, 3: 1, 68: 2, 42: 4, 8: 16}","[3, 8, 19, 42, 68]",31816191424682,K1Li1Er2Mo4O16
KLiTm2(MoO4)4,mp-1211810,3.2004,1.03470657,0.014392430052076577,"{19: 1, 3: 1, 69: 2, 42: 4, 8: 16}","[3, 8, 19, 42, 69]",31816191424692,K1Li1Tm2Mo4O16
KLiLu2(MoO4)4,mp-1211661,3.1597000000000004,1.09081873,0.04684024885414573,"{19: 1, 3: 1, 71: 2, 42: 4, 8: 16}","[3, 8, 19, 42, 71]",31816191424712,K1Li1Lu2Mo4O16
K3LiTi7O16,mp-755707,2.8255999999999997,1.04097437,0.0032546823611241393,"{19: 3, 3: 1, 22: 7, 8: 16}","[3, 8, 19, 22]",31816193227,K3Li1Ti7O16
LiTi3V5O16,mp-1235238,0.8916999999999997,2.94857154,0.0853313701999987,"{3: 1, 22: 3, 23: 5, 8: 16}","[3, 8, 22, 23]",31816223235,Li1Ti3V5O16
LiTi8O16,mp-1235333,0.0,5.21840943,0.0407213024000086,"{3: 1, 22: 8, 8: 16}","[3, 8, 22]",31816228,Li1Ti8O16
LiV4(GeO4)4,mp-1235198,0.5766999999999998,4.25216227,0.19665038269999613,"{3: 1, 23: 4, 32: 4, 8: 16}","[3, 8, 23, 32]",31816234324,Li1V4Ge4O16