formula,material_id,band_gap,efermi,energy_above_hull,comp_atoms,sorted_keys_comp_atoms,comp_number,new_formula
Li4V3SiO10,mp-761711,1.4529,0.8427588,0.07552512187499527,"{3: 4, 23: 3, 14: 1, 8: 10}","[3, 8, 14, 23]",34810141233,Li4V3Si1O10
Li4SiGe3O10,mp-1222533,3.5858999999999996,-0.66720924,0.054396703611110375,"{3: 4, 14: 1, 32: 3, 8: 10}","[3, 8, 14, 32]",34810141323,Li4Si1Ge3O10
Li4V2Si3O10,mp-766379,1.8135000000000003,3.90358745,0.060104898815787955,"{3: 4, 23: 2, 14: 3, 8: 10}","[3, 8, 14, 23]",34810143232,Li4V2Si3O10
Li4Cr2Si3O10,mp-758615,2.3486,3.38504861,0.0262924000877236,"{3: 4, 24: 2, 14: 3, 8: 10}","[3, 8, 14, 24]",34810143242,Li4Cr2Si3O10
Li4Mn2Si3O10,mp-757670,3.0154000000000005,2.38804175,0.015076769824560188,"{3: 4, 25: 2, 14: 3, 8: 10}","[3, 8, 14, 25]",34810143252,Li4Mn2Si3O10
Li4Co2Si3O10,mp-757921,2.6211,2.28564105,0.03855748219298327,"{3: 4, 27: 2, 14: 3, 8: 10}","[3, 8, 14, 27]",34810143272,Li4Co2Si3O10
Li4Si3(NiO5)2,mp-765979,3.2594999999999996,2.02006498,0.03538963631578973,"{3: 4, 14: 3, 28: 2, 8: 10}","[3, 8, 14, 28]",34810143282,Li4Si3Ni2O10
Li4TiV3O10,mp-754484,1.2386999999999997,2.51247344,0.05016840972221903,"{3: 4, 22: 1, 23: 3, 8: 10}","[3, 8, 22, 23]",34810221233,Li4Ti1V3O10
Li4Ti2V3O10,mp-758896,0.6295999999999999,4.42809343,0.05004935026315849,"{3: 4, 22: 2, 23: 3, 8: 10}","[3, 8, 22, 23]",34810222233,Li4Ti2V3O10
Li4Ti2Mn3O10,mp-752796,0.4941,3.3340132,0.04162589263157379,"{3: 4, 22: 2, 25: 3, 8: 10}","[3, 8, 22, 25]",34810222253,Li4Ti2Mn3O10
Li4Ti2Co3O10,mp-775264,0.4457,4.00004097,0.055283570065773446,"{3: 4, 22: 2, 27: 3, 8: 10}","[3, 8, 22, 27]",34810222273,Li4Ti2Co3O10
Li4Ti2Ni3O10,mp-758922,0.0,3.13935086,0.05152908360323405,"{3: 4, 22: 2, 28: 3, 8: 10}","[3, 8, 22, 28]",34810222283,Li4Ti2Ni3O10
Li4V3Cr2O10,mp-780727,0.6863999999999995,4.19292164,0.07644302203947806,"{3: 4, 23: 3, 24: 2, 8: 10}","[3, 8, 23, 24]",34810233242,Li4V3Cr2O10
Li4V3CoO10,mp-759134,0.0,2.11682925,0.11487979707264451,"{3: 4, 23: 3, 27: 1, 8: 10}","[3, 8, 23, 27]",34810233271,Li4V3Co1O10
Li4V5O10,mp-762292,0.9066000000000001,4.60723256,0.04883841151315771,"{3: 4, 23: 5, 8: 10}","[3, 8, 23]",34810235,Li4V5O10
Li4Mn3Cr2O10,mp-754963,0.3176000000000001,3.1019468,0.17296821517543748,"{3: 4, 25: 3, 24: 2, 8: 10}","[3, 8, 24, 25]",34810242253,Li4Mn3Cr2O10
Li4Cr5O10,mp-753172,0.0,2.58613977,0.03496833748537398,"{3: 4, 24: 5, 8: 10}","[3, 8, 24]",34810245,Li4Cr5O10
Li4Mn(Ni2O5)2,mp-758663,0.0,3.24550652,0.033785258267543306,"{3: 4, 25: 1, 28: 4, 8: 10}","[3, 8, 25, 28]",34810251284,Li4Mn1Ni4O10
Li4Mn2Co3O10,mp-778482,0.0,3.27033127,0.04786301305264651,"{3: 4, 25: 2, 27: 3, 8: 10}","[3, 8, 25, 27]",34810252273,Li4Mn2Co3O10
Li4Mn2Ni3O10,mp-758690,0.0,2.69910625,0.05957456628289748,"{3: 4, 25: 2, 28: 3, 8: 10}","[3, 8, 25, 28]",34810252283,Li4Mn2Ni3O10
Li4Mn3(SnO5)2,mp-758340,0.24929999999999986,4.28314326,0.060392838684199646,"{3: 4, 25: 3, 50: 2, 8: 10}","[3, 8, 25, 50]",34810253502,Li4Mn3Sn2O10
Li4Mn5O10,mp-757628,0.48229999999999995,2.9965732,0.05739242052630278,"{3: 4, 25: 5, 8: 10}","[3, 8, 25]",34810255,Li4Mn5O10
Li4Co2Ni3O10,mp-779900,0.0,2.81208274,0.055496002993423055,"{3: 4, 27: 2, 28: 3, 8: 10}","[3, 8, 27, 28]",34810272283,Li4Co2Ni3O10
Li4Ni3(SnO5)2,mp-758187,0.009200000000000319,3.69610551,0.045599509298249075,"{3: 4, 28: 3, 50: 2, 8: 10}","[3, 8, 28, 50]",34810283502,Li4Ni3Sn2O10
Li4(NiO2)5,mp-763578,0.0,3.2880687,0.012038484671058391,"{3: 4, 28: 5, 8: 10}","[3, 8, 28]",34810285,Li4Ni5O10
Li4Ni7O11,mp-768091,0.0,4.10510707,0.00653865083333649,"{3: 4, 28: 7, 8: 11}","[3, 8, 28]",34811287,Li4Ni7O11
Li4Al3Si3ClO12,mp-23648,5.2612000000000005,0.14147726,0.0,"{3: 4, 13: 3, 14: 3, 17: 1, 8: 12}","[3, 8, 13, 14, 17]",34812133143171,Li4Al3Si3Cl1O12
Li4Al3Ge3ClO12,mp-556886,4.1175,-0.56530302,0.00043448347826480216,"{3: 4, 13: 3, 32: 3, 17: 1, 8: 12}","[3, 8, 13, 17, 32]",34812133171323,Li4Al3Ge3Cl1O12
Li4Al3Ge3BrO12,mp-554733,3.6335,-0.15682875,0.0,"{3: 4, 13: 3, 32: 3, 35: 1, 8: 12}","[3, 8, 13, 32, 35]",34812133323351,Li4Al3Ge3Br1O12
Li4Al3Ge3IO12,mp-557456,3.1208,0.70008997,0.0,"{3: 4, 13: 3, 32: 3, 53: 1, 8: 12}","[3, 8, 13, 32, 53]",34812133323531,Li4Al3Ge3I1O12
Li4V2Si(PO6)2,mp-1255288,2.1223999999999994,2.35299846,0.07170003099205502,"{3: 4, 23: 2, 14: 1, 15: 2, 8: 12}","[3, 8, 14, 15, 23]",34812141152232,Li4V2Si1P2O12
Li4Ga3Si3ClO12,mp-554203,4.4117999999999995,-0.35980021,0.0,"{3: 4, 31: 3, 14: 3, 17: 1, 8: 12}","[3, 8, 14, 17, 31]",34812143171313,Li4Ga3Si3Cl1O12
Li4V2(SiO4)3,mp-770256,1.3085,2.12760613,0.09074037698411974,"{3: 4, 23: 2, 14: 3, 8: 12}","[3, 8, 14, 23]",34812143232,Li4V2Si3O12
Li4Ga3Si3BrO12,mp-556649,3.9512,0.00622779,0.0,"{3: 4, 31: 3, 14: 3, 35: 1, 8: 12}","[3, 8, 14, 31, 35]",34812143313351,Li4Ga3Si3Br1O12
Li4Ga3Si3IO12,mp-557112,3.4396999999999993,0.78345148,0.0,"{3: 4, 31: 3, 14: 3, 53: 1, 8: 12}","[3, 8, 14, 31, 53]",34812143313531,Li4Ga3Si3I1O12
Li4MnV(PO4)3,mp-768584,2.0378,1.61586275,0.025754849285717363,"{3: 4, 25: 1, 23: 1, 15: 3, 8: 12}","[3, 8, 15, 23, 25]",34812153231251,Li4Mn1V1P3O12
Li4V2(PO4)3,mp-777185,0.5211999999999999,3.37115869,0.0206919157142762,"{3: 4, 23: 2, 15: 3, 8: 12}","[3, 8, 15, 23]",34812153232,Li4V2P3O12
Li4Cr(PO4)3,mp-764927,1.3127000000000002,1.36816269,0.09132855604166679,"{3: 4, 24: 1, 15: 3, 8: 12}","[3, 8, 15, 24]",34812153241,Li4Cr1P3O12
Li4Cr2(PO4)3,mp-772960,1.3157,2.91372741,0.030834217738108016,"{3: 4, 24: 2, 15: 3, 8: 12}","[3, 8, 15, 24]",34812153242,Li4Cr2P3O12
Li4Mn2(PO4)3,mp-772945,4.1215,1.89597259,0.0272375467857211,"{3: 4, 25: 2, 15: 3, 8: 12}","[3, 8, 15, 25]",34812153252,Li4Mn2P3O12
Li4Co2(PO4)3,mp-780762,0.0040000000000000036,1.45070966,0.051903834345234046,"{3: 4, 27: 2, 15: 3, 8: 12}","[3, 8, 15, 27]",34812153272,Li4Co2P3O12
Li4Ni2(PO4)3,mp-772620,0.0,1.15228155,0.05274843619047331,"{3: 4, 28: 2, 15: 3, 8: 12}","[3, 8, 15, 28]",34812153282,Li4Ni2P3O12
Li4TiV5O12,mp-776628,0.0,3.14251209,0.11200392704545692,"{3: 4, 22: 1, 23: 5, 8: 12}","[3, 8, 22, 23]",34812221235,Li4Ti1V5O12
Li4TiCr5O12,mp-759597,0.12849999999999984,2.10155305,0.06587163688131525,"{3: 4, 22: 1, 24: 5, 8: 12}","[3, 8, 22, 24]",34812221245,Li4Ti1Cr5O12
Li4TiMn(WO6)2,mp-755149,1.1055000000000001,1.81861693,0.034728406499995756,"{3: 4, 22: 1, 25: 1, 74: 2, 8: 12}","[3, 8, 22, 25, 74]",34812221251742,Li4Ti1Mn1W2O12
Li4TiMn5O12,mp-754620,0.0,2.51140316,0.09408561431819074,"{3: 4, 22: 1, 25: 5, 8: 12}","[3, 8, 22, 25]",34812221255,Li4Ti1Mn5O12
Li4TiCo5O12,mp-1645230,1.2388000000000001,1.88327287,0.03536601642045234,"{3: 4, 22: 1, 27: 5, 8: 12}","[3, 8, 22, 27]",34812221275,Li4Ti1Co5O12
Li4Ti(TeO4)3,mp-850190,1.2599,4.03722259,0.029881727374998945,"{3: 4, 22: 1, 52: 3, 8: 12}","[3, 8, 22, 52]",34812221523,Li4Ti1Te3O12
Li4Ti2V5O12,mp-759236,0.26900000000000013,5.1115333,0.06734054076087403,"{3: 4, 22: 2, 23: 5, 8: 12}","[3, 8, 22, 23]",34812222235,Li4Ti2V5O12
Li4Ti2Mn5O12,mp-759589,0.41159999999999997,3.25162682,0.07568820630434736,"{3: 4, 22: 2, 25: 5, 8: 12}","[3, 8, 22, 25]",34812222255,Li4Ti2Mn5O12
Li4Ti2Ni5O12,mp-759757,0.2096,3.58431005,0.05627154362875508,"{3: 4, 22: 2, 28: 5, 8: 12}","[3, 8, 22, 28]",34812222285,Li4Ti2Ni5O12
Li4Ti3V3O12,mp-753117,0.0,4.74586508,0.06574185187500525,"{3: 4, 22: 3, 23: 3, 8: 12}","[3, 8, 22, 23]",34812223233,Li4Ti3V3O12
Li4Ti3(CoO4)3,mp-1642451,0.9952000000000001,2.14431559,0.10489731704545857,"{3: 4, 22: 3, 27: 3, 8: 12}","[3, 8, 22, 27]",34812223273,Li4Ti3Co3O12
Li4Ti3(NiO4)3,mp-752963,0.025700000000000056,2.8492833,0.07363777538029659,"{3: 4, 22: 3, 28: 3, 8: 12}","[3, 8, 22, 28]",34812223283,Li4Ti3Ni3O12
Li4Ti5O12,mp-685194,2.5198,1.38378332,0.0043052279761912615,"{3: 4, 22: 5, 8: 12}","[3, 8, 22]",34812225,Li4Ti5O12
Li4Ti5VO12,mp-760000,0.0,4.70823969,0.08250746547348342,"{3: 4, 22: 5, 23: 1, 8: 12}","[3, 8, 22, 23]",34812225231,Li4Ti5V1O12
Li4VCr(TeO6)2,mp-754916,0.44569999999999954,4.48491496,0.06815306918749808,"{3: 4, 23: 1, 24: 1, 52: 2, 8: 12}","[3, 8, 23, 24, 52]",34812231241522,Li4V1Cr1Te2O12
Li4VCr(WO6)2,mp-757863,1.1479,3.5864,0.05160409743747607,"{3: 4, 23: 1, 24: 1, 74: 2, 8: 12}","[3, 8, 23, 24, 74]",34812231241742,Li4V1Cr1W2O12
Li4MnV(WO6)2,mp-752544,0.5014999999999996,2.90942893,0.051591811596147785,"{3: 4, 25: 1, 23: 1, 74: 2, 8: 12}","[3, 8, 23, 25, 74]",34812231251742,Li4Mn1V1W2O12
Li4VTe(WO6)2,mp-775927,1.658,3.13288968,0.05929986199999959,"{3: 4, 23: 1, 52: 1, 74: 2, 8: 12}","[3, 8, 23, 52, 74]",34812231521742,Li4V1Te1W2O12
Li4V(TeO4)3,mp-1566890,1.4009,3.92137186,0.03169705774998821,"{3: 4, 23: 1, 52: 3, 8: 12}","[3, 8, 23, 52]",34812231523,Li4V1Te3O12
Li4V2CrTeO12,mp-774827,0.4586999999999999,2.92519458,0.10420568511111394,"{3: 4, 23: 2, 24: 1, 52: 1, 8: 12}","[3, 8, 23, 24, 52]",34812232241521,Li4V2Cr1Te1O12
Li4MnV2WO12,mp-755727,1.1428000000000003,1.9808506,0.0912432513625081,"{3: 4, 25: 1, 23: 2, 74: 1, 8: 12}","[3, 8, 23, 25, 74]",34812232251741,Li4Mn1V2W1O12
Li4V3Cr3O12,mp-849340,0.9132000000000002,2.81192076,0.054813729602271266,"{3: 4, 23: 3, 24: 3, 8: 12}","[3, 8, 23, 24]",34812233243,Li4V3Cr3O12
Li4MnV3O12,mp-756559,0.0,1.35014891,0.09312964786250344,"{3: 4, 25: 1, 23: 3, 8: 12}","[3, 8, 23, 25]",34812233251,Li4Mn1V3O12
Li4Mn2V3O12,mp-760844,0.7118,0.88397936,0.033113832782706076,"{3: 4, 25: 2, 23: 3, 8: 12}","[3, 8, 23, 25]",34812233252,Li4Mn2V3O12
Li4V5O12,mp-851075,0.7449999999999997,2.2188851,0.08743771630952768,"{3: 4, 23: 5, 8: 12}","[3, 8, 23]",34812235,Li4V5O12
Li4V5Cr2O12,mp-780707,0.6855000000000002,4.47808545,0.06090401920289956,"{3: 4, 23: 5, 24: 2, 8: 12}","[3, 8, 23, 24]",34812235242,Li4V5Cr2O12
Li4Mn2V5O12,mp-759274,1.0038,3.58362147,0.07109694994563753,"{3: 4, 25: 2, 23: 5, 8: 12}","[3, 8, 23, 25]",34812235252,Li4Mn2V5O12
Li4V5SnO12,mp-777449,0.0,3.4291265,0.11496665312499132,"{3: 4, 23: 5, 50: 1, 8: 12}","[3, 8, 23, 50]",34812235501,Li4V5Sn1O12
Li4V7O12,mp-758538,0.6775000000000002,4.55031955,0.0391548468115932,"{3: 4, 23: 7, 8: 12}","[3, 8, 23]",34812237,Li4V7O12
Li4MnCr(WO6)2,mp-752745,0.6985999999999999,1.95009143,0.09608444212499823,"{3: 4, 25: 1, 24: 1, 74: 2, 8: 12}","[3, 8, 24, 25, 74]",34812241251742,Li4Mn1Cr1W2O12
Li4CrCo5O12,mp-771079,0.14769999999999994,2.7791067,0.06606882366162381,"{3: 4, 24: 1, 27: 5, 8: 12}","[3, 8, 24, 27]",34812241275,Li4Cr1Co5O12
Li4NbCr(TeO6)2,mp-1177314,1.2101000000000002,3.7458867,0.03733182468750229,"{3: 4, 41: 1, 24: 1, 52: 2, 8: 12}","[3, 8, 24, 41, 52]",34812241411522,Li4Nb1Cr1Te2O12
Li4NbCr(WO6)2,mp-755680,1.8451,2.29108198,0.022651293374998716,"{3: 4, 41: 1, 24: 1, 74: 2, 8: 12}","[3, 8, 24, 41, 74]",34812241411742,Li4Nb1Cr1W2O12
Li4CrSb(TeO6)2,mp-781050,1.2358000000000002,4.41052591,0.04758692306249657,"{3: 4, 24: 1, 51: 1, 52: 2, 8: 12}","[3, 8, 24, 51, 52]",34812241511522,Li4Cr1Sb1Te2O12
Li4CrSb(WO6)2,mp-752957,1.3455,4.56477175,0.038000702875006453,"{3: 4, 24: 1, 51: 1, 74: 2, 8: 12}","[3, 8, 24, 51, 74]",34812241511742,Li4Cr1Sb1W2O12
Li4CrTe(WO6)2,mp-1643248,1.0823,3.28846448,0.05890459025000094,"{3: 4, 24: 1, 52: 1, 74: 2, 8: 12}","[3, 8, 24, 52, 74]",34812241521742,Li4Cr1Te1W2O12
Li4CrTe2WO12,mp-774655,0.0,4.68090661,0.10868121087500704,"{3: 4, 24: 1, 52: 2, 74: 1, 8: 12}","[3, 8, 24, 52, 74]",34812241522741,Li4Cr1Te2W1O12
Li4CrBi(TeO6)2,mp-775998,0.48770000000000024,3.90487645,0.07612638413889172,"{3: 4, 24: 1, 83: 1, 52: 2, 8: 12}","[3, 8, 24, 52, 83]",34812241522831,Li4Cr1Bi1Te2O12
Li4Cr(TeO4)3,mp-1177448,0.0,4.5127435,0.042551372250004604,"{3: 4, 24: 1, 52: 3, 8: 12}","[3, 8, 24, 52]",34812241523,Li4Cr1Te3O12
Li4Cr(WO4)3,mp-778824,1.3714000000000004,2.6117577,0.03293257850000053,"{3: 4, 24: 1, 74: 3, 8: 12}","[3, 8, 24, 74]",34812241743,Li4Cr1W3O12
Li4Mn5Cr2O12,mp-850972,0.25500000000000034,3.32321757,0.12967268297102041,"{3: 4, 25: 5, 24: 2, 8: 12}","[3, 8, 24, 25]",34812242255,Li4Mn5Cr2O12
Li4Cr2Ni5O12,mp-780469,0.0,3.47457088,0.0991278180072479,"{3: 4, 24: 2, 28: 5, 8: 12}","[3, 8, 24, 28]",34812242285,Li4Cr2Ni5O12
Li4Cr2TeWO12,mp-774764,0.6551,2.79116177,0.08040968934721882,"{3: 4, 24: 2, 52: 1, 74: 1, 8: 12}","[3, 8, 24, 52, 74]",34812242521741,Li4Cr2Te1W1O12
Li4Mn3Cr3O12,mp-780881,0.0,2.275499,0.0,"{3: 4, 25: 3, 24: 3, 8: 12}","[3, 8, 24, 25]",34812243253,Li4Mn3Cr3O12
Li4Cr3(CoO4)3,mp-753039,0.4697,2.22282594,0.0458099812121171,"{3: 4, 24: 3, 27: 3, 8: 12}","[3, 8, 24, 27]",34812243273,Li4Cr3Co3O12
Li4MnCr5O12,mp-754440,0.07279999999999998,2.14981346,0.13786700816498687,"{3: 4, 25: 1, 24: 5, 8: 12}","[3, 8, 24, 25]",34812245251,Li4Mn1Cr5O12
Li4NbCr5O12,mp-756524,0.6928999999999998,2.5657219,0.07462942772727388,"{3: 4, 41: 1, 24: 5, 8: 12}","[3, 8, 24, 41]",34812245411,Li4Nb1Cr5O12
Li4Cr5SbO12,mp-775869,1.4181,3.10269521,0.07007403977273086,"{3: 4, 24: 5, 51: 1, 8: 12}","[3, 8, 24, 51]",34812245511,Li4Cr5Sb1O12
Li4Cr5WO12,mp-756151,1.1633999999999998,2.47925788,0.07459762545454929,"{3: 4, 24: 5, 74: 1, 8: 12}","[3, 8, 24, 74]",34812245741,Li4Cr5W1O12
Li4Cr5BiO12,mp-756777,0.0,2.75306005,0.09772586112373016,"{3: 4, 24: 5, 83: 1, 8: 12}","[3, 8, 24, 83]",34812245831,Li4Cr5Bi1O12
Li4MnCo5O12,mp-1177382,0.0,1.76463553,0.0,"{3: 4, 25: 1, 27: 5, 8: 12}","[3, 8, 25, 27]",34812251275,Li4Mn1Co5O12
Li4MnNi5O12,mp-779228,0.0,3.01564555,0.06181753511363386,"{3: 4, 25: 1, 28: 5, 8: 12}","[3, 8, 25, 28]",34812251285,Li4Mn1Ni5O12
Li4MnNb(WO6)2,mp-756577,0.0,2.65402195,0.028506432187494823,"{3: 4, 25: 1, 41: 1, 74: 2, 8: 12}","[3, 8, 25, 41, 74]",34812251411742,Li4Mn1Nb1W2O12
Li4MnNb2WO12,mp-757199,0.9842,2.80870881,0.0469730731249971,"{3: 4, 25: 1, 41: 2, 74: 1, 8: 12}","[3, 8, 25, 41, 74]",34812251412741,Li4Mn1Nb2W1O12
Li4MnSn(WO6)2,mp-775961,1.0090000000000003,2.26090236,0.05276661762500634,"{3: 4, 25: 1, 50: 1, 74: 2, 8: 12}","[3, 8, 25, 50, 74]",34812251501742,Li4Mn1Sn1W2O12
Li4MnSb(WO6)2,mp-755688,0.27649999999999997,3.36987162,0.042099068908648896,"{3: 4, 25: 1, 51: 1, 74: 2, 8: 12}","[3, 8, 25, 51, 74]",34812251511742,Li4Mn1Sb1W2O12
Li4MnSb2WO12,mp-752920,0.7429999999999999,4.2339528,0.06957105062500446,"{3: 4, 25: 1, 51: 2, 74: 1, 8: 12}","[3, 8, 25, 51, 74]",34812251512741,Li4Mn1Sb2W1O12
Li4Mn(TeO4)3,mp-777779,0.0,4.14384021,0.04510487125000573,"{3: 4, 25: 1, 52: 3, 8: 12}","[3, 8, 25, 52]",34812251523,Li4Mn1Te3O12
Li4Mn(WO4)3,mp-755247,1.6778000000000004,2.22654087,0.048655441000001076,"{3: 4, 25: 1, 74: 3, 8: 12}","[3, 8, 25, 74]",34812251743,Li4Mn1W3O12
Li4Mn2Co5O12,mp-774397,0.4716,3.02209874,0.07767763630435098,"{3: 4, 25: 2, 27: 5, 8: 12}","[3, 8, 25, 27]",34812252275,Li4Mn2Co5O12
Li4Mn2Ni5O12,mp-758487,0.0,3.38707492,0.04279323366847976,"{3: 4, 25: 2, 28: 5, 8: 12}","[3, 8, 25, 28]",34812252285,Li4Mn2Ni5O12
Li4Mn2TeWO12,mp-753980,1.1174999999999997,2.44445886,0.05898361412499842,"{3: 4, 25: 2, 52: 1, 74: 1, 8: 12}","[3, 8, 25, 52, 74]",34812252521741,Li4Mn2Te1W1O12
Li4Mn3(CoO4)3,mp-1642421,0.9449999999999998,2.06078815,0.08742807840908817,"{3: 4, 25: 3, 27: 3, 8: 12}","[3, 8, 25, 27]",34812253273,Li4Mn3Co3O12
Li4Mn3(NiO4)3,mp-753186,0.1532,2.63850359,0.03412672795454785,"{3: 4, 25: 3, 28: 3, 8: 12}","[3, 8, 25, 28]",34812253283,Li4Mn3Ni3O12
Li4Mn3TeO12,mp-756939,0.0,2.00531493,0.07291425510416882,"{3: 4, 25: 3, 52: 1, 8: 12}","[3, 8, 25, 52]",34812253521,Li4Mn3Te1O12
Li4Mn5O12,mp-691115,0.7752000000000001,1.90575698,0.0,"{3: 4, 25: 5, 8: 12}","[3, 8, 25]",34812255,Li4Mn5O12
Li4Mn5CoO12,mp-771545,0.2584000000000004,2.26387735,0.08592824939394017,"{3: 4, 25: 5, 27: 1, 8: 12}","[3, 8, 25, 27]",34812255271,Li4Mn5Co1O12
Li4Mn5NiO12,mp-753964,0.01540000000000008,2.65418595,0.0911750331818153,"{3: 4, 25: 5, 28: 1, 8: 12}","[3, 8, 25, 28]",34812255281,Li4Mn5Ni1O12
Li4Mn5(NiO6)2,mp-758838,0.31689999999999996,3.21888782,0.041865209347834664,"{3: 4, 25: 5, 28: 2, 8: 12}","[3, 8, 25, 28]",34812255282,Li4Mn5Ni2O12
Li4Mn5NbO12,mp-756259,0.0,2.16243667,0.08816740406250378,"{3: 4, 25: 5, 41: 1, 8: 12}","[3, 8, 25, 41]",34812255411,Li4Mn5Nb1O12
Li4Mn5SnO12,mp-756595,0.0013000000000000789,2.62548893,0.08917081454544462,"{3: 4, 25: 5, 50: 1, 8: 12}","[3, 8, 25, 50]",34812255501,Li4Mn5Sn1O12
Li4Mn5SbO12,mp-1177353,0.0,2.62916481,0.06870557409090594,"{3: 4, 25: 5, 51: 1, 8: 12}","[3, 8, 25, 51]",34812255511,Li4Mn5Sb1O12
Li4Mn7O12,mp-758315,0.18199999999999994,3.50762406,0.05522467521738683,"{3: 4, 25: 7, 8: 12}","[3, 8, 25]",34812257,Li4Mn7O12
Li4CoNi5O12,mp-772703,0.0,3.0106693,0.05861167488636099,"{3: 4, 27: 1, 28: 5, 8: 12}","[3, 8, 27, 28]",34812271285,Li4Co1Ni5O12
Li4Co2Ni5O12,mp-1177650,0.0045999999999999375,3.27570328,0.047047345951087394,"{3: 4, 27: 2, 28: 5, 8: 12}","[3, 8, 27, 28]",34812272285,Li4Co2Ni5O12
Li4Co3(NiO4)3,mp-777850,0.0,2.96989521,0.022498013636366387,"{3: 4, 27: 3, 28: 3, 8: 12}","[3, 8, 27, 28]",34812273283,Li4Co3Ni3O12
Li4Co5O12,mp-759802,0.0,1.67552908,0.061651984261362536,"{3: 4, 27: 5, 8: 12}","[3, 8, 27]",34812275,Li4Co5O12
Li4Co5NiO12,mp-1648324,0.04800000000000004,2.30376805,0.0685728453409098,"{3: 4, 27: 5, 28: 1, 8: 12}","[3, 8, 27, 28]",34812275281,Li4Co5Ni1O12
Li4NbCo5O12,mp-753214,0.0,2.73942362,0.11338980781250019,"{3: 4, 41: 1, 27: 5, 8: 12}","[3, 8, 27, 41]",34812275411,Li4Nb1Co5O12
Li4Co5SnO12,mp-756712,0.0,3.57576429,0.047862670170454535,"{3: 4, 27: 5, 50: 1, 8: 12}","[3, 8, 27, 50]",34812275501,Li4Co5Sn1O12
Li4Co5SbO12,mp-757593,0.0,3.69099357,0.07662047250000281,"{3: 4, 27: 5, 51: 1, 8: 12}","[3, 8, 27, 51]",34812275511,Li4Co5Sb1O12
Li4Ni5SnO12,mp-755672,0.31769999999999987,3.17654077,0.06300089204545678,"{3: 4, 28: 5, 50: 1, 8: 12}","[3, 8, 28, 50]",34812285501,Li4Ni5Sn1O12
Li4Ni5SbO12,mp-1177306,0.0,3.03698699,0.07740117533144186,"{3: 4, 28: 5, 51: 1, 8: 12}","[3, 8, 28, 51]",34812285511,Li4Ni5Sb1O12
Li4Ni5BiO12,mp-756733,0.0,2.74441126,0.06475485723484731,"{3: 4, 28: 5, 83: 1, 8: 12}","[3, 8, 28, 83]",34812285831,Li4Ni5Bi1O12
Li4Ni7O12,mp-758275,0.024900000000000144,3.73690346,0.033761948931161356,"{3: 4, 28: 7, 8: 12}","[3, 8, 28]",34812287,Li4Ni7O12
Li4Ge5O12,mp-28623,2.9262000000000006,1.53125942,0.027488895238095168,"{3: 4, 32: 5, 8: 12}","[3, 8, 32]",34812325,Li4Ge5O12
Sr3Li4La5O12,mp-756936,0.0,7.6919185,0.036251301927084256,"{38: 3, 3: 4, 57: 5, 8: 12}","[3, 8, 38, 57]",34812383575,Sr3Li4La5O12
Li4ZrNb(TeO6)2,mp-756177,0.0,4.44832625,0.057879201374999134,"{3: 4, 40: 1, 41: 1, 52: 2, 8: 12}","[3, 8, 40, 41, 52]",34812401411522,Li4Zr1Nb1Te2O12
Li4NbTe2WO12,mp-753044,0.0,3.68193257,0.0740267848124967,"{3: 4, 41: 1, 52: 2, 74: 1, 8: 12}","[3, 8, 41, 52, 74]",34812411522741,Li4Nb1Te2W1O12
Li4Nb(TeO4)3,mp-756515,0.0,4.44513535,0.08390790818750649,"{3: 4, 41: 1, 52: 3, 8: 12}","[3, 8, 41, 52]",34812411523,Li4Nb1Te3O12
Li4Nb3TeO12,mp-755915,0.0,3.55778917,0.03939920806250097,"{3: 4, 41: 3, 52: 1, 8: 12}","[3, 8, 41, 52]",34812413521,Li4Nb3Te1O12
Li4(MoO4)3,mp-1211266,0.0,-0.4557591,0.11354114348684252,"{3: 4, 42: 3, 8: 12}","[3, 8, 42]",34812423,Li4Mo3O12
Li4Nd3SbTeO12,mp-677490,2.9443,2.54983147,0.012100683214278263,"{3: 4, 60: 3, 51: 1, 52: 1, 8: 12}","[3, 8, 51, 52, 60]",34812511521603,Li4Nd3Sb1Te1O12
Li4SbTe2WO12,mp-753933,0.0,4.35165597,0.0848858811875024,"{3: 4, 51: 1, 52: 2, 74: 1, 8: 12}","[3, 8, 51, 52, 74]",34812511522741,Li4Sb1Te2W1O12
Li4Sb(TeO4)3,mp-776021,0.04330000000000034,4.85246898,0.0713124690625051,"{3: 4, 51: 1, 52: 3, 8: 12}","[3, 8, 51, 52]",34812511523,Li4Sb1Te3O12
Li4Mn3P3O12F,mp-759107,3.5760000000000005,0.62979107,0.073979752499997,"{3: 4, 25: 3, 15: 3, 8: 12, 9: 1}","[3, 8, 9, 15, 25]",3481291153253,Li4Mn3P3O12F1
Li4Ti2Si4O13,mp-765243,0.0,5.81887283,0.07658382343477932,"{3: 4, 22: 2, 14: 4, 8: 13}","[3, 8, 14, 22]",34813144222,Li4Ti2Si4O13
Li4V2Si4O13,mp-850217,2.1984999999999997,3.249857,0.03108592320649972,"{3: 4, 23: 2, 14: 4, 8: 13}","[3, 8, 14, 23]",34813144232,Li4V2Si4O13
Li4Cr2Si4O13,mp-759372,3.0944,3.50570864,0.04042353304348545,"{3: 4, 24: 2, 14: 4, 8: 13}","[3, 8, 14, 24]",34813144242,Li4Cr2Si4O13
Li4Mn2Si4O13,mp-758881,1.4366999999999996,2.63170321,0.05766598971828518,"{3: 4, 25: 2, 14: 4, 8: 13}","[3, 8, 14, 25]",34813144252,Li4Mn2Si4O13
Li4Si4Bi2O13,mp-756672,3.8328,2.90006406,0.08280421043478192,"{3: 4, 14: 4, 83: 2, 8: 13}","[3, 8, 14, 83]",34813144832,Li4Si4Bi2O13