formula,material_id,band_gap,efermi,energy_above_hull,comp_atoms,sorted_keys_comp_atoms,comp_number,new_formula
Li11V8(PO4)12,mp-849384,0.8757000000000001,2.11672666,0.006442914912959452,"{3: 11, 23: 8, 15: 12, 8: 48}","[3, 8, 15, 23]",3118481512238,Li11V8P12O48
Li11Co12(PO4)12,mp-775324,0.0,2.71454262,0.0543459742168686,"{3: 11, 27: 12, 15: 12, 8: 48}","[3, 8, 15, 27]",31184815122712,Li11Co12P12O48
Li11Ti24O48,mp-774528,0.0,4.8654173,0.007468203012034991,"{3: 11, 22: 24, 8: 48}","[3, 8, 22]",3118482224,Li11Ti24O48
Li11V6O5F19,mp-849591,1.0273999999999999,2.42783071,0.06994065289633067,"{3: 11, 23: 6, 8: 5, 9: 19}","[3, 8, 9, 23]",31185919236,Li11V6O5F19
Li11(CoO4)2,mp-769483,0.2894000000000001,1.40080333,0.02396402059522984,"{3: 11, 27: 2, 8: 8}","[3, 8, 27]",31188272,Li11Co2O8
Li11(NiO4)2,mp-769472,0.0,1.0366499,0.04590649134920355,"{3: 11, 28: 2, 8: 8}","[3, 8, 28]",31188282,Li11Ni2O8
KLiAs,mp-1213037,0.0,-0.97455631,0.7077371639285697,"{19: 1, 3: 1, 33: 1}","[3, 19, 33]",31191331,K1Li1As1
KLiSe,mp-8756,2.5249,0.46906723,0.0,"{19: 1, 3: 1, 34: 1}","[3, 19, 34]",31191341,K1Li1Se1
KLiTe,mp-4495,2.4134,1.40742506,0.0,"{19: 1, 3: 1, 52: 1}","[3, 19, 52]",31191521,K1Li1Te1
K2LiGaAs2,mp-9703,0.7546000000000002,1.79950988,0.0,"{19: 2, 3: 1, 31: 1, 33: 2}","[3, 19, 31, 33]",31192311332,K2Li1Ga1As2
K2LiInAs2,mp-505431,0.38969999999999994,2.37802973,0.0,"{19: 2, 3: 1, 49: 1, 33: 2}","[3, 19, 33, 49]",31192332491,K2Li1In1As2
K2LiSe2,mp-1212056,0.0,0.73924755,1.043878223,"{19: 2, 3: 1, 34: 2}","[3, 19, 34]",31192342,K2Li1Se2
K2LiMoBr6,mp-1110868,1.2722,1.0075,0.05548852550000083,"{19: 2, 3: 1, 42: 1, 35: 6}","[3, 19, 35, 42]",31192356421,K2Li1Mo1Br6
K2LiSbBr6,mp-1110899,2.3188,0.066875,0.024960145749999718,"{19: 2, 3: 1, 51: 1, 35: 6}","[3, 19, 35, 51]",31192356511,K2Li1Sb1Br6
K2LiCeBr6,mp-1111138,0.2916000000000003,1.94333333,0.05816822775000752,"{19: 2, 3: 1, 58: 1, 35: 6}","[3, 19, 35, 58]",31192356581,K2Li1Ce1Br6
K2LiPrBr6,mp-1110900,3.9531,-0.96583333,0.06890364249999514,"{19: 2, 3: 1, 59: 1, 35: 6}","[3, 19, 35, 59]",31192356591,K2Li1Pr1Br6
K2LiNdBr6,mp-1110901,3.973,-0.93958333,0.062297647000002954,"{19: 2, 3: 1, 60: 1, 35: 6}","[3, 19, 35, 60]",31192356601,K2Li1Nd1Br6
K2LiTaBr6,mp-1111922,0.0,2.28449485,0.1580921857250024,"{19: 2, 3: 1, 73: 1, 35: 6}","[3, 19, 35, 73]",31192356731,K2Li1Ta1Br6
K2LiTlBr6,mp-1111242,0.5592999999999999,-0.51958333,0.0694732847500017,"{19: 2, 3: 1, 81: 1, 35: 6}","[3, 19, 35, 81]",31192356811,K2Li1Tl1Br6
K2LiBiBr6,mp-1110902,2.9174,-0.57958333,0.04012852849999948,"{19: 2, 3: 1, 83: 1, 35: 6}","[3, 19, 35, 83]",31192356831,K2Li1Bi1Br6
K2LiMoI6,mp-1110940,0.9740000000000002,2.0075,0.08526147983333399,"{19: 2, 3: 1, 42: 1, 53: 6}","[3, 19, 42, 53]",31192421536,K2Li1Mo1I6
Li11V4F24,mp-760823,0.0,-0.28563108,0.028562153974347915,"{3: 11, 23: 4, 9: 24}","[3, 9, 23]",311924234,Li11V4F24
K2LiSn4,mp-680450,0.6936999999999998,3.19483707,0.0,"{19: 2, 3: 1, 50: 4}","[3, 19, 50]",31192504,K2Li1Sn4
K2LiSbI6,mp-1110937,1.7108,1.10708333,0.07372809550000037,"{19: 2, 3: 1, 51: 1, 53: 6}","[3, 19, 51, 53]",31192511536,K2Li1Sb1I6
K2LiTe2,mp-1212335,0.00010000000000021103,-3.13023855,1.0166813500000016,"{19: 2, 3: 1, 52: 2}","[3, 19, 52]",31192522,K2Li1Te2
K2LiCeI6,mp-1111674,0.2547999999999999,2.62833333,0.059198541500001145,"{19: 2, 3: 1, 58: 1, 53: 6}","[3, 19, 53, 58]",31192536581,K2Li1Ce1I6
K2LiPrI6,mp-1110938,2.9382,0.57416667,0.07557772975000132,"{19: 2, 3: 1, 59: 1, 53: 6}","[3, 19, 53, 59]",31192536591,K2Li1Pr1I6
K2LiNdI6,mp-1110939,2.9488000000000003,0.60083333,0.0697748550000008,"{19: 2, 3: 1, 60: 1, 53: 6}","[3, 19, 53, 60]",31192536601,K2Li1Nd1I6
K2LiTaI6,mp-1111245,0.0,3.04362905,0.17948922871875173,"{19: 2, 3: 1, 73: 1, 53: 6}","[3, 19, 53, 73]",31192536731,K2Li1Ta1I6
K2LiBiI6,mp-1110941,1.9247,0.85375,0.07830945350000063,"{19: 2, 3: 1, 83: 1, 53: 6}","[3, 19, 53, 83]",31192536831,K2Li1Bi1I6
K3Li,mp-1184876,0.0,0.01132198,0.1133048544166666,"{19: 3, 3: 1}","[3, 19]",31193,K3Li1
K3LiGe4,mp-1211905,1.0603000000000002,1.773755,0.0,"{19: 3, 3: 1, 32: 4}","[3, 19, 32]",31193324,K3Li1Ge4
K3LiPb4,mp-1212210,0.6082999999999998,3.08897662,0.0010387937500020428,"{19: 3, 3: 1, 82: 4}","[3, 19, 82]",31193824,K3Li1Pb4
LiCa11Sb9,mp-1211639,0.7256999999999998,4.29969252,0.0,"{3: 1, 20: 11, 51: 9}","[3, 20, 51]",312011519,Li1Ca11Sb9
LiCaGe2,mp-13917,0.0,2.61852566,0.0,"{3: 1, 20: 1, 32: 2}","[3, 20, 32]",31201322,Li1Ca1Ge2
LiCaAs,mp-1095289,1.1014999999999997,3.07645002,0.0,"{3: 1, 20: 1, 33: 1}","[3, 20, 33]",31201331,Li1Ca1As1
LiCaRh,mp-961723,0.2530999999999999,2.21348996,0.3218233203703704,"{3: 1, 20: 1, 45: 1}","[3, 20, 45]",31201451,Li1Ca1Rh1
LiCaSn,mp-30477,0.0,3.99111274,0.0,"{3: 1, 20: 1, 50: 1}","[3, 20, 50]",31201501,Li1Ca1Sn1
LiCaSb,mp-16264,0.6443000000000003,4.15798441,0.0,"{3: 1, 20: 1, 51: 1}","[3, 20, 51]",31201511,Li1Ca1Sb1
LiCaAu2,mp-1093673,0.04339999999999966,-2.4420002,1.1961464874999983,"{3: 1, 20: 1, 79: 2}","[3, 20, 79]",31201792,Li1Ca1Au2
LiCaHg2,mp-1096680,0.0,-1.97001835,1.1074320899999999,"{3: 1, 20: 1, 80: 2}","[3, 20, 80]",31201802,Li1Ca1Hg2
LiCaTl2,mp-1097074,0.048699999999999743,-2.43367151,1.4507920100000007,"{3: 1, 20: 1, 81: 2}","[3, 20, 81]",31201812,Li1Ca1Tl2
LiCaPb,mp-20998,0.0,3.94467923,0.0,"{3: 1, 20: 1, 82: 1}","[3, 20, 82]",31201821,Li1Ca1Pb1
LiCaPb2,mp-1096537,0.11880000000000024,-3.10476283,1.5357994625000002,"{3: 1, 20: 1, 82: 2}","[3, 20, 82]",31201822,Li1Ca1Pb2
LiCaBi,mp-569501,0.5790000000000002,3.84433057,0.0,"{3: 1, 20: 1, 83: 1}","[3, 20, 83]",31201831,Li1Ca1Bi1
LiCa2Zn,mp-1093601,0.0,-1.96387507,1.3807761274305554,"{3: 1, 20: 2, 30: 1}","[3, 20, 30]",31202301,Li1Ca2Zn1
LiCa2Ga,mp-867805,0.0,2.11625548,0.0009458095833325686,"{3: 1, 20: 2, 31: 1}","[3, 20, 31]",31202311,Li1Ca2Ga1
LiCa2Ge,mp-1206798,0.0,2.87538558,0.06733307354166662,"{3: 1, 20: 2, 32: 1}","[3, 20, 32]",31202321,Li1Ca2Ge1
LiCa2InGe2,mp-570850,0.004399999999999515,4.20942336,0.0,"{3: 1, 20: 2, 49: 1, 32: 2}","[3, 20, 32, 49]",31202322491,Li1Ca2In1Ge2
LiCa2Ge3,mp-504670,0.0,2.87073268,0.0,"{3: 1, 20: 2, 32: 3}","[3, 20, 32]",31202323,Li1Ca2Ge3
LiCa2Rh,mp-862764,0.0,2.93799577,0.0064793370833324815,"{3: 1, 20: 2, 45: 1}","[3, 20, 45]",31202451,Li1Ca2Rh1
LiCa2Pd,mp-1093663,0.5554999999999999,-2.41366945,1.430536391562498,"{3: 1, 20: 2, 46: 1}","[3, 20, 46]",31202461,Li1Ca2Pd1
LiCa2Ag,mp-1097380,0.6486000000000003,-2.39202003,1.440125959652777,"{3: 1, 20: 2, 47: 1}","[3, 20, 47]",31202471,Li1Ca2Ag1
LiCa2Cd,mp-867803,0.0,1.88429132,0.0,"{3: 1, 20: 2, 48: 1}","[3, 20, 48]",31202481,Li1Ca2Cd1
LiCa2In,mp-867211,0.0,2.9938065,0.0,"{3: 1, 20: 2, 49: 1}","[3, 20, 49]",31202491,Li1Ca2In1
LiCa2Sn,mp-1095800,0.0,-2.48592749,1.6843975578124994,"{3: 1, 20: 2, 50: 1}","[3, 20, 50]",31202501,Li1Ca2Sn1
LiCa2Ir,mp-867222,0.0,3.39044857,0.01924372333333224,"{3: 1, 20: 2, 77: 1}","[3, 20, 77]",31202771,Li1Ca2Ir1
LiCa2Pt,mp-1096690,0.7912000000000001,-2.48917909,1.530002414666665,"{3: 1, 20: 2, 78: 1}","[3, 20, 78]",31202781,Li1Ca2Pt1
LiCa2Hg,mp-867210,0.0,2.27846205,0.02021490678240756,"{3: 1, 20: 2, 80: 1}","[3, 20, 80]",31202801,Li1Ca2Hg1
LiCa2Tl,mp-867167,0.0,3.11251606,0.0,"{3: 1, 20: 2, 81: 1}","[3, 20, 81]",31202811,Li1Ca2Tl1
LiCa2Pb,mp-1185325,0.0,3.7064762,0.021662026093749454,"{3: 1, 20: 2, 82: 1}","[3, 20, 82]",31202821,Li1Ca2Pb1
LiCa3,mp-1185350,0.0,1.53552523,0.07511619531249991,"{3: 1, 20: 3}","[3, 20]",31203,Li1Ca3
LiCa4,mp-1211157,0.0,1.40305406,0.3184861520000002,"{3: 1, 20: 4}","[3, 20]",31204,Li1Ca4
LiCa6Ge,mp-12609,0.0,2.17892749,0.1847981126562499,"{3: 1, 20: 6, 32: 1}","[3, 20, 32]",31206321,Li1Ca6Ge1
LiScZn2,mp-1096318,0.1336999999999997,-2.24278968,1.7919144474999997,"{3: 1, 21: 1, 30: 2}","[3, 21, 30]",31211302,Li1Sc1Zn2
LiScGa2,mp-1093969,0.12409999999999988,-2.5892341,2.0650299604687508,"{3: 1, 21: 1, 31: 2}","[3, 21, 31]",31211312,Li1Sc1Ga2
LiZrSc,mp-631338,0.0,1.53874607,1.1388077212222232,"{3: 1, 40: 1, 21: 1}","[3, 21, 40]",31211401,Li1Zr1Sc1
LiScRh2,mp-1185444,0.0,4.40219027,0.01621157499999981,"{3: 1, 21: 1, 45: 2}","[3, 21, 45]",31211452,Li1Sc1Rh2
LiScPd2,mp-865184,0.0,3.97575675,0.0,"{3: 1, 21: 1, 46: 2}","[3, 21, 46]",31211462,Li1Sc1Pd2
LiScAg2,mp-1097460,0.0,-2.76396475,1.6935061804687503,"{3: 1, 21: 1, 47: 2}","[3, 21, 47]",31211472,Li1Sc1Ag2
LiScCd2,mp-1093819,0.05099999999999971,-2.42907557,1.6269969012499992,"{3: 1, 21: 1, 48: 2}","[3, 21, 48]",31211482,Li1Sc1Cd2
LiScIn2,mp-1185454,0.0,6.15882825,0.026789203249995452,"{3: 1, 21: 1, 49: 2}","[3, 21, 49]",31211492,Li1Sc1In2
LiScSn,mp-1100438,0.36260000000000003,3.32563913,0.4798464856666653,"{3: 1, 21: 1, 50: 1}","[3, 21, 50]",31211501,Li1Sc1Sn1
LiScI3,mp-28835,0.0,5.15635148,0.047725456319999804,"{3: 1, 21: 1, 53: 3}","[3, 21, 53]",31211533,Li1Sc1I3
LiScPt2,mp-865228,0.0,5.18434095,0.0,"{3: 1, 21: 1, 78: 2}","[3, 21, 78]",31211782,Li1Sc1Pt2
LiScAu2,mp-862815,0.0,4.2143843,0.0,"{3: 1, 21: 1, 79: 2}","[3, 21, 79]",31211792,Li1Sc1Au2
LiScHg2,mp-863659,0.0,3.19081275,0.0,"{3: 1, 21: 1, 80: 2}","[3, 21, 80]",31211802,Li1Sc1Hg2
LiScTl2,mp-865231,0.0,5.7812395,0.0,"{3: 1, 21: 1, 81: 2}","[3, 21, 81]",31211812,Li1Sc1Tl2
LiSc2Co,mp-1096265,0.37050000000000005,-2.36054456,2.3394353697916674,"{3: 1, 21: 2, 27: 1}","[3, 21, 27]",31212271,Li1Sc2Co1
LiSc2Ga,mp-1185424,0.0,3.36401965,0.02899686645833377,"{3: 1, 21: 2, 31: 1}","[3, 21, 31]",31212311,Li1Sc2Ga1
Li12Mg3Si4,mp-8331,0.0,2.75351128,0.009249150105262505,"{3: 12, 12: 3, 14: 4}","[3, 12, 14]",312123144,Li12Mg3Si4
LiSc2Tc,mp-865936,0.0,4.08121875,0.0,"{3: 1, 21: 2, 43: 1}","[3, 21, 43]",31212431,Li1Sc2Tc1
LiSc2Ru,mp-865795,0.0,4.14278445,0.0,"{3: 1, 21: 2, 44: 1}","[3, 21, 44]",31212441,Li1Sc2Ru1
LiSc2Rh,mp-865793,0.0,4.35285945,0.0,"{3: 1, 21: 2, 45: 1}","[3, 21, 45]",31212451,Li1Sc2Rh1
LiSc2Pd,mp-1185433,0.0,3.98219127,0.04950477416666743,"{3: 1, 21: 2, 46: 1}","[3, 21, 46]",31212461,Li1Sc2Pd1
LiSc2In,mp-1096271,0.0,-2.3160923,2.394364537307693,"{3: 1, 21: 2, 49: 1}","[3, 21, 49]",31212491,Li1Sc2In1
LiSc2Os,mp-862887,0.0,4.17538906,0.0,"{3: 1, 21: 2, 76: 1}","[3, 21, 76]",31212761,Li1Sc2Os1
LiSc2Ir,mp-861616,0.0,4.78698143,0.0,"{3: 1, 21: 2, 77: 1}","[3, 21, 77]",31212771,Li1Sc2Ir1
LiSc2Pt,mp-865444,0.0,4.80097118,0.0,"{3: 1, 21: 2, 78: 1}","[3, 21, 78]",31212781,Li1Sc2Pt1
LiSc2Au,mp-864772,0.0,4.03136507,0.06392891708333437,"{3: 1, 21: 2, 79: 1}","[3, 21, 79]",31212791,Li1Sc2Au1
LiSc2Hg,mp-1097617,0.0,-2.35193958,2.176028330000001,"{3: 1, 21: 2, 80: 1}","[3, 21, 80]",31212801,Li1Sc2Hg1
LiSc2Tl,mp-1096494,0.0,-2.34004476,2.2895966008333346,"{3: 1, 21: 2, 81: 1}","[3, 21, 81]",31212811,Li1Sc2Tl1
Li12Al3Si4,mp-14378,0.0,3.50891376,0.09072332718045084,"{3: 12, 13: 3, 14: 4}","[3, 13, 14]",312133144,Li12Al3Si4
Li12Si7,mp-1314,0.0,3.2662577,0.0035403334962404998,"{3: 12, 14: 7}","[3, 14]",312147,Li12Si7
LiTiSe2,mp-1206595,0.0,4.57980023,0.0,"{3: 1, 22: 1, 34: 2}","[3, 22, 34]",31221342,Li1Ti1Se2
LiTiRh2,mp-863727,0.0,5.30763662,0.0,"{3: 1, 22: 1, 45: 2}","[3, 22, 45]",31221452,Li1Ti1Rh2
LiTiPd2,mp-1185238,0.0,4.78546558,0.0,"{3: 1, 22: 1, 46: 2}","[3, 22, 46]",31221462,Li1Ti1Pd2
LiTiTe2,mp-10189,0.0,5.97431376,0.015930677187489195,"{3: 1, 22: 1, 52: 2}","[3, 22, 52]",31221522,Li1Ti1Te2
LiTiRe,mp-631319,0.0,2.97503756,1.3113467955555542,"{3: 1, 22: 1, 75: 1}","[3, 22, 75]",31221751,Li1Ti1Re1
LiTiIr2,mp-864930,0.0,6.61436431,0.0,"{3: 1, 22: 1, 77: 2}","[3, 22, 77]",31221772,Li1Ti1Ir2
LiTiPt2,mp-977440,0.0,5.96441737,0.0,"{3: 1, 22: 1, 78: 2}","[3, 22, 78]",31221782,Li1Ti1Pt2
LiTiAu2,mp-1096022,0.2514000000000003,-2.81944221,1.7809979625000025,"{3: 1, 22: 1, 79: 2}","[3, 22, 79]",31221792,Li1Ti1Au2
Li(TiTe2)2,mp-1222726,0.0,5.64946377,0.003959251428574007,"{3: 1, 22: 2, 52: 4}","[3, 22, 52]",31222524,Li1Ti2Te4
LiTi2Os,mp-1095845,0.0,-2.77663545,3.2582185033333317,"{3: 1, 22: 2, 76: 1}","[3, 22, 76]",31222761,Li1Ti2Os1
LiTi2Ir,mp-1185428,0.0,6.16316681,0.006038900416668547,"{3: 1, 22: 2, 77: 1}","[3, 22, 77]",31222771,Li1Ti2Ir1
Li(TiSe2)3,mp-8132,0.0,2.64228631,0.0,"{3: 1, 22: 3, 34: 6}","[3, 22, 34]",31223346,Li1Ti3Se6
Li(TiTe2)5,mp-1222772,0.0,5.7372104,0.0,"{3: 1, 22: 5, 52: 10}","[3, 22, 52]",312255210,Li1Ti5Te10
LiVSe2,mp-1206637,0.0,4.61583475,0.04127957031249174,"{3: 1, 23: 1, 34: 2}","[3, 23, 34]",31231342,Li1V1Se2
LiVRu2,mp-1096296,0.31309999999999993,-3.37635143,2.882811375416665,"{3: 1, 23: 1, 44: 2}","[3, 23, 44]",31231442,Li1V1Ru2
LiVRh2,mp-867829,0.0,5.60887684,0.0,"{3: 1, 23: 1, 45: 2}","[3, 23, 45]",31231452,Li1V1Rh2
LiVSb,mp-1207173,0.0,4.22552847,0.4977991852777759,"{3: 1, 23: 1, 51: 1}","[3, 23, 51]",31231511,Li1V1Sb1
LiVIr2,mp-867927,0.0,7.22954523,0.0,"{3: 1, 23: 1, 77: 2}","[3, 23, 77]",31231772,Li1V1Ir2
LiVBi,mp-1206695,0.0,4.70701674,0.5481518466666664,"{3: 1, 23: 1, 83: 1}","[3, 23, 83]",31231831,Li1V1Bi1
Li12Ge7,mp-1212365,0.0,1.70767459,0.006842805197368573,"{3: 12, 32: 7}","[3, 32]",312327,Li12Ge7
LiCrRh2,mp-1185306,0.0,5.47115773,0.0,"{3: 1, 24: 1, 45: 2}","[3, 24, 45]",31241452,Li1Cr1Rh2
LiCrIr2,mp-1096635,0.20210000000000017,-3.46628646,2.820309530833331,"{3: 1, 24: 1, 77: 2}","[3, 24, 77]",31241772,Li1Cr1Ir2
LiMn,mp-1185402,0.0,2.63223927,0.37664724936781546,"{3: 1, 25: 1}","[3, 25]",31251,Li1Mn1
LiMnAs,mp-21284,0.0,4.5600468,0.1318565163409975,"{3: 1, 25: 1, 33: 1}","[3, 25, 33]",31251331,Li1Mn1As1
LiMnAs2,mp-1210904,0.0,3.89930113,0.5971937540625003,"{3: 1, 25: 1, 33: 2}","[3, 25, 33]",31251332,Li1Mn1As2
LiMnSe2,mp-10231,0.0,1.93149884,0.11246803705882336,"{3: 1, 25: 1, 34: 2}","[3, 25, 34]",31251342,Li1Mn1Se2
LiMnRh2,mp-1096544,0.0,-3.4129802,2.6969343375,"{3: 1, 25: 1, 45: 2}","[3, 25, 45]",31251452,Li1Mn1Rh2
LiMnPd2,mp-861629,0.0,3.94324945,0.0,"{3: 1, 25: 1, 46: 2}","[3, 25, 46]",31251462,Li1Mn1Pd2
LiMnSb,mp-1018786,0.0,4.00663925,0.19257127145593778,"{3: 1, 25: 1, 51: 1}","[3, 25, 51]",31251511,Li1Mn1Sb1
LiMnSb2,mp-1207008,0.0,4.50094547,0.515024787708338,"{3: 1, 25: 1, 51: 2}","[3, 25, 51]",31251512,Li1Mn1Sb2
LiMnTe2,mp-12681,0.0,3.51587061,0.14985015856681105,"{3: 1, 25: 1, 52: 2}","[3, 25, 52]",31251522,Li1Mn1Te2
LiMnIr2,mp-1185360,0.0,6.79493192,0.017776398124999204,"{3: 1, 25: 1, 77: 2}","[3, 25, 77]",31251772,Li1Mn1Ir2
LiMnPt2,mp-861658,0.0,5.30786313,0.0,"{3: 1, 25: 1, 78: 2}","[3, 25, 78]",31251782,Li1Mn1Pt2
LiMnAu2,mp-1097621,0.5226999999999999,-2.96054616,1.3746766692672416,"{3: 1, 25: 1, 79: 2}","[3, 25, 79]",31251792,Li1Mn1Au2
LiMn9Se10,mp-676780,0.0,4.67240702,0.0,"{3: 1, 25: 9, 34: 10}","[3, 25, 34]",312593410,Li1Mn9Se10
Li12VCr3P4(CO7)4,mp-766537,1.9836999999999998,3.43743639,0.08108959401442739,"{3: 12, 23: 1, 24: 3, 15: 4, 6: 4, 8: 28}","[3, 6, 8, 15, 23, 24]",31264828154231243,Li12V1Cr3P4C4O28
Li12Mn3VP4(CO7)4,mp-766509,2.6856,3.09608384,0.059866221105770556,"{3: 12, 25: 3, 23: 1, 15: 4, 6: 4, 8: 28}","[3, 6, 8, 15, 23, 25]",31264828154231253,Li12Mn3V1P4C4O28
Li12VCo3P4(CO7)4,mp-766565,0.7799000000000005,3.56030595,0.05542811161057504,"{3: 12, 23: 1, 27: 3, 15: 4, 6: 4, 8: 28}","[3, 6, 8, 15, 23, 27]",31264828154231273,Li12V1Co3P4C4O28
Li12VNi3P4(CO7)4,mp-766677,1.5977000000000001,3.86511073,0.04922397558894254,"{3: 12, 23: 1, 28: 3, 15: 4, 6: 4, 8: 28}","[3, 6, 8, 15, 23, 28]",31264828154231283,Li12V1Ni3P4C4O28
Li12V3CrP4(CO7)4,mp-766538,1.9742000000000002,3.33118999,0.07572836979567388,"{3: 12, 23: 3, 24: 1, 15: 4, 6: 4, 8: 28}","[3, 6, 8, 15, 23, 24]",31264828154233241,Li12V3Cr1P4C4O28
Li12MnV3P4(CO7)4,mp-861267,2.7203999999999997,3.26636978,0.06829298562500075,"{3: 12, 25: 1, 23: 3, 15: 4, 6: 4, 8: 28}","[3, 6, 8, 15, 23, 25]",31264828154233251,Li12Mn1V3P4C4O28
Li12V3CoP4(CO7)4,mp-766588,0.8535999999999997,3.42836136,0.06647022825721383,"{3: 12, 23: 3, 27: 1, 15: 4, 6: 4, 8: 28}","[3, 6, 8, 15, 23, 27]",31264828154233271,Li12V3Co1P4C4O28
Li12V3NiP4(CO7)4,mp-1178087,2.0119000000000002,3.75225116,0.06553637459134798,"{3: 12, 23: 3, 28: 1, 15: 4, 6: 4, 8: 28}","[3, 6, 8, 15, 23, 28]",31264828154233281,Li12V3Ni1P4C4O28
Li12Mn3CrP4(CO7)4,mp-766531,2.3728,2.87061045,0.061752428852165586,"{3: 12, 25: 3, 24: 1, 15: 4, 6: 4, 8: 28}","[3, 6, 8, 15, 24, 25]",31264828154241253,Li12Mn3Cr1P4C4O28
Li12CrCo3P4(CO7)4,mp-766700,1.2044000000000001,3.27308132,0.05358966576321755,"{3: 12, 24: 1, 27: 3, 15: 4, 6: 4, 8: 28}","[3, 6, 8, 15, 24, 27]",31264828154241273,Li12Cr1Co3P4C4O28
Li12CrNi3P4(CO7)4,mp-1178083,1.6346000000000003,2.50900707,0.050661370775241465,"{3: 12, 24: 1, 28: 3, 15: 4, 6: 4, 8: 28}","[3, 6, 8, 15, 24, 28]",31264828154241283,Li12Cr1Ni3P4C4O28
Li12MnCr3P4(CO7)4,mp-1178079,2.6193000000000004,3.11300078,0.07004504213341445,"{3: 12, 25: 1, 24: 3, 15: 4, 6: 4, 8: 28}","[3, 6, 8, 15, 24, 25]",31264828154243251,Li12Mn1Cr3P4C4O28
Li12Cr3CoP4(CO7)4,mp-1178129,1.5513,3.18877305,0.07424817506610726,"{3: 12, 24: 3, 27: 1, 15: 4, 6: 4, 8: 28}","[3, 6, 8, 15, 24, 27]",31264828154243271,Li12Cr3Co1P4C4O28
Li12Cr3NiP4(CO7)4,mp-1178088,2.3780999999999994,3.35617534,0.06840719751802737,"{3: 12, 24: 3, 28: 1, 15: 4, 6: 4, 8: 28}","[3, 6, 8, 15, 24, 28]",31264828154243281,Li12Cr3Ni1P4C4O28
Li12MnCo3P4(CO7)4,mp-766814,2.0062,2.38120581,0.04710955826923602,"{3: 12, 25: 1, 27: 3, 15: 4, 6: 4, 8: 28}","[3, 6, 8, 15, 25, 27]",31264828154251273,Li12Mn1Co3P4C4O28
Li12MnNi3P4(CO7)4,mp-766513,2.7359999999999998,2.78906962,0.045612070000003335,"{3: 12, 25: 1, 28: 3, 15: 4, 6: 4, 8: 28}","[3, 6, 8, 15, 25, 28]",31264828154251283,Li12Mn1Ni3P4C4O28
Li12Mn3CoP4(CO7)4,mp-1178081,2.0535,2.43747328,0.05279735269231001,"{3: 12, 25: 3, 27: 1, 15: 4, 6: 4, 8: 28}","[3, 6, 8, 15, 25, 27]",31264828154253271,Li12Mn3Co1P4C4O28
Li12Mn3NiP4(CO7)4,mp-1178080,2.8660000000000005,2.53088134,0.05291039230769368,"{3: 12, 25: 3, 28: 1, 15: 4, 6: 4, 8: 28}","[3, 6, 8, 15, 25, 28]",31264828154253281,Li12Mn3Ni1P4C4O28
Li12CoNi3P4(CO7)4,mp-766547,2.9723000000000006,2.00839288,0.060168540576921004,"{3: 12, 27: 1, 28: 3, 15: 4, 6: 4, 8: 28}","[3, 6, 8, 15, 27, 28]",31264828154271283,Li12Co1Ni3P4C4O28
Li12Co3NiP4(CO7)4,mp-766567,2.84,1.96481137,0.04417902769230864,"{3: 12, 27: 3, 28: 1, 15: 4, 6: 4, 8: 28}","[3, 6, 8, 15, 27, 28]",31264828154273281,Li12Co3Ni1P4C4O28
LiZn2Co,mp-1097185,0.7496,-2.34957462,1.5450525256249996,"{3: 1, 30: 2, 27: 1}","[3, 27, 30]",31271302,Li1Zn2Co1
LiGa2Co,mp-1185316,0.0,4.30257693,0.03561814374999983,"{3: 1, 31: 2, 27: 1}","[3, 27, 31]",31271312,Li1Ga2Co1
LiCoAs,mp-20698,0.0,4.33429545,0.0,"{3: 1, 27: 1, 33: 1}","[3, 27, 33]",31271331,Li1Co1As1
LiPm2Co,mp-1185413,0.0,3.40303243,0.09051605458333611,"{3: 1, 61: 2, 27: 1}","[3, 27, 61]",31271612,Li1Pm2Co1
LiTm2Co,mp-867136,0.0,3.1273075,0.010436652499998367,"{3: 1, 69: 2, 27: 1}","[3, 27, 69]",31271692,Li1Tm2Co1
LiLu2Co,mp-1185373,0.0,2.98237842,0.03252867524999825,"{3: 1, 71: 2, 27: 1}","[3, 27, 71]",31271712,Li1Lu2Co1
LiCo2Ge,mp-13914,0.0,5.00505398,0.0,"{3: 1, 27: 2, 32: 1}","[3, 27, 32]",31272321,Li1Co2Ge1
Li(CoGe)6,mp-4107,0.0,5.1130441,0.0,"{3: 1, 27: 6, 32: 6}","[3, 27, 32]",31276326,Li1Co6Ge6
LiZn2Ni,mp-867252,0.0,3.62772585,0.0,"{3: 1, 30: 2, 28: 1}","[3, 28, 30]",31281302,Li1Zn2Ni1
LiGa2Ni,mp-867223,0.0,5.04513275,0.004709949071427744,"{3: 1, 31: 2, 28: 1}","[3, 28, 31]",31281312,Li1Ga2Ni1
LiCd2Ni,mp-1185212,0.0,3.19466952,0.05500851625000003,"{3: 1, 48: 2, 28: 1}","[3, 28, 48]",31281482,Li1Cd2Ni1
LiIn2Ni,mp-1185381,0.0,7.92020263,0.017648548000016362,"{3: 1, 49: 2, 28: 1}","[3, 28, 49]",31281492,Li1In2Ni1
CsKNa2Li12(SiO4)4,mp-17718,4.722099999999999,1.01017543,0.0,"{55: 1, 19: 1, 11: 2, 3: 12, 14: 4, 8: 16}","[3, 8, 11, 14, 19, 55]",312816112144191551,Cs1K1Na2Li12Si4O16
RbNa3Li12(SiO4)4,mp-17240,4.589,0.96470291,0.0,"{37: 1, 11: 3, 3: 12, 14: 4, 8: 16}","[3, 8, 11, 14, 37]",312816113144371,Rb1Na3Li12Si4O16
RbNa3Li12Ti4O16,mp-774749,4.3103,0.09137121,0.0,"{37: 1, 11: 3, 3: 12, 22: 4, 8: 16}","[3, 8, 11, 22, 37]",312816113224371,Rb1Na3Li12Ti4O16
CsNa3Li12(GeO4)4,mp-17125,3.7822999999999998,0.1636612,0.0005680809722212743,"{55: 1, 11: 3, 3: 12, 32: 4, 8: 16}","[3, 8, 11, 32, 55]",312816113324551,Cs1Na3Li12Ge4O16
Li12Cr5O16,mp-764428,0.23239999999999972,2.87630098,0.09584117159091043,"{3: 12, 24: 5, 8: 16}","[3, 8, 24]",312816245,Li12Cr5O16