formula,material_id,band_gap,efermi,energy_above_hull,comp_atoms,sorted_keys_comp_atoms,comp_number,new_formula
LiTaSiO5,mp-560297,3.5713999999999997,1.05815823,0.0,"{3: 1, 73: 1, 14: 1, 8: 5}","[3, 8, 14, 73]",3185141731,Li1Ta1Si1O5
KLiSi2O5,mp-558102,4.7068,0.71747108,0.0,"{19: 1, 3: 1, 14: 2, 8: 5}","[3, 8, 14, 19]",3185142191,K1Li1Si2O5
LiTiPO5,mp-6668,3.0591999999999997,1.51261057,0.0,"{3: 1, 22: 1, 15: 1, 8: 5}","[3, 8, 15, 22]",3185151221,Li1Ti1P1O5
LiVPO5,mp-26963,1.5636,2.46167936,0.0,"{3: 1, 23: 1, 15: 1, 8: 5}","[3, 8, 15, 23]",3185151231,Li1V1P1O5
RbLiVPO5,mp-758914,2.3445,1.78803519,0.12819144340740607,"{37: 1, 3: 1, 23: 1, 15: 1, 8: 5}","[3, 8, 15, 23, 37]",3185151231371,Rb1Li1V1P1O5
LiCrPO5,mp-540292,0.17930000000000001,2.12502367,0.03717195556247255,"{3: 1, 24: 1, 15: 1, 8: 5}","[3, 8, 15, 24]",3185151241,Li1Cr1P1O5
LiMnPO5,mp-757358,0.9971999999999999,1.6614613,0.025989116545142465,"{3: 1, 25: 1, 15: 1, 8: 5}","[3, 8, 15, 25]",3185151251,Li1Mn1P1O5
LiMn2PO5,mp-776397,1.8299999999999996,3.02509564,0.0933185711110891,"{3: 1, 25: 2, 15: 1, 8: 5}","[3, 8, 15, 25]",3185151252,Li1Mn2P1O5
LiGaPO5,mp-1210856,0.07079999999999997,1.22905916,0.1393329105381964,"{3: 1, 31: 1, 15: 1, 8: 5}","[3, 8, 15, 31]",3185151311,Li1Ga1P1O5
LiNbPO5,mp-774859,0.0,4.44815125,0.07945360213021502,"{3: 1, 41: 1, 15: 1, 8: 5}","[3, 8, 15, 41]",3185151411,Li1Nb1P1O5
LiMoPO5,mp-504194,1.3988,2.72403297,0.0063346465624833925,"{3: 1, 42: 1, 15: 1, 8: 5}","[3, 8, 15, 42]",3185151421,Li1Mo1P1O5
LiSbPO5,mp-775867,1.5947999999999998,3.48210579,0.0695467748214389,"{3: 1, 51: 1, 15: 1, 8: 5}","[3, 8, 15, 51]",3185151511,Li1Sb1P1O5
LiTePO5,mp-782065,3.5235999999999996,2.06453733,0.04371747562499895,"{3: 1, 52: 1, 15: 1, 8: 5}","[3, 8, 15, 52]",3185151521,Li1Te1P1O5
LiPWO5,mp-757577,1.9652000000000003,2.83035309,0.02143635124999932,"{3: 1, 15: 1, 74: 1, 8: 5}","[3, 8, 15, 74]",3185151741,Li1P1W1O5
KLiMoO5,mp-1211848,0.7766,-0.49026848,0.26199770078124995,"{19: 1, 3: 1, 42: 1, 8: 5}","[3, 8, 19, 42]",3185191421,K1Li1Mo1O5
KLiWO5,mp-1211940,0.7030999999999998,-0.89868325,0.26884505938888914,"{19: 1, 3: 1, 74: 1, 8: 5}","[3, 8, 19, 74]",3185191741,K1Li1W1O5
LiTiVO5,mp-756178,1.5071000000000003,0.59497372,0.08477199343750108,"{3: 1, 22: 1, 23: 1, 8: 5}","[3, 8, 22, 23]",3185221231,Li1Ti1V1O5
LiTiAsO5,mp-6113,3.1654000000000004,0.9299059,0.0,"{3: 1, 22: 1, 33: 1, 8: 5}","[3, 8, 22, 33]",3185221331,Li1Ti1As1O5
LiVGeO5,mp-850438,2.1787,0.25574926,0.06191083249999707,"{3: 1, 23: 1, 32: 1, 8: 5}","[3, 8, 23, 32]",3185231321,Li1V1Ge1O5
LiVAsO5,mp-17387,1.6489000000000003,1.82680494,0.002485517812491622,"{3: 1, 23: 1, 33: 1, 8: 5}","[3, 8, 23, 33]",3185231331,Li1V1As1O5
LiVTeO5,mp-1181006,2.7905000000000006,1.70347017,0.0026061504687504566,"{3: 1, 23: 1, 52: 1, 8: 5}","[3, 8, 23, 52]",3185231521,Li1V1Te1O5
LiV2O5,mp-777667,1.6281999999999999,1.08373617,0.009157788750002283,"{3: 1, 23: 2, 8: 5}","[3, 8, 23]",3185232,Li1V2O5
LiCr2O5,mp-770687,0.0,0.98379808,0.09450863979166613,"{3: 1, 24: 2, 8: 5}","[3, 8, 24]",3185242,Li1Cr2O5
LiMnAsO5,mp-1105934,0.27310000000000034,2.02732917,0.053037564895835665,"{3: 1, 25: 1, 33: 1, 8: 5}","[3, 8, 25, 33]",3185251331,Li1Mn1As1O5
LiMn3O5,mp-770511,0.0,3.18068763,0.052466291944437415,"{3: 1, 25: 3, 8: 5}","[3, 8, 25]",3185253,Li1Mn3O5
LiCo4O5,mp-1222581,0.0,3.8012489,0.13177122225000026,"{3: 1, 27: 4, 8: 5}","[3, 8, 27]",3185274,Li1Co4O5
LiNi4O5,mp-677318,0.0,4.75323592,0.01463171383333517,"{3: 1, 28: 4, 8: 5}","[3, 8, 28]",3185284,Li1Ni4O5
LiZnAsO5,mp-1203426,0.23770000000000002,-1.38520821,0.2920079085416605,"{3: 1, 30: 1, 33: 1, 8: 5}","[3, 8, 30, 33]",3185301331,Li1Zn1As1O5
LiNbGeO5,mp-6456,3.3815,0.26991484,0.006307666562499037,"{3: 1, 41: 1, 32: 1, 8: 5}","[3, 8, 32, 41]",3185321411,Li1Nb1Ge1O5
LiTaGeO5,mp-560104,3.7864999999999993,0.41814858,0.0030512715624997355,"{3: 1, 73: 1, 32: 1, 8: 5}","[3, 8, 32, 73]",3185321731,Li1Ta1Ge1O5
RbLiMoO5,mp-1204616,0.47120000000000006,-1.63668913,0.2786190337500001,"{37: 1, 3: 1, 42: 1, 8: 5}","[3, 8, 37, 42]",3185371421,Rb1Li1Mo1O5
RbLiWO5,mp-1209734,0.6105000000000002,-0.97537314,0.2622542137291708,"{37: 1, 3: 1, 74: 1, 8: 5}","[3, 8, 37, 74]",3185371741,Rb1Li1W1O5
LiCdMoO5,mp-727198,0.0,-0.07885953,0.10296814359374995,"{3: 1, 48: 1, 42: 1, 8: 5}","[3, 8, 42, 48]",3185421481,Li1Cd1Mo1O5
LiIO5,mp-1193215,0.2278,-0.21552751,0.2716341260714241,"{3: 1, 53: 1, 8: 5}","[3, 8, 53]",3185531,Li1I1O5
LiMn28O56,mp-775739,1.3066,2.44170754,0.0666926698735395,"{3: 1, 25: 28, 8: 56}","[3, 8, 25]",318562528,Li1Mn28O56
LiReO5,mp-1193645,0.9097,-2.32631671,0.3450470474999907,"{3: 1, 75: 1, 8: 5}","[3, 8, 75]",3185751,Li1Re1O5
LiV24O58,mp-760797,0.0806,1.52537313,0.03701663439760239,"{3: 1, 23: 24, 8: 58}","[3, 8, 23]",318582324,Li1V24O58
LiBi3O5,mp-768997,1.8414000000000001,4.93587299,0.08098030000000112,"{3: 1, 83: 3, 8: 5}","[3, 8, 83]",3185833,Li1Bi3O5
LiV2O5F,mp-765596,2.1494,0.73061262,0.04928637111110756,"{3: 1, 23: 2, 8: 5, 9: 1}","[3, 8, 9, 23]",318591232,Li1V2O5F1
LiV3O5F,mp-752985,1.2201999999999997,3.19132691,0.07732797212500486,"{3: 1, 23: 3, 8: 5, 9: 1}","[3, 8, 9, 23]",318591233,Li1V3O5F1
LiMn3O5F,mp-752468,0.0,2.58952314,0.08384416010416551,"{3: 1, 25: 3, 8: 5, 9: 1}","[3, 8, 9, 25]",318591253,Li1Mn3O5F1
LiMn5O5F,mp-760368,0.0,2.86070636,0.13328618541666692,"{3: 1, 25: 5, 8: 5, 9: 1}","[3, 8, 9, 25]",318591255,Li1Mn5O5F1
LiCo5O5F,mp-764225,0.0,2.83641032,0.06911015562499934,"{3: 1, 27: 5, 8: 5, 9: 1}","[3, 8, 9, 27]",318591275,Li1Co5O5F1
LiNi5O5F,mp-753465,1.7847999999999997,5.15500066,0.059675030416666,"{3: 1, 28: 5, 8: 5, 9: 1}","[3, 8, 9, 28]",318591285,Li1Ni5O5F1
LiV3O5F3,mp-758438,0.9109000000000003,2.04204528,0.06801671708334567,"{3: 1, 23: 3, 8: 5, 9: 3}","[3, 8, 9, 23]",318593233,Li1V3O5F3
LiV4O5F7,mp-754849,0.8641,0.74698676,0.04548677267973211,"{3: 1, 23: 4, 8: 5, 9: 7}","[3, 8, 9, 23]",318597234,Li1V4O5F7
LiMn6O5F7,mp-1235315,0.0,1.86693283,0.09269893373903049,"{3: 1, 25: 6, 8: 5, 9: 7}","[3, 8, 9, 25]",318597256,Li1Mn6O5F7
NaLiV2O6,mp-1221048,3.1324,-1.2353037,0.00037656149999953925,"{11: 1, 3: 1, 23: 2, 8: 6}","[3, 8, 11, 23]",3186111232,Na1Li1V2O6
NaLiZrWO6,mp-1516357,2.2652,1.39252165,0.0980058182500052,"{11: 1, 3: 1, 40: 1, 74: 1, 8: 6}","[3, 8, 11, 40, 74]",3186111401741,Na1Li1Zr1W1O6
NaLiNbBiO6,mp-1519434,0.48560000000000003,1.79821669,0.19224750587499262,"{11: 1, 3: 1, 41: 1, 83: 1, 8: 6}","[3, 8, 11, 41, 83]",3186111411831,Na1Li1Nb1Bi1O6
NaLiCeWO6,mp-1517519,1.8641,1.77278443,0.181752003749998,"{11: 1, 3: 1, 58: 1, 74: 1, 8: 6}","[3, 8, 11, 58, 74]",3186111581741,Na1Li1Ce1W1O6
NaLiTbWO6,mp-1517270,0.0,0.54162955,0.19867795996666615,"{11: 1, 3: 1, 65: 1, 74: 1, 8: 6}","[3, 8, 11, 65, 74]",3186111651741,Na1Li1Tb1W1O6
Na2LiVPO6,mp-760057,1.9371,4.21954586,0.09691628215911763,"{11: 2, 3: 1, 23: 1, 15: 1, 8: 6}","[3, 8, 11, 15, 23]",3186112151231,Na2Li1V1P1O6
K3Na2LiTeO6,mp-559875,2.2125999999999997,1.64185956,0.0,"{19: 3, 11: 2, 3: 1, 52: 1, 8: 6}","[3, 8, 11, 19, 52]",3186112193521,K3Na2Li1Te1O6
Na2Li(NiO2)3,mp-1290445,0.22540000000000004,3.52638759,0.01685856152777987,"{11: 2, 3: 1, 28: 3, 8: 6}","[3, 8, 11, 28]",3186112283,Na2Li1Ni3O6
LiAl(SiO3)2,mp-1222469,4.9935,0.53855438,0.001619721833328036,"{3: 1, 13: 1, 14: 2, 8: 6}","[3, 8, 13, 14]",3186131142,Li1Al1Si2O6
LiAlS3(Cl2O3)2,mp-556310,2.2856,-1.23878867,0.03100972302380889,"{3: 1, 13: 1, 16: 3, 17: 4, 8: 6}","[3, 8, 13, 16, 17]",3186131163174,Li1Al1S3Cl4O6
LiAl(GeO3)2,mp-1020030,3.3829999999999996,1.81495319,0.04249637650000082,"{3: 1, 13: 1, 32: 2, 8: 6}","[3, 8, 13, 32]",3186131322,Li1Al1Ge2O6
LiAl2BrO6,mp-1106116,1.2585000000000002,0.55552997,0.41656412527827147,"{3: 1, 13: 2, 35: 1, 8: 6}","[3, 8, 13, 35]",3186132351,Li1Al2Br1O6
LiLu2Al2O6,mp-1236720,0.0,6.21871031,0.2245651094128771,"{3: 1, 71: 2, 13: 2, 8: 6}","[3, 8, 13, 71]",3186132712,Li1Lu2Al2O6
LiSc(SiO3)2,mp-6099,4.929,1.89106989,0.0028405004166600634,"{3: 1, 21: 1, 14: 2, 8: 6}","[3, 8, 14, 21]",3186142211,Li1Sc1Si2O6
LiTi(SiO3)2,mp-11206,0.0,6.06743393,0.03457746036666087,"{3: 1, 22: 1, 14: 2, 8: 6}","[3, 8, 14, 22]",3186142221,Li1Ti1Si2O6
LiV(SiO3)2,mp-765346,1.9357999999999995,3.56888863,0.0,"{3: 1, 23: 1, 14: 2, 8: 6}","[3, 8, 14, 23]",3186142231,Li1V1Si2O6
LiCr(SiO3)2,mp-510529,1.3167,4.22726722,0.005692387166670088,"{3: 1, 24: 1, 14: 2, 8: 6}","[3, 8, 14, 24]",3186142241,Li1Cr1Si2O6
LiMn(SiO3)2,mp-757866,0.08639999999999981,3.54301582,0.03674767435969439,"{3: 1, 25: 1, 14: 2, 8: 6}","[3, 8, 14, 25]",3186142251,Li1Mn1Si2O6
LiCo(SiO3)2,mp-755994,1.4986,0.36346341,0.059531882333338615,"{3: 1, 27: 1, 14: 2, 8: 6}","[3, 8, 14, 27]",3186142271,Li1Co1Si2O6
LiSi2NiO6,mp-753300,0.9079,0.61268324,0.08262869342777712,"{3: 1, 14: 2, 28: 1, 8: 6}","[3, 8, 14, 28]",3186142281,Li1Si2Ni1O6
LiGa(SiO3)2,mp-6241,4.532,2.26665734,0.04266797700000513,"{3: 1, 31: 1, 14: 2, 8: 6}","[3, 8, 14, 31]",3186142311,Li1Ga1Si2O6
LiIn(SiO3)2,mp-6240,3.6724000000000006,2.62363044,0.011506919416662598,"{3: 1, 49: 1, 14: 2, 8: 6}","[3, 8, 14, 49]",3186142491,Li1In1Si2O6
LiSi2BiO6,mp-759680,3.5566999999999998,3.40109712,0.038052229666663884,"{3: 1, 14: 2, 83: 1, 8: 6}","[3, 8, 14, 83]",3186142831,Li1Si2Bi1O6
K2LiVPO6,mp-761139,4.1095999999999995,3.43210588,0.08393474698386427,"{19: 2, 3: 1, 23: 1, 15: 1, 8: 6}","[3, 8, 15, 19, 23]",3186151192231,K2Li1V1P1O6
SrLiVPO6,mp-759976,1.7166999999999994,2.81641202,0.08653123758333603,"{38: 1, 3: 1, 23: 1, 15: 1, 8: 6}","[3, 8, 15, 23, 38]",3186151231381,Sr1Li1V1P1O6
LiMn2PO6,mp-849221,0.6399000000000001,1.7322231,0.1047447646666626,"{3: 1, 25: 2, 15: 1, 8: 6}","[3, 8, 15, 25]",3186151252,Li1Mn2P1O6
LiBi2PO6,mp-759653,3.094,3.20046434,0.05030467980555642,"{3: 1, 83: 2, 15: 1, 8: 6}","[3, 8, 15, 83]",3186151832,Li1Bi2P1O6
LiUPO6,mp-561098,2.1007000000000002,1.55230474,0.002539481898155671,"{3: 1, 92: 1, 15: 1, 8: 6}","[3, 8, 15, 92]",3186151921,Li1U1P1O6
KLi(PO3)2,mp-559142,5.2914,-0.36858872,0.0,"{19: 1, 3: 1, 15: 2, 8: 6}","[3, 8, 15, 19]",3186152191,K1Li1P2O6
CsLi(PO3)2,mp-560667,5.2843,0.12592772,0.0,"{55: 1, 3: 1, 15: 2, 8: 6}","[3, 8, 15, 55]",3186152551,Cs1Li1P2O6
LiSb3TeClO6,mp-1235589,0.5885,1.97397238,0.20854383208332816,"{3: 1, 51: 3, 52: 1, 17: 1, 8: 6}","[3, 8, 17, 51, 52]",3186171513521,Li1Sb3Te1Cl1O6
K4LiIO6,mp-558483,2.0858,3.25301935,0.0,"{19: 4, 3: 1, 53: 1, 8: 6}","[3, 8, 19, 53]",3186194531,K4Li1I1O6
LiCaPrTeO6,mp-40186,3.1094999999999997,3.13916281,0.017836656583336108,"{3: 1, 20: 1, 59: 1, 52: 1, 8: 6}","[3, 8, 20, 52, 59]",3186201521591,Li1Ca1Pr1Te1O6
LiCa2TeO6,mp-1211115,0.0,2.53954093,0.06108682478333094,"{3: 1, 20: 2, 52: 1, 8: 6}","[3, 8, 20, 52]",3186202521,Li1Ca2Te1O6
LiCa2ReO6,mp-1205694,1.5831,4.17044248,0.09733272906666723,"{3: 1, 20: 2, 75: 1, 8: 6}","[3, 8, 20, 75]",3186202751,Li1Ca2Re1O6
LiCa3RuO6,mp-6342,0.31110000000000015,3.3239542,0.0,"{3: 1, 20: 3, 44: 1, 8: 6}","[3, 8, 20, 44]",3186203441,Li1Ca3Ru1O6
LiCa3OsO6,mp-1191787,0.21689999999999987,3.99836014,0.0,"{3: 1, 20: 3, 76: 1, 8: 6}","[3, 8, 20, 76]",3186203761,Li1Ca3Os1O6
LiSc(GeO3)2,mp-1194740,3.6059000000000005,0.72509703,0.00976572283333521,"{3: 1, 21: 1, 32: 2, 8: 6}","[3, 8, 21, 32]",3186211322,Li1Sc1Ge2O6
LiTiV2O6,mp-849731,1.0968,2.693678,0.07601841700000733,"{3: 1, 22: 1, 23: 2, 8: 6}","[3, 8, 22, 23]",3186221232,Li1Ti1V2O6
LiLa2TiCrO6,mp-1236061,0.21760000000000002,7.3265769,0.29139474522727404,"{3: 1, 57: 2, 22: 1, 24: 1, 8: 6}","[3, 8, 22, 24, 57]",3186221241572,Li1La2Ti1Cr1O6
LiLa2TiO6,mp-1210901,0.0,4.79917167,0.0627550397499963,"{3: 1, 57: 2, 22: 1, 8: 6}","[3, 8, 22, 57]",3186221572,Li1La2Ti1O6
LiTi2VO6,mp-774505,1.4798,3.93923936,0.04360542675000012,"{3: 1, 22: 2, 23: 1, 8: 6}","[3, 8, 22, 23]",3186222231,Li1Ti2V1O6
LiLaTi2O6,mp-767402,1.5183,3.92052073,0.06131438737499728,"{3: 1, 57: 1, 22: 2, 8: 6}","[3, 8, 22, 57]",3186222571,Li1La1Ti2O6
LiNdTi2O6,mp-1105497,3.0900999999999996,2.14753518,0.009516796374995806,"{3: 1, 60: 1, 22: 2, 8: 6}","[3, 8, 22, 60]",3186222601,Li1Nd1Ti2O6
LiTi2BiO6,mp-1120796,2.7097,3.41259596,0.05147170475000262,"{3: 1, 22: 2, 83: 1, 8: 6}","[3, 8, 22, 83]",3186222831,Li1Ti2Bi1O6
LiTi3O6,mp-754937,0.0,5.19122926,0.03325098275000116,"{3: 1, 22: 3, 8: 6}","[3, 8, 22]",3186223,Li1Ti3O6
LiTi4O6,mp-1235275,0.0,6.4311595,0.08532184590909964,"{3: 1, 22: 4, 8: 6}","[3, 8, 22]",3186224,Li1Ti4O6
LiV(GeO3)2,mp-559680,2.1145999999999994,2.25831079,0.01019812556250077,"{3: 1, 23: 1, 32: 2, 8: 6}","[3, 8, 23, 32]",3186231322,Li1V1Ge2O6
LiVMoO6,mp-1222368,2.7403,3.23093056,0.025858555972220643,"{3: 1, 23: 1, 42: 1, 8: 6}","[3, 8, 23, 42]",3186231421,Li1V1Mo1O6
LiLa2VO6,mp-1206458,1.9389000000000003,8.00218066,0.1035072711666647,"{3: 1, 57: 2, 23: 1, 8: 6}","[3, 8, 23, 57]",3186231572,Li1La2V1O6
LiVWO6,mp-754143,2.4436,0.35508595,0.05958731458333233,"{3: 1, 23: 1, 74: 1, 8: 6}","[3, 8, 23, 74]",3186231741,Li1V1W1O6
LiV2CrO6,mp-1280737,1.2069999999999999,3.11199229,0.06356956268750302,"{3: 1, 23: 2, 24: 1, 8: 6}","[3, 8, 23, 24]",3186232241,Li1V2Cr1O6
LiV2CoO6,mp-761801,0.8946000000000001,3.00953257,0.18493130973076521,"{3: 1, 23: 2, 27: 1, 8: 6}","[3, 8, 23, 27]",3186232271,Li1V2Co1O6
LiV2NiO6,mp-1565491,1.5283000000000002,3.25683635,0.059010902000001586,"{3: 1, 23: 2, 28: 1, 8: 6}","[3, 8, 23, 28]",3186232281,Li1V2Ni1O6
LiV3O6,mp-1176549,1.1511,3.34315826,0.0375897752500034,"{3: 1, 23: 3, 8: 6}","[3, 8, 23]",3186233,Li1V3O6
LiCr(CoO3)2,mp-756072,0.0,2.08138176,0.058384809874990395,"{3: 1, 24: 1, 27: 2, 8: 6}","[3, 8, 24, 27]",3186241272,Li1Cr1Co2O6
LiCr(GeO3)2,mp-21549,2.4797000000000002,4.30285323,0.019685340000006768,"{3: 1, 24: 1, 32: 2, 8: 6}","[3, 8, 24, 32]",3186241322,Li1Cr1Ge2O6
Sr2LiZrCrO6,mp-1235588,2.7548,2.88362416,0.17590799795454792,"{38: 2, 3: 1, 40: 1, 24: 1, 8: 6}","[3, 8, 24, 38, 40]",3186241382401,Sr2Li1Zr1Cr1O6
LiMnCr2O6,mp-850948,0.2522,1.67561921,0.1408400992291643,"{3: 1, 25: 1, 24: 2, 8: 6}","[3, 8, 24, 25]",3186242251,Li1Mn1Cr2O6
LiCr2CoO6,mp-763359,0.24509999999999987,1.62290761,0.09260295118055506,"{3: 1, 24: 2, 27: 1, 8: 6}","[3, 8, 24, 27]",3186242271,Li1Cr2Co1O6
LiMn2CoO6,mp-1176665,1.3976000000000002,1.29710152,0.051333666354192786,"{3: 1, 25: 2, 27: 1, 8: 6}","[3, 8, 25, 27]",3186252271,Li1Mn2Co1O6
LiMn2NiO6,mp-25284,1.3418,1.46785319,0.06904401637499724,"{3: 1, 25: 2, 28: 1, 8: 6}","[3, 8, 25, 28]",3186252281,Li1Mn2Ni1O6
LiMn2TeO6,mp-1210977,1.0634000000000006,4.69003262,0.0,"{3: 1, 25: 2, 52: 1, 8: 6}","[3, 8, 25, 52]",3186252521,Li1Mn2Te1O6
LiMn3O6,mp-1176672,0.5949,2.71943898,0.018217079508329626,"{3: 1, 25: 3, 8: 6}","[3, 8, 25]",3186253,Li1Mn3O6
Sr2LiCoWO6,mp-1236582,1.9398,2.75792936,0.16508521892045191,"{38: 2, 3: 1, 27: 1, 74: 1, 8: 6}","[3, 8, 27, 38, 74]",3186271382741,Sr2Li1Co1W1O6
LiCo(PtO2)3,mp-1235119,0.12009999999999987,4.56168717,0.1883201828374661,"{3: 1, 27: 1, 78: 3, 8: 6}","[3, 8, 27, 78]",3186271783,Li1Co1Pt3O6
LiCo2NiO6,mp-774305,0.0,2.06503358,0.040228656208332936,"{3: 1, 27: 2, 28: 1, 8: 6}","[3, 8, 27, 28]",3186272281,Li1Co2Ni1O6
SrLiEu(CoO3)2,mp-1236266,0.0,3.28835009,0.12918271227275646,"{38: 1, 3: 1, 63: 1, 27: 2, 8: 6}","[3, 8, 27, 38, 63]",3186272381631,Sr1Li1Eu1Co2O6
Li(CoO2)3,mp-752635,0.0,2.57261406,0.008999938375006344,"{3: 1, 27: 3, 8: 6}","[3, 8, 27]",3186273,Li1Co3O6
LiTbPrNiO6,mp-1518023,0.6659000000000002,4.00209181,0.31783721959913436,"{3: 1, 65: 1, 59: 1, 28: 1, 8: 6}","[3, 8, 28, 59, 65]",3186281591651,Li1Tb1Pr1Ni1O6
Li(NiO2)3,mp-1222821,0.7590999999999997,2.24742592,0.05606605872916948,"{3: 1, 28: 3, 8: 6}","[3, 8, 28]",3186283,Li1Ni3O6
LiZn2AgWO6,mp-1235459,2.05,1.39333323,0.08447479710227146,"{3: 1, 30: 2, 47: 1, 74: 1, 8: 6}","[3, 8, 30, 47, 74]",3186302471741,Li1Zn2Ag1W1O6
LiGa(SeO3)2,mp-1198930,4.2558,0.22305447,0.0,"{3: 1, 31: 1, 34: 2, 8: 6}","[3, 8, 31, 34]",3186311342,Li1Ga1Se2O6
LiMoAsO6,mp-555962,2.4743,0.50951742,0.021899744305555302,"{3: 1, 42: 1, 33: 1, 8: 6}","[3, 8, 33, 42]",3186331421,Li1Mo1As1O6
LiUAsO6,mp-558943,2.2759,0.71140516,0.0,"{3: 1, 92: 1, 33: 1, 8: 6}","[3, 8, 33, 92]",3186331921,Li1U1As1O6
Li(SeO3)2,mp-726416,0.2950999999999999,-1.15824074,0.11720635499999865,"{3: 1, 34: 2, 8: 6}","[3, 8, 34]",3186342,Li1Se2O6
Rb2Li(OsO3)2,mp-1235053,0.09330000000000016,3.37863664,0.05570844283636145,"{37: 2, 3: 1, 76: 2, 8: 6}","[3, 8, 37, 76]",3186372762,Rb2Li1Os2O6
SrLiSnSbO6,mp-1522292,0.11399999999999988,3.97832407,0.18307492350000132,"{38: 1, 3: 1, 50: 1, 51: 1, 8: 6}","[3, 8, 38, 50, 51]",3186381501511,Sr1Li1Sn1Sb1O6
SrLiPrTeO6,mp-1218250,3.2928,2.93087356,0.006126915916664366,"{38: 1, 3: 1, 59: 1, 52: 1, 8: 6}","[3, 8, 38, 52, 59]",3186381521591,Sr1Li1Pr1Te1O6
SrLiEuTeO6,mp-676932,2.8364999999999996,2.96687962,0.053563878968748924,"{38: 1, 3: 1, 63: 1, 52: 1, 8: 6}","[3, 8, 38, 52, 63]",3186381521631,Sr1Li1Eu1Te1O6
SrLiU2O6,mp-1235318,0.0,7.46614162,0.20660918442855802,"{38: 1, 3: 1, 92: 2, 8: 6}","[3, 8, 38, 92]",3186381922,Sr1Li1U2O6
Sr2LiCdWO6,mp-1235784,1.7062,2.29160239,0.15502526954545282,"{38: 2, 3: 1, 48: 1, 74: 1, 8: 6}","[3, 8, 38, 48, 74]",3186382481741,Sr2Li1Cd1W1O6
Sr2LiTeO6,mp-1208808,0.0,2.76651913,0.02066268951249839,"{38: 2, 3: 1, 52: 1, 8: 6}","[3, 8, 38, 52]",3186382521,Sr2Li1Te1O6
Sr2LiLaTaO6,mp-1235205,0.0,5.25612365,0.19305166741536173,"{38: 2, 3: 1, 57: 1, 73: 1, 8: 6}","[3, 8, 38, 57, 73]",3186382571731,Sr2Li1La1Ta1O6
Sr2LiReO6,mp-1080625,1.8423999999999998,1.90945298,0.0,"{38: 2, 3: 1, 75: 1, 8: 6}","[3, 8, 38, 75]",3186382751,Sr2Li1Re1O6
Sr2LiOsO6,mp-1205568,0.0,3.43052224,0.0,"{38: 2, 3: 1, 76: 1, 8: 6}","[3, 8, 38, 76]",3186382761,Sr2Li1Os1O6
Sr3LiNbO6,mp-1190404,3.2076,1.54755229,0.0,"{38: 3, 3: 1, 41: 1, 8: 6}","[3, 8, 38, 41]",3186383411,Sr3Li1Nb1O6
Sr3LiRuO6,mp-6721,0.399,2.86924183,0.0,"{38: 3, 3: 1, 44: 1, 8: 6}","[3, 8, 38, 44]",3186383441,Sr3Li1Ru1O6
Sr3LiSbO6,mp-1190151,3.1732,2.55728506,0.0,"{38: 3, 3: 1, 51: 1, 8: 6}","[3, 8, 38, 51]",3186383511,Sr3Li1Sb1O6
Sr3LiTaO6,mp-1190486,3.7909999999999995,1.75114681,0.0,"{38: 3, 3: 1, 73: 1, 8: 6}","[3, 8, 38, 73]",3186383731,Sr3Li1Ta1O6
Sr3LiIrO6,mp-6071,0.0,3.15873416,0.0,"{38: 3, 3: 1, 77: 1, 8: 6}","[3, 8, 38, 77]",3186383771,Sr3Li1Ir1O6
Sr3LiBiO6,mp-1218428,2.1229,3.97571038,0.0,"{38: 3, 3: 1, 83: 1, 8: 6}","[3, 8, 38, 83]",3186383831,Sr3Li1Bi1O6
LiTaNb(AgO3)2,mp-1236593,0.0,4.38147103,0.30028826225108407,"{3: 1, 73: 1, 41: 1, 47: 2, 8: 6}","[3, 8, 41, 47, 73]",3186411472731,Li1Ta1Nb1Ag2O6
LiNbWO6,mp-1222358,2.6841999999999997,3.40270548,0.013673802361109821,"{3: 1, 41: 1, 74: 1, 8: 6}","[3, 8, 41, 74]",3186411741,Li1Nb1W1O6
LiUNbO6,mp-17807,1.7534000000000003,1.44061624,0.0010675455555411162,"{3: 1, 92: 1, 41: 1, 8: 6}","[3, 8, 41, 92]",3186411921,Li1U1Nb1O6
LiMoIO6,mp-558917,2.2334,1.18308338,0.0,"{3: 1, 42: 1, 53: 1, 8: 6}","[3, 8, 42, 53]",3186421531,Li1Mo1I1O6
LiLa2MoO6,mp-19377,1.5043000000000006,5.95947631,0.0,"{3: 1, 57: 2, 42: 1, 8: 6}","[3, 8, 42, 57]",3186421572,Li1La2Mo1O6
Li(MoO2)3,mp-1212055,0.0,-4.77441409,2.374700939874999,"{3: 1, 42: 3, 8: 6}","[3, 8, 42]",3186423,Li1Mo3O6
LiLa2RuO6,mp-6644,0.1880999999999995,5.95357846,0.0,"{3: 1, 57: 2, 44: 1, 8: 6}","[3, 8, 44, 57]",3186441572,Li1La2Ru1O6
LiPr2RuO6,mp-1211106,0.3014999999999999,3.69885047,0.0,"{3: 1, 59: 2, 44: 1, 8: 6}","[3, 8, 44, 59]",3186441592,Li1Pr2Ru1O6
LiNd2RuO6,mp-1211080,0.4246000000000003,3.86939738,0.0,"{3: 1, 60: 2, 44: 1, 8: 6}","[3, 8, 44, 60]",3186441602,Li1Nd2Ru1O6
LiSm2RuO6,mp-1210954,0.39990000000000014,3.73743224,0.0,"{3: 1, 62: 2, 44: 1, 8: 6}","[3, 8, 44, 62]",3186441622,Li1Sm2Ru1O6
LiEu2RuO6,mp-1211562,0.0,3.22296478,0.08667331789582455,"{3: 1, 63: 2, 44: 1, 8: 6}","[3, 8, 44, 63]",3186441632,Li1Eu2Ru1O6
LiGd2RuO6,mp-1211045,0.16369999999999996,3.33414411,0.02371543458333214,"{3: 1, 64: 2, 44: 1, 8: 6}","[3, 8, 44, 64]",3186441642,Li1Gd2Ru1O6
LiTb2RuO6,mp-1210924,0.3348,3.71929728,0.0,"{3: 1, 65: 2, 44: 1, 8: 6}","[3, 8, 44, 65]",3186441652,Li1Tb2Ru1O6
LiPd5O6,mp-1211133,0.0,3.58058303,0.2842939572916716,"{3: 1, 46: 5, 8: 6}","[3, 8, 46]",3186465,Li1Pd5O6
LiAg3(IrO3)2,mp-1222467,0.0,3.24975524,0.011738315833334845,"{3: 1, 47: 3, 77: 2, 8: 6}","[3, 8, 47, 77]",3186473772,Li1Ag3Ir2O6