formula,material_id,band_gap,efermi,energy_above_hull,comp_atoms,sorted_keys_comp_atoms,comp_number,new_formula
LiHoPd2,mp-973831,0.0,3.32927064,0.028434986500002424,"{3: 1, 67: 1, 46: 2}","[3, 46, 67]",31462671,Li1Ho1Pd2
LiTmPd2,mp-867364,0.0,3.50051419,0.02315782912499742,"{3: 1, 69: 1, 46: 2}","[3, 46, 69]",31462691,Li1Tm1Pd2
LiLuPd2,mp-977374,0.0,3.30945898,0.009879410749999096,"{3: 1, 71: 1, 46: 2}","[3, 46, 71]",31462711,Li1Lu1Pd2
LiHfPd2,mp-867119,0.0,4.40932657,0.006681774583334743,"{3: 1, 72: 1, 46: 2}","[3, 46, 72]",31462721,Li1Hf1Pd2
LiPd2Au,mp-1185262,0.00019999999999997797,3.04969992,0.025279509999997174,"{3: 1, 46: 2, 79: 1}","[3, 46, 79]",31462791,Li1Pd2Au1
LiHgPd2,mp-862737,0.0,3.2287356,0.0,"{3: 1, 80: 1, 46: 2}","[3, 46, 80]",31462801,Li1Hg1Pd2
LiTlPd2,mp-12716,0.0,5.0776001,0.0,"{3: 1, 81: 1, 46: 2}","[3, 46, 81]",31462811,Li1Tl1Pd2
LiPd2Pb,mp-30763,0.0,5.79446016,0.0,"{3: 1, 46: 2, 82: 1}","[3, 46, 82]",31462821,Li1Pd2Pb1
LiBiPd2,mp-861905,0.0,5.2557397,0.0,"{3: 1, 83: 1, 46: 2}","[3, 46, 83]",31462831,Li1Bi1Pd2
LiPd3,mp-861936,0.0,3.47483821,0.0,"{3: 1, 46: 3}","[3, 46]",31463,Li1Pd3
LiPd7,mp-1079855,0.0,3.97703391,0.0,"{3: 1, 46: 7}","[3, 46]",31467,Li1Pd7
LiAg,mp-2426,0.0,2.06785601,0.0,"{3: 1, 47: 1}","[3, 47]",31471,Li1Ag1
LiCd2Ag,mp-867204,0.0,2.47731039,0.0,"{3: 1, 48: 2, 47: 1}","[3, 47, 48]",31471482,Li1Cd2Ag1
LiIn2Ag,mp-1185379,0.0,6.01495034,0.01646954250000121,"{3: 1, 49: 2, 47: 1}","[3, 47, 49]",31471492,Li1In2Ag1
LiAgTe,mp-962069,0.0,3.4468773,0.1261588133333329,"{3: 1, 47: 1, 52: 1}","[3, 47, 52]",31471521,Li1Ag1Te1
LiAgAu2,mp-1093804,1.7120999999999995,-3.57239721,1.1468225495833302,"{3: 1, 47: 1, 79: 2}","[3, 47, 79]",31471792,Li1Ag1Au2
LiAgHg2,mp-1096330,1.0433999999999997,-2.26075416,0.6642486195833328,"{3: 1, 47: 1, 80: 2}","[3, 47, 80]",31471802,Li1Ag1Hg2
LiAgPb2,mp-1096155,0.14320000000000022,-3.02830761,1.3740082908333344,"{3: 1, 47: 1, 82: 2}","[3, 47, 82]",31471822,Li1Ag1Pb2
Li14Ce5Si11N19O7F2,mp-1224471,0.0,6.822116,0.04460871254309584,"{3: 14, 58: 5, 14: 11, 7: 19, 8: 7, 9: 2}","[3, 7, 8, 9, 14, 58]",31471987921411585,Li14Ce5Si11N19O7F2
Li14Nd5Si11N19O7F2,mp-1223420,2.7504,4.23845877,0.014714271867815043,"{3: 14, 60: 5, 14: 11, 7: 19, 8: 7, 9: 2}","[3, 7, 8, 9, 14, 60]",31471987921411605,Li14Nd5Si11N19O7F2
LiCdAg2,mp-867872,0.0,2.40326082,0.01247786624999847,"{3: 1, 48: 1, 47: 2}","[3, 47, 48]",31472481,Li1Cd1Ag2
LiInAg2,mp-567787,0.0,5.22724274,0.0,"{3: 1, 49: 1, 47: 2}","[3, 47, 49]",31472491,Li1In1Ag2
LiAg2Sn,mp-2927,0.0,5.65536966,0.0,"{3: 1, 47: 2, 50: 1}","[3, 47, 50]",31472501,Li1Ag2Sn1
LiAg2Sb,mp-1185309,0.0,4.98379518,0.006671043749999939,"{3: 1, 47: 2, 51: 1}","[3, 47, 51]",31472511,Li1Ag2Sb1
LiAg2Au,mp-1095903,0.4872000000000001,-3.92833103,1.3875341466666669,"{3: 1, 47: 2, 79: 1}","[3, 47, 79]",31472791,Li1Ag2Au1
LiAg2Hg,mp-1093677,0.45379999999999976,-3.62817222,1.0125724191666663,"{3: 1, 47: 2, 80: 1}","[3, 47, 80]",31472801,Li1Ag2Hg1
LiTlAg2,mp-1096099,0.9163000000000001,-2.34290866,1.0580245319444437,"{3: 1, 81: 1, 47: 2}","[3, 47, 81]",31472811,Li1Tl1Ag2
LiAg2Pb,mp-974642,0.0,4.85000658,0.01602720666666624,"{3: 1, 47: 2, 82: 1}","[3, 47, 82]",31472821,Li1Ag2Pb1
LiAg2Bi,mp-1095962,0.4336000000000002,-3.42842381,1.388613486666667,"{3: 1, 47: 2, 83: 1}","[3, 47, 83]",31472831,Li1Ag2Bi1
LiAg3,mp-862716,0.0,2.16491554,0.0,"{3: 1, 47: 3}","[3, 47]",31473,Li1Ag3
Li14P2(N2O)3,mp-1020011,3.6017999999999994,2.46112659,0.0,"{3: 14, 15: 2, 7: 6, 8: 3}","[3, 7, 8, 15]",3147683152,Li14P2N6O3
Li14Cr2N8O,mp-542789,2.1601,1.17466392,0.17006794359999944,"{3: 14, 24: 2, 7: 8, 8: 1}","[3, 7, 8, 24]",3147881242,Li14Cr2N8O1
LiCd,mp-1437,0.0,1.95506105,0.0,"{3: 1, 48: 1}","[3, 48]",31481,Li1Cd1
K2Li14Zr3O14,mp-17208,4.2801,0.40806477,0.0,"{19: 2, 3: 14, 40: 3, 8: 14}","[3, 8, 19, 40]",314814192403,K2Li14Zr3O14
K2Li14Pb3O14,mp-504806,1.9157000000000002,1.09138998,0.0,"{19: 2, 3: 14, 82: 3, 8: 14}","[3, 8, 19, 82]",314814192823,K2Li14Pb3O14
Rb2Li14Pr3O14,mp-17971,0.0,0.0916726,0.06088848524621149,"{37: 2, 3: 14, 59: 3, 8: 14}","[3, 8, 37, 59]",314814372593,Rb2Li14Pr3O14
Rb2Li14Tb3O14,mp-556675,0.0,0.00518067,0.04250556636363623,"{37: 2, 3: 14, 65: 3, 8: 14}","[3, 8, 37, 65]",314814372653,Rb2Li14Tb3O14
Rb2Li14Pb3O14,mp-504810,1.9342000000000001,1.12153959,0.0,"{37: 2, 3: 14, 82: 3, 8: 14}","[3, 8, 37, 82]",314814372823,Rb2Li14Pb3O14
Cs2Li14Tb3O14,mp-8711,0.0,0.37691002,0.044880419999999255,"{55: 2, 3: 14, 65: 3, 8: 14}","[3, 8, 55, 65]",314814552653,Cs2Li14Tb3O14
LiCdIn2,mp-1097506,0.10239999999999982,-2.29477447,1.140007090500001,"{3: 1, 48: 1, 49: 2}","[3, 48, 49]",31481492,Li1Cd1In2
LiCdSb,mp-1100425,0.0,3.52667838,0.11245594090909128,"{3: 1, 48: 1, 51: 1}","[3, 48, 51]",31481511,Li1Cd1Sb1
LiLa2Cd,mp-1096476,0.0,-1.95163469,2.2661423875,"{3: 1, 57: 2, 48: 1}","[3, 48, 57]",31481572,Li1La2Cd1
LiEu2Cd,mp-1185341,0.0,1.76061355,0.010425947500003474,"{3: 1, 63: 2, 48: 1}","[3, 48, 63]",31481632,Li1Eu2Cd1
LiCdAu2,mp-867877,0.0,3.3502544,0.0,"{3: 1, 48: 1, 79: 2}","[3, 48, 79]",31481792,Li1Cd1Au2
LiCdHg2,mp-1185207,0.0,2.46120742,0.0,"{3: 1, 48: 1, 80: 2}","[3, 48, 80]",31481802,Li1Cd1Hg2
LiCd2In,mp-1097218,0.0,-2.39965991,1.0244028015000008,"{3: 1, 48: 2, 49: 1}","[3, 48, 49]",31482491,Li1Cd2In1
LiCd2Ir,mp-1093818,0.10570000000000013,-3.36645475,1.7995322766666675,"{3: 1, 48: 2, 77: 1}","[3, 48, 77]",31482771,Li1Cd2Ir1
LiCd2Pt,mp-867206,0.0,3.25903569,0.0,"{3: 1, 48: 2, 78: 1}","[3, 48, 78]",31482781,Li1Cd2Pt1
LiCd2Au,mp-867160,0.0,2.96117996,0.0,"{3: 1, 48: 2, 79: 1}","[3, 48, 79]",31482791,Li1Cd2Au1
LiCd2Hg,mp-1095776,0.08939999999999992,-2.15595368,0.7316503399999981,"{3: 1, 48: 2, 80: 1}","[3, 48, 80]",31482801,Li1Cd2Hg1
Li14MgCo13O28,mp-769537,0.0,2.93714698,0.00787649758928577,"{3: 14, 12: 1, 27: 13, 8: 28}","[3, 8, 12, 27]",3148281212713,Li14Mg1Co13O28
Li14Co13O28,mp-777836,0.0,3.91533895,0.016374516795455207,"{3: 14, 27: 13, 8: 28}","[3, 8, 27]",3148282713,Li14Co13O28
LiCd3,mp-865612,0.0,2.21851013,0.0,"{3: 1, 48: 3}","[3, 48]",31483,Li1Cd3
Li14W7O32,mp-1198827,0.0,-2.50518286,0.5347847520754758,"{3: 14, 74: 7, 8: 32}","[3, 8, 74]",314832747,Li14W7O32
Li14Ti21O48,mp-530600,0.0,4.10546229,0.014039973885543233,"{3: 14, 22: 21, 8: 48}","[3, 8, 22]",3148482221,Li14Ti21O48
Li14V9(P2O7)8,mp-765044,2.5301000000000005,5.99206449,0.047109551746697065,"{3: 14, 23: 9, 15: 16, 8: 56}","[3, 8, 15, 23]",3148561516239,Li14V9P16O56
Li14Cr9(P2O7)8,mp-759443,2.7124,5.48565063,0.054106570526325726,"{3: 14, 24: 9, 15: 16, 8: 56}","[3, 8, 15, 24]",3148561516249,Li14Cr9P16O56
Li14Mn9(P2O7)8,mp-705402,3.7787000000000006,1.73024988,0.03577726294736472,"{3: 14, 25: 9, 15: 16, 8: 56}","[3, 8, 15, 25]",3148561516259,Li14Mn9P16O56
Li14Co9(P2O7)8,mp-504263,2.1437,3.79282389,0.04605487606140457,"{3: 14, 27: 9, 15: 16, 8: 56}","[3, 8, 15, 27]",3148561516279,Li14Co9P16O56
Li14Ni9(P2O7)8,mp-540237,3.9337,1.5190741,0.023449304263148285,"{3: 14, 28: 9, 15: 16, 8: 56}","[3, 8, 15, 28]",3148561516289,Li14Ni9P16O56
Li14Sn9(P2O7)8,mp-863364,0.0,2.7165638,0.06913969365790162,"{3: 14, 50: 9, 15: 16, 8: 56}","[3, 8, 15, 50]",3148561516509,Li14Sn9P16O56
Li14Mn2O9,mp-770530,2.5938999999999997,0.93107791,0.047396806000001845,"{3: 14, 25: 2, 8: 9}","[3, 8, 25]",31489252,Li14Mn2O9
LiIn,mp-22460,0.0,5.63652914,0.0,"{3: 1, 49: 1}","[3, 49]",31491,Li1In1
LiInSn,mp-1222280,0.20199999999999996,5.27343255,0.008003621111112746,"{3: 1, 49: 1, 50: 1}","[3, 49, 50]",31491501,Li1In1Sn1
LiInTe2,mp-20782,1.3847,2.66456219,0.0,"{3: 1, 49: 1, 52: 2}","[3, 49, 52]",31491522,Li1In1Te2
LiInI4,mp-541001,2.2465,0.87763143,0.0,"{3: 1, 49: 1, 53: 4}","[3, 49, 53]",31491534,Li1In1I4
LiLa2In,mp-1093690,0.2609999999999999,-1.84038279,2.3210672499999987,"{3: 1, 57: 2, 49: 1}","[3, 49, 57]",31491572,Li1La2In1
LiGd2In,mp-1185362,0.0,3.68307495,0.02016736624999993,"{3: 1, 64: 2, 49: 1}","[3, 49, 64]",31491642,Li1Gd2In1
LiDy2In,mp-1185324,0.0,3.80304942,0.014698481249997286,"{3: 1, 66: 2, 49: 1}","[3, 49, 66]",31491662,Li1Dy2In1
LiHo2In,mp-1185328,0.0,3.78281261,0.013750826875001287,"{3: 1, 67: 2, 49: 1}","[3, 49, 67]",31491672,Li1Ho2In1
LiEr2In,mp-976743,0.0,3.80038839,0.014228818958333278,"{3: 1, 68: 2, 49: 1}","[3, 49, 68]",31491682,Li1Er2In1
LiTm2In,mp-976339,0.0,3.79614077,0.014979393750000014,"{3: 1, 69: 2, 49: 1}","[3, 49, 69]",31491692,Li1Tm2In1
LiLu2In,mp-976595,0.0,3.89111938,0.02450141230769276,"{3: 1, 71: 2, 49: 1}","[3, 49, 71]",31491712,Li1Lu2In1
LiInIr,mp-1207231,0.0,6.98729179,0.12655202333333548,"{3: 1, 49: 1, 77: 1}","[3, 49, 77]",31491771,Li1In1Ir1
LiInPt,mp-1206734,0.0,6.6169378,0.03249917777777611,"{3: 1, 49: 1, 78: 1}","[3, 49, 78]",31491781,Li1In1Pt1
LiInPt2,mp-862774,0.0,6.56376891,0.0,"{3: 1, 49: 1, 78: 2}","[3, 49, 78]",31491782,Li1In1Pt2
LiInAu2,mp-867287,0.0,5.84558934,0.0,"{3: 1, 49: 1, 79: 2}","[3, 49, 79]",31491792,Li1In1Au2
LiInHg2,mp-1185367,0.0,3.77057284,0.0,"{3: 1, 49: 1, 80: 2}","[3, 49, 80]",31491802,Li1In1Hg2
LiIn2,mp-1210993,0.0,5.01164414,0.19447435083333353,"{3: 1, 49: 2}","[3, 49]",31492,Li1In2
Li14Mn5F24,mp-764848,3.5262,0.04035327,0.07314323069767426,"{3: 14, 25: 5, 9: 24}","[3, 9, 25]",314924255,Li14Mn5F24
LiLaIn2,mp-1095913,0.0,-2.13649222,1.908795448124998,"{3: 1, 57: 1, 49: 2}","[3, 49, 57]",31492571,Li1La1In2
LiNdIn2,mp-1185415,0.0,5.2457342,0.0360087140625005,"{3: 1, 60: 1, 49: 2}","[3, 49, 60]",31492601,Li1Nd1In2
LiPmIn2,mp-1185484,0.0,5.27263819,0.0,"{3: 1, 61: 1, 49: 2}","[3, 49, 61]",31492611,Li1Pm1In2
LiSmIn2,mp-1185481,0.0,5.26391121,0.029645283749999862,"{3: 1, 62: 1, 49: 2}","[3, 49, 62]",31492621,Li1Sm1In2
LiGdIn2,mp-1185472,0.0,4.92179805,1.2501845368749969,"{3: 1, 64: 1, 49: 2}","[3, 49, 64]",31492641,Li1Gd1In2
LiTbIn2,mp-1185445,0.0,5.40068012,0.02492007758928594,"{3: 1, 65: 1, 49: 2}","[3, 49, 65]",31492651,Li1Tb1In2
LiDyIn2,mp-974059,0.0,5.44504175,0.02694934499999846,"{3: 1, 66: 1, 49: 2}","[3, 49, 66]",31492661,Li1Dy1In2
LiHoIn2,mp-862676,0.0,5.34452216,0.009626300312499225,"{3: 1, 67: 1, 49: 2}","[3, 49, 67]",31492671,Li1Ho1In2
LiErIn2,mp-862619,0.0,5.38604152,0.017951895312499744,"{3: 1, 68: 1, 49: 2}","[3, 49, 68]",31492681,Li1Er1In2
LiTmIn2,mp-861665,0.0,5.42624349,0.001957205416662333,"{3: 1, 69: 1, 49: 2}","[3, 49, 69]",31492691,Li1Tm1In2
LiLuIn2,mp-1185369,0.0,5.45672496,0.008265822499996744,"{3: 1, 71: 1, 49: 2}","[3, 49, 71]",31492711,Li1Lu1In2
LiIn2Ir,mp-31208,0.0,8.50628893,0.0,"{3: 1, 49: 2, 77: 1}","[3, 49, 77]",31492771,Li1In2Ir1
LiIn2Pt,mp-20265,0.0,8.36803623,0.0,"{3: 1, 49: 2, 78: 1}","[3, 49, 78]",31492781,Li1In2Pt1
LiIn3,mp-863027,0.0,5.76641608,0.0,"{3: 1, 49: 3}","[3, 49]",31493,Li1In3
LiSn,mp-569073,0.0,5.50113306,0.0,"{3: 1, 50: 1}","[3, 50]",31501,Li1Sn1
LiSnSb,mp-1192296,0.2970999999999995,5.44720374,0.10886257944444377,"{3: 1, 50: 1, 51: 1}","[3, 50, 51]",31501511,Li1Sn1Sb1
LiCeSn,mp-1006328,0.0,6.00934685,0.0,"{3: 1, 58: 1, 50: 1}","[3, 50, 58]",31501581,Li1Ce1Sn1
LiPrSn,mp-1191159,0.005000000000000782,4.14458707,0.0,"{3: 1, 59: 1, 50: 1}","[3, 50, 59]",31501591,Li1Pr1Sn1
LiNdSn,mp-1191015,0.0029000000000003467,4.14982137,0.0,"{3: 1, 60: 1, 50: 1}","[3, 50, 60]",31501601,Li1Nd1Sn1
LiPm2Sn,mp-1185399,0.0,4.28302332,0.0,"{3: 1, 61: 2, 50: 1}","[3, 50, 61]",31501612,Li1Pm2Sn1
LiSmSn,mp-1190768,0.0,4.22208564,0.0,"{3: 1, 62: 1, 50: 1}","[3, 50, 62]",31501621,Li1Sm1Sn1
LiGdSn,mp-1191877,0.0,4.23559447,0.0,"{3: 1, 64: 1, 50: 1}","[3, 50, 64]",31501641,Li1Gd1Sn1
LiDySn,mp-1192210,0.004400000000000404,4.45235774,0.0,"{3: 1, 66: 1, 50: 1}","[3, 50, 66]",31501661,Li1Dy1Sn1
LiHoSn,mp-1192002,0.00649999999999995,4.42032684,0.0,"{3: 1, 67: 1, 50: 1}","[3, 50, 67]",31501671,Li1Ho1Sn1
LiErSn,mp-984635,0.0,4.48833626,0.0,"{3: 1, 68: 1, 50: 1}","[3, 50, 68]",31501681,Li1Er1Sn1
LiTmSn,mp-18189,0.0,4.52448033,0.0,"{3: 1, 69: 1, 50: 1}","[3, 50, 69]",31501691,Li1Tm1Sn1
LiLuSn,mp-1190624,0.02799999999999958,4.52832891,0.0,"{3: 1, 71: 1, 50: 1}","[3, 50, 71]",31501711,Li1Lu1Sn1
LiSnIr2,mp-864768,0.0,7.97433794,0.002993191136360096,"{3: 1, 50: 1, 77: 2}","[3, 50, 77]",31501772,Li1Sn1Ir2
LiSnPt2,mp-1185434,0.0,7.38444741,0.0013596499999994904,"{3: 1, 50: 1, 78: 2}","[3, 50, 78]",31501782,Li1Sn1Pt2
LiSnAu,mp-11977,0.0,5.91927371,0.0,"{3: 1, 50: 1, 79: 1}","[3, 50, 79]",31501791,Li1Sn1Au1
LiSnAu2,mp-865710,0.0,5.62380857,0.0,"{3: 1, 50: 1, 79: 2}","[3, 50, 79]",31501792,Li1Sn1Au2
LiSnHg2,mp-1096075,0.17940000000000023,-3.15547626,0.8637172181249978,"{3: 1, 50: 1, 80: 2}","[3, 50, 80]",31501802,Li1Sn1Hg2
LiAc2Sn,mp-1185292,0.0,5.94002699,0.008771794999999472,"{3: 1, 89: 2, 50: 1}","[3, 50, 89]",31501892,Li1Ac2Sn1
LiLaSn2,mp-1079607,0.0,7.3749029,0.0,"{3: 1, 57: 1, 50: 2}","[3, 50, 57]",31502571,Li1La1Sn2
LiCeSn2,mp-20754,0.0,7.05014893,0.03122706239329176,"{3: 1, 58: 1, 50: 2}","[3, 50, 58]",31502581,Li1Ce1Sn2
LiPrSn2,mp-1078879,0.0,6.05464073,0.017224149802632205,"{3: 1, 59: 1, 50: 2}","[3, 50, 59]",31502591,Li1Pr1Sn2
LiNdSn2,mp-974887,0.0,5.97184457,0.02390986725000399,"{3: 1, 60: 1, 50: 2}","[3, 50, 60]",31502601,Li1Nd1Sn2
LiSmSn2,mp-1080712,0.0,6.07798284,0.050213062302630895,"{3: 1, 62: 1, 50: 2}","[3, 50, 62]",31502621,Li1Sm1Sn2
LiTbSn2,mp-1078515,0.0,6.30701408,0.09948100729166587,"{3: 1, 65: 1, 50: 2}","[3, 50, 65]",31502651,Li1Tb1Sn2
LiDySn2,mp-1091364,0.0,6.2624145,0.12031650601562394,"{3: 1, 66: 1, 50: 2}","[3, 50, 66]",31502661,Li1Dy1Sn2
LiHoSn2,mp-1080784,0.0,6.24492548,0.13780752000000085,"{3: 1, 67: 1, 50: 2}","[3, 50, 67]",31502671,Li1Ho1Sn2
LiErSn2,mp-1080658,0.0,6.2469114,0.15015160312499987,"{3: 1, 68: 1, 50: 2}","[3, 50, 68]",31502681,Li1Er1Sn2
LiTmSn2,mp-1080066,0.0,6.26369728,0.16756315910714292,"{3: 1, 69: 1, 50: 2}","[3, 50, 69]",31502691,Li1Tm1Sn2
LiLuSn2,mp-1078650,0.0,6.25692739,0.18845087214285483,"{3: 1, 71: 1, 50: 2}","[3, 50, 71]",31502711,Li1Lu1Sn2
LiSn2Ir,mp-1096624,0.25970000000000004,-1.64327187,2.135148857499997,"{3: 1, 50: 2, 77: 1}","[3, 50, 77]",31502771,Li1Sn2Ir1
LiSn3,mp-1185461,0.0,6.65354053,0.03375891249999974,"{3: 1, 50: 3}","[3, 50]",31503,Li1Sn3
LiTb5Sn3,mp-1180557,0.0,4.86880144,0.06186755351851936,"{3: 1, 65: 5, 50: 3}","[3, 50, 65]",31503655,Li1Tb5Sn3
LiSn4Ir,mp-21894,0.0,8.30004,0.0,"{3: 1, 50: 4, 77: 1}","[3, 50, 77]",31504771,Li1Sn4Ir1
LiSn4Au3,mp-31301,0.0,6.29909086,0.0,"{3: 1, 50: 4, 79: 3}","[3, 50, 79]",31504793,Li1Sn4Au3
LiB,mp-1001835,0.0,3.60295514,0.0,"{3: 1, 5: 1}","[3, 5]",3151,Li1B1
LiB11,mp-1180507,0.0,6.69553348,0.20839703847222246,"{3: 1, 5: 11}","[3, 5]",31511,Li1B11
LiMg14B,mp-1026806,0.0,3.35214526,0.19731206482638886,"{3: 1, 12: 14, 5: 1}","[3, 5, 12]",31511214,Li1Mg14B1
LiMg6B,mp-1021306,0.0,3.36738739,0.3807109525694443,"{3: 1, 12: 6, 5: 1}","[3, 5, 12]",3151126,Li1Mg6B1
LiSiB,mp-1100392,0.28529999999999944,6.87877015,0.04932601732974806,"{3: 1, 14: 1, 5: 1}","[3, 5, 14]",3151141,Li1Si1B1
LiSi2B,mp-1198027,1.1667999999999994,7.41429677,0.0,"{3: 1, 14: 2, 5: 1}","[3, 5, 14]",3151142,Li1Si2B1
LiSbTe2,mp-1222285,0.1759000000000004,4.78521843,0.07218633375000127,"{3: 1, 51: 1, 52: 2}","[3, 51, 52]",31511522,Li1Sb1Te2
Cs2LiSbI6,mp-1112673,1.7376,1.30708333,0.0355398270000018,"{55: 2, 3: 1, 51: 1, 53: 6}","[3, 51, 53, 55]",31511536552,Cs2Li1Sb1I6
LiEuSb,mp-1095425,0.0,4.12280365,0.0,"{3: 1, 63: 1, 51: 1}","[3, 51, 63]",31511631,Li1Eu1Sb1
SrLiBS3,mp-557962,2.3921999999999994,2.18920777,0.0008485134722171495,"{38: 1, 3: 1, 5: 1, 16: 3}","[3, 5, 16, 38]",3151163381,Sr1Li1B1S3
LiSbPt2,mp-1096520,0.5508000000000002,-3.6076615,2.0889810737499985,"{3: 1, 51: 1, 78: 2}","[3, 51, 78]",31511782,Li1Sb1Pt2
LiSbAu,mp-12564,0.0,4.88820579,0.039891762083339444,"{3: 1, 51: 1, 79: 1}","[3, 51, 79]",31511791,Li1Sb1Au1
LiSbAu2,mp-1096693,1.0113000000000003,-3.37473937,1.2209978862500037,"{3: 1, 51: 1, 79: 2}","[3, 51, 79]",31511792,Li1Sb1Au2
LiB12PC,mp-1222458,2.4016,7.56708557,0.0,"{3: 1, 5: 12, 15: 1, 6: 1}","[3, 5, 6, 15]",3151261151,Li1B12P1C1
LiSb3,mp-1185416,0.0,6.74058946,0.04740753895833549,"{3: 1, 51: 3}","[3, 51]",31513,Li1Sb3
LiBBr2,mp-631545,0.4841,1.28419018,1.679203853472222,"{3: 1, 5: 1, 35: 2}","[3, 5, 35]",3151352,Li1B1Br2
LiB13C2,mp-638070,2.7108,6.99972586,0.0,"{3: 1, 5: 13, 6: 2}","[3, 5, 6]",3151362,Li1B13C2
LiAlB14,mp-8204,1.2527,5.8407734,0.0,"{3: 1, 13: 1, 5: 14}","[3, 5, 13]",31514131,Li1Al1B14
Li15Si4,mp-569849,0.0,1.41511986,0.0,"{3: 15, 14: 4}","[3, 14]",315144,Li15Si4
LiSnB,mp-1100396,0.41500000000000004,7.43951428,0.34614873888889,"{3: 1, 50: 1, 5: 1}","[3, 5, 50]",3151501,Li1Sn1B1
LiBC,mp-9244,0.8471000000000002,4.2961937,0.0,"{3: 1, 5: 1, 6: 1}","[3, 5, 6]",315161,Li1B1C1
LiBC2(O2F)2,mp-1105683,3.7500999999999998,1.97390046,0.07596539504166788,"{3: 1, 5: 1, 6: 2, 8: 4, 9: 2}","[3, 5, 6, 8, 9]",3151628492,Li1B1C2O4F2
LiB(CN)4,mp-13590,6.3482,-4.27369338,0.33982689687499956,"{3: 1, 5: 1, 6: 4, 7: 4}","[3, 5, 6, 7]",31516474,Li1B1C4N4
LiB(CO2)4,mp-556165,3.3042000000000002,-0.8276171,0.10445107767857298,"{3: 1, 5: 1, 6: 4, 8: 8}","[3, 5, 6, 8]",31516488,Li1B1C4O8
LiMgBN2,mp-1222299,2.6464,3.54419524,0.0,"{3: 1, 12: 1, 5: 1, 7: 2}","[3, 5, 7, 12]",315172121,Li1Mg1B1N2
LiBIr,mp-3348,0.0,4.8624756,0.0,"{3: 1, 5: 1, 77: 1}","[3, 5, 77]",3151771,Li1B1Ir1
LiBPt3,mp-28613,0.0,5.67054931,0.0,"{3: 1, 5: 1, 78: 3}","[3, 5, 78]",3151783,Li1B1Pt3
LiZnBP2O11,mp-1212219,0.5107999999999999,0.17900293,0.48003842182291745,"{3: 1, 30: 1, 5: 1, 15: 2, 8: 11}","[3, 5, 8, 15, 30]",3151811152301,Li1Zn1B1P2O11
LiBP2Pb4O11,mp-1203380,2.5898999999999996,3.64163765,0.0050771167763201674,"{3: 1, 5: 1, 15: 2, 82: 4, 8: 11}","[3, 5, 8, 15, 82]",3151811152824,Li1B1P2Pb4O11
LiBS4(ClO3)4,mp-555090,4.6226,-1.68784203,0.00911710090908091,"{3: 1, 5: 1, 16: 4, 17: 4, 8: 12}","[3, 5, 8, 16, 17]",3151812164174,Li1B1S4Cl4O12
LiB(S2O7)2,mp-1020060,5.51,-1.15271755,0.0,"{3: 1, 5: 1, 16: 4, 8: 14}","[3, 5, 8, 16]",3151814164,Li1B1S4O14
LiMg14BO15,mp-1035344,1.9504000000000001,6.32004374,0.1801206775682358,"{3: 1, 12: 14, 5: 1, 8: 15}","[3, 5, 8, 12]",31518151214,Li1Mg14B1O15
LiMg14BO16,mp-1035346,3.9897000000000005,3.97663333,0.12833957539062535,"{3: 1, 12: 14, 5: 1, 8: 16}","[3, 5, 8, 12]",31518161214,Li1Mg14B1O16
LiBO2,mp-14232,7.2810999999999995,2.03734182,0.0,"{3: 1, 5: 1, 8: 2}","[3, 5, 8]",315182,Li1B1O2
LiBO3,mp-1185302,0.0,3.07860258,0.9669265611166633,"{3: 1, 5: 1, 8: 3}","[3, 5, 8]",315183,Li1B1O3
LiMg30BO31,mp-1040125,2.3587999999999996,6.15569842,0.08525852515262411,"{3: 1, 12: 30, 5: 1, 8: 31}","[3, 5, 8, 12]",31518311230,Li1Mg30B1O31
K2LiBO3,mp-557632,3.5239000000000003,0.45501242,0.0,"{19: 2, 3: 1, 5: 1, 8: 3}","[3, 5, 8, 19]",315183192,K2Li1B1O3
LiCaBO3,mp-561237,5.040100000000001,1.71678816,0.0,"{3: 1, 20: 1, 5: 1, 8: 3}","[3, 5, 8, 20]",315183201,Li1Ca1B1O3
LiMg30BO32,mp-1040099,4.2494,3.87434337,0.06356783660156307,"{3: 1, 12: 30, 5: 1, 8: 32}","[3, 5, 8, 12]",31518321230,Li1Mg30B1O32
LiVBO3,mp-756785,1.5335,3.39857925,0.08013720197048801,"{3: 1, 23: 1, 5: 1, 8: 3}","[3, 5, 8, 23]",315183231,Li1V1B1O3
LiCrBO3,mp-754133,1.4489999999999998,3.22916648,0.0498942693055584,"{3: 1, 24: 1, 5: 1, 8: 3}","[3, 5, 8, 24]",315183241,Li1Cr1B1O3
LiMnBO3,mp-19131,2.5635999999999997,2.09211943,0.0006715470833311699,"{3: 1, 25: 1, 5: 1, 8: 3}","[3, 5, 8, 25]",315183251,Li1Mn1B1O3
LiCoBO3,mp-756840,2.6172999999999993,1.52715898,0.13147475041666823,"{3: 1, 27: 1, 5: 1, 8: 3}","[3, 5, 8, 27]",315183271,Li1Co1B1O3
LiNiBO3,mp-755271,2.7845,2.16185862,0.027376962361112867,"{3: 1, 28: 1, 5: 1, 8: 3}","[3, 5, 8, 28]",315183281,Li1Ni1B1O3
LiZnBO3,mp-1222376,3.5248,0.4024355,0.020341600416664996,"{3: 1, 30: 1, 5: 1, 8: 3}","[3, 5, 8, 30]",315183301,Li1Zn1B1O3
SrLiBO3,mp-10814,4.3476,1.14911145,0.0,"{38: 1, 3: 1, 5: 1, 8: 3}","[3, 5, 8, 38]",315183381,Sr1Li1B1O3
LiCdBO3,mp-6126,2.1155999999999997,0.91058458,0.0,"{3: 1, 48: 1, 5: 1, 8: 3}","[3, 5, 8, 48]",315183481,Li1Cd1B1O3
LiBSbO3,mp-756853,0.4794999999999998,3.7433663,0.10447237597222436,"{3: 1, 5: 1, 51: 1, 8: 3}","[3, 5, 8, 51]",315183511,Li1B1Sb1O3
LiBO4,mp-1211209,0.0,-1.7345895,0.5244628049861149,"{3: 1, 5: 1, 8: 4}","[3, 5, 8]",315184,Li1B1O4
LiSiBO4,mp-8874,6.4308,1.50490708,0.005259894880951244,"{3: 1, 14: 1, 5: 1, 8: 4}","[3, 5, 8, 14]",315184141,Li1Si1B1O4