formula,material_id,band_gap,efermi,energy_above_hull,comp_atoms,sorted_keys_comp_atoms,comp_number,new_formula
LiVPO4,mp-26127,2.6021,4.90728333,0.0,"{3: 1, 23: 1, 15: 1, 8: 4}","[3, 8, 15, 23]",3184151231,Li1V1P1O4
LiCrPO4,mp-25447,2.1346,4.09492408,0.0050387888392817715,"{3: 1, 24: 1, 15: 1, 8: 4}","[3, 8, 15, 24]",3184151241,Li1Cr1P1O4
LiMnPO4,mp-18997,3.4114999999999998,2.72306986,0.0,"{3: 1, 25: 1, 15: 1, 8: 4}","[3, 8, 15, 25]",3184151251,Li1Mn1P1O4
LiCoPO4,mp-758022,3.2239,0.98128459,0.0,"{3: 1, 27: 1, 15: 1, 8: 4}","[3, 8, 15, 27]",3184151271,Li1Co1P1O4
LiNiPO4,mp-22417,3.6207,2.69071638,0.0,"{3: 1, 28: 1, 15: 1, 8: 4}","[3, 8, 15, 28]",3184151281,Li1Ni1P1O4
LiZnPO4,mp-559934,4.13,0.1706398,0.0,"{3: 1, 30: 1, 15: 1, 8: 4}","[3, 8, 15, 30]",3184151301,Li1Zn1P1O4
SrLiPO4,mp-1208633,4.4543,1.06289691,0.023669295476190122,"{38: 1, 3: 1, 15: 1, 8: 4}","[3, 8, 15, 38]",3184151381,Sr1Li1P1O4
LiCdPO4,mp-556786,3.4478000000000004,1.97601642,0.00038240757936147673,"{3: 1, 48: 1, 15: 1, 8: 4}","[3, 8, 15, 48]",3184151481,Li1Cd1P1O4
LiSnPO4,mp-27017,3.4071000000000002,2.64097812,0.005727327023817175,"{3: 1, 50: 1, 15: 1, 8: 4}","[3, 8, 15, 50]",3184151501,Li1Sn1P1O4
LiPWO4,mp-504105,0.0,6.54688825,0.5280690246428605,"{3: 1, 15: 1, 74: 1, 8: 4}","[3, 8, 15, 74]",3184151741,Li1P1W1O4
LiPPbO4,mp-22694,3.5252,2.45061709,0.0,"{3: 1, 15: 1, 82: 1, 8: 4}","[3, 8, 15, 82]",3184151821,Li1P1Pb1O4
LiP4(Br3O)4,mp-1235357,0.4204,-0.33587533,0.07429361740079088,"{3: 1, 15: 4, 35: 12, 8: 4}","[3, 8, 15, 35]",31841543512,Li1P4Br12O4
LiSO4,mp-1211053,0.014100000000000001,-2.74241372,0.08550804375000176,"{3: 1, 16: 1, 8: 4}","[3, 8, 16]",3184161,Li1S1O4
KLiSO4,mp-6800,5.3423,-0.46812928,0.0,"{19: 1, 3: 1, 16: 1, 8: 4}","[3, 8, 16, 19]",3184161191,K1Li1S1O4
RbLiSO4,mp-6211,5.3933,-0.51445871,0.0,"{37: 1, 3: 1, 16: 1, 8: 4}","[3, 8, 16, 37]",3184161371,Rb1Li1S1O4
CsLiSO4,mp-6726,5.378,0.16921543,0.0,"{55: 1, 3: 1, 16: 1, 8: 4}","[3, 8, 16, 55]",3184161551,Cs1Li1S1O4
LiClO4,mp-30301,5.7447,-0.27450269,0.0,"{3: 1, 17: 1, 8: 4}","[3, 8, 17]",3184171,Li1Cl1O4
LiAgClO4,mp-1235767,0.0,1.14138471,0.4515378299107127,"{3: 1, 47: 1, 17: 1, 8: 4}","[3, 8, 17, 47]",3184171471,Li1Ag1Cl1O4
Li(ClO2)2,mp-1211444,0.0,-2.04594954,0.2849703142857125,"{3: 1, 17: 2, 8: 4}","[3, 8, 17]",3184172,Li1Cl2O4
LiBi3(ClO2)2,mp-754206,2.7135000000000002,2.69792185,0.0,"{3: 1, 83: 3, 17: 2, 8: 4}","[3, 8, 17, 83]",3184172833,Li1Bi3Cl2O4
Rb12Li(ClO)4,mp-1235279,0.0,2.12028507,0.201208500523812,"{37: 12, 3: 1, 17: 4, 8: 4}","[3, 8, 17, 37]",31841743712,Rb12Li1Cl4O4
KLiCrO4,mp-555206,2.8533999999999997,-1.36756927,0.0,"{19: 1, 3: 1, 24: 1, 8: 4}","[3, 8, 19, 24]",3184191241,K1Li1Cr1O4
KLiZn3O4,mp-1223469,1.6430000000000002,2.23484176,0.0,"{19: 1, 3: 1, 30: 3, 8: 4}","[3, 8, 19, 30]",3184191303,K1Li1Zn3O4
KLiMoO4,mp-1199453,4.4886,-1.19488063,0.0,"{19: 1, 3: 1, 42: 1, 8: 4}","[3, 8, 19, 42]",3184191421,K1Li1Mo1O4
KLiWO4,mp-1212005,4.8086,-1.3479283,0.0,"{19: 1, 3: 1, 74: 1, 8: 4}","[3, 8, 19, 74]",3184191741,K1Li1W1O4
K2LiVO4,mp-558369,3.9760999999999997,-0.56789876,0.0,"{19: 2, 3: 1, 23: 1, 8: 4}","[3, 8, 19, 23]",3184192231,K2Li1V1O4
K2LiMn2O4,mp-1290836,1.1093000000000002,1.31176752,0.09177043745370028,"{19: 2, 3: 1, 25: 2, 8: 4}","[3, 8, 19, 25]",3184192252,K2Li1Mn2O4
K2LiNbO4,mp-759900,4.1581,-1.0774598,0.0,"{19: 2, 3: 1, 41: 1, 8: 4}","[3, 8, 19, 41]",3184192411,K2Li1Nb1O4
K3LiIrO4,mp-561288,0.1944999999999999,1.68396109,0.0,"{19: 3, 3: 1, 77: 1, 8: 4}","[3, 8, 19, 77]",3184193771,K3Li1Ir1O4
LiScVO4,mp-754728,1.3262999999999998,2.19575752,0.04074483589285727,"{3: 1, 21: 1, 23: 1, 8: 4}","[3, 8, 21, 23]",3184211231,Li1Sc1V1O4
LiScGeO4,mp-504948,3.9614000000000003,1.23366852,0.0076988126190533634,"{3: 1, 21: 1, 32: 1, 8: 4}","[3, 8, 21, 32]",3184211321,Li1Sc1Ge1O4
LiSc2(AgO2)2,mp-1235223,0.0,2.88735387,0.17391145203704017,"{3: 1, 21: 2, 47: 2, 8: 4}","[3, 8, 21, 47]",3184212472,Li1Sc2Ag2O4
LiTiVO4,mp-772042,0.7527000000000004,3.39128313,0.0,"{3: 1, 22: 1, 23: 1, 8: 4}","[3, 8, 22, 23]",3184221231,Li1Ti1V1O4
LiTiCrO4,mp-756275,1.6508999999999996,2.59132441,0.0,"{3: 1, 22: 1, 24: 1, 8: 4}","[3, 8, 22, 24]",3184221241,Li1Ti1Cr1O4
LiTiMnO4,mp-1301329,1.5162,2.35313929,0.019573659285709866,"{3: 1, 22: 1, 25: 1, 8: 4}","[3, 8, 22, 25]",3184221251,Li1Ti1Mn1O4
LiTiCoO4,mp-1176576,0.629,2.21350467,0.06174871035714258,"{3: 1, 22: 1, 27: 1, 8: 4}","[3, 8, 22, 27]",3184221271,Li1Ti1Co1O4
LiTiNiO4,mp-1290806,0.6869000000000001,2.43610493,0.04616325176348823,"{3: 1, 22: 1, 28: 1, 8: 4}","[3, 8, 22, 28]",3184221281,Li1Ti1Ni1O4
LiTiNbO4,mp-774908,0.0,4.93618177,0.11945709892856726,"{3: 1, 22: 1, 41: 1, 8: 4}","[3, 8, 22, 41]",3184221411,Li1Ti1Nb1O4
LiTiRhO4,mp-1222352,1.0782000000000003,3.50600068,0.0008649514285687943,"{3: 1, 22: 1, 45: 1, 8: 4}","[3, 8, 22, 45]",3184221451,Li1Ti1Rh1O4
LiLaTiO4,mp-6521,2.2636999999999996,4.02340963,0.028770968035717104,"{3: 1, 57: 1, 22: 1, 8: 4}","[3, 8, 22, 57]",3184221571,Li1La1Ti1O4
LiNdTiO4,mp-10520,2.2825,2.26960668,0.023202995714285635,"{3: 1, 60: 1, 22: 1, 8: 4}","[3, 8, 22, 60]",3184221601,Li1Nd1Ti1O4
LiEuTiO4,mp-619100,0.0,2.18698109,0.0941682191071429,"{3: 1, 63: 1, 22: 1, 8: 4}","[3, 8, 22, 63]",3184221631,Li1Eu1Ti1O4
LiTi2O4,mp-5670,0.0,5.06885246,0.0,"{3: 1, 22: 2, 8: 4}","[3, 8, 22]",3184222,Li1Ti2O4
LiTi3O4,mp-1235293,0.0,8.02572838,0.0665469668749985,"{3: 1, 22: 3, 8: 4}","[3, 8, 22]",3184223,Li1Ti3O4
LiVCrO4,mp-756218,0.9359999999999999,2.47606044,0.0005200259821478426,"{3: 1, 23: 1, 24: 1, 8: 4}","[3, 8, 23, 24]",3184231241,Li1V1Cr1O4
LiMnVO4,mp-19107,1.9636999999999998,1.79498959,0.0,"{3: 1, 25: 1, 23: 1, 8: 4}","[3, 8, 23, 25]",3184231251,Li1Mn1V1O4
LiVCoO4,mp-753926,1.3641,2.4040457,0.009572941703296145,"{3: 1, 23: 1, 27: 1, 8: 4}","[3, 8, 23, 27]",3184231271,Li1V1Co1O4
LiVNiO4,mp-756943,2.1757000000000004,2.52311898,0.0011195535714279004,"{3: 1, 23: 1, 28: 1, 8: 4}","[3, 8, 23, 28]",3184231281,Li1V1Ni1O4
LiVZnO4,mp-1222477,3.35,-0.93201598,0.0,"{3: 1, 23: 1, 30: 1, 8: 4}","[3, 8, 23, 30]",3184231301,Li1V1Zn1O4
LiVGaO4,mp-770840,1.1153,2.05407017,0.05822609178571536,"{3: 1, 23: 1, 31: 1, 8: 4}","[3, 8, 23, 31]",3184231311,Li1V1Ga1O4
Rb2LiVO4,mp-19123,3.664,-0.58899258,0.0,"{37: 2, 3: 1, 23: 1, 8: 4}","[3, 8, 23, 37]",3184231372,Rb2Li1V1O4
LiNbVO4,mp-761817,1.2698,3.80736686,0.03731157973214927,"{3: 1, 41: 1, 23: 1, 8: 4}","[3, 8, 23, 41]",3184231411,Li1Nb1V1O4
LiVSnO4,mp-850189,1.4519000000000002,3.99362028,0.0,"{3: 1, 23: 1, 50: 1, 8: 4}","[3, 8, 23, 50]",3184231501,Li1V1Sn1O4
Cs2LiVO4,mp-541190,3.9955,0.11328535,0.0,"{55: 2, 3: 1, 23: 1, 8: 4}","[3, 8, 23, 55]",3184231552,Cs2Li1V1O4
LiV2O4,mp-1288227,0.6926000000000001,2.85900732,0.012870998214284057,"{3: 1, 23: 2, 8: 4}","[3, 8, 23]",3184232,Li1V2O4
LiV3O4,mp-754378,0.0,5.78479835,0.014087435729166486,"{3: 1, 23: 3, 8: 4}","[3, 8, 23]",3184233,Li1V3O4
LiMnCrO4,mp-1176640,1.3136,1.92106773,0.07324416961309765,"{3: 1, 25: 1, 24: 1, 8: 4}","[3, 8, 24, 25]",3184241251,Li1Mn1Cr1O4
LiCrCoO4,mp-762011,0.2351000000000001,2.11202074,0.02680399454364757,"{3: 1, 24: 1, 27: 1, 8: 4}","[3, 8, 24, 27]",3184241271,Li1Cr1Co1O4
LiCrNiO4,mp-768708,0.0,2.39840748,0.10263340678571442,"{3: 1, 24: 1, 28: 1, 8: 4}","[3, 8, 24, 28]",3184241281,Li1Cr1Ni1O4
LiZn2CrO4,mp-1222371,1.4076,2.9824124,0.11989025999999914,"{3: 1, 30: 2, 24: 1, 8: 4}","[3, 8, 24, 30]",3184241302,Li1Zn2Cr1O4
RbLiCrO4,mp-18741,2.7641999999999998,-1.53765689,0.0,"{37: 1, 3: 1, 24: 1, 8: 4}","[3, 8, 24, 37]",3184241371,Rb1Li1Cr1O4
LiNbCrO4,mp-771962,1.0406,3.62778519,0.06991817035714831,"{3: 1, 41: 1, 24: 1, 8: 4}","[3, 8, 24, 41]",3184241411,Li1Nb1Cr1O4
LiCrSnO4,mp-756864,2.3777,3.15089808,0.0,"{3: 1, 24: 1, 50: 1, 8: 4}","[3, 8, 24, 50]",3184241501,Li1Cr1Sn1O4
CsLiCrO4,mp-561778,2.7465,-1.11847499,0.0,"{55: 1, 3: 1, 24: 1, 8: 4}","[3, 8, 24, 55]",3184241551,Cs1Li1Cr1O4
LiCr2O4,mp-774032,0.6332,2.12874708,0.02347118674604154,"{3: 1, 24: 2, 8: 4}","[3, 8, 24]",3184242,Li1Cr2O4
LiCr3O4,mp-774235,0.045099999999999696,5.23509014,0.1348013383333324,"{3: 1, 24: 3, 8: 4}","[3, 8, 24]",3184243,Li1Cr3O4
LiMnO4,mp-19438,1.5169,-1.38885524,0.16173537783332836,"{3: 1, 25: 1, 8: 4}","[3, 8, 25]",3184251,Li1Mn1O4
LiMnCoO4,mp-753984,0.0,2.5385563,0.026507506339269682,"{3: 1, 25: 1, 27: 1, 8: 4}","[3, 8, 25, 27]",3184251271,Li1Mn1Co1O4
LiMnNiO4,mp-756366,0.19090000000000007,2.58928469,0.0,"{3: 1, 25: 1, 28: 1, 8: 4}","[3, 8, 25, 28]",3184251281,Li1Mn1Ni1O4
LiMnAsO4,mp-20052,1.6879000000000004,2.47880803,0.0,"{3: 1, 25: 1, 33: 1, 8: 4}","[3, 8, 25, 33]",3184251331,Li1Mn1As1O4
LiMnNbO4,mp-771705,2.3617,1.82312655,0.0,"{3: 1, 25: 1, 41: 1, 8: 4}","[3, 8, 25, 41]",3184251411,Li1Mn1Nb1O4
LiMnRhO4,mp-1222353,0.04349999999999987,3.15542488,0.0,"{3: 1, 25: 1, 45: 1, 8: 4}","[3, 8, 25, 45]",3184251451,Li1Mn1Rh1O4
LiMnSnO4,mp-755934,0.7551999999999999,3.6146007,0.0017614235714304982,"{3: 1, 25: 1, 50: 1, 8: 4}","[3, 8, 25, 50]",3184251501,Li1Mn1Sn1O4
LiMnSbO4,mp-755701,1.3797000000000001,3.40863459,0.0,"{3: 1, 25: 1, 51: 1, 8: 4}","[3, 8, 25, 51]",3184251511,Li1Mn1Sb1O4
Cs2LiMnO4,mp-18722,1.5915,1.01353152,0.0,"{55: 2, 3: 1, 25: 1, 8: 4}","[3, 8, 25, 55]",3184251552,Cs2Li1Mn1O4
LiMn2O4,mp-1272804,0.42689999999999984,2.615264,0.0,"{3: 1, 25: 2, 8: 4}","[3, 8, 25]",3184252,Li1Mn2O4
LiMn3O4,mp-34650,0.0,4.01402636,0.047148325625002485,"{3: 1, 25: 3, 8: 4}","[3, 8, 25]",3184253,Li1Mn3O4
RbLiMn3O4,mp-1101431,0.7229999999999999,3.04762111,0.03609062645833383,"{37: 1, 3: 1, 25: 3, 8: 4}","[3, 8, 25, 37]",3184253371,Rb1Li1Mn3O4
LiCoNiO4,mp-754509,0.0,3.25262397,0.0,"{3: 1, 27: 1, 28: 1, 8: 4}","[3, 8, 27, 28]",3184271281,Li1Co1Ni1O4
LiCoGeO4,mp-763507,1.5655000000000001,-0.02622498,0.08136335357142332,"{3: 1, 27: 1, 32: 1, 8: 4}","[3, 8, 27, 32]",3184271321,Li1Co1Ge1O4
LiCoAsO4,mp-20046,2.2041000000000004,2.25631457,0.0025418726190533647,"{3: 1, 27: 1, 33: 1, 8: 4}","[3, 8, 27, 33]",3184271331,Li1Co1As1O4
SrLiNdCoO4,mp-1236182,1.1187999999999998,3.0774015,0.10326102869140108,"{38: 1, 3: 1, 60: 1, 27: 1, 8: 4}","[3, 8, 27, 38, 60]",3184271381601,Sr1Li1Nd1Co1O4
LiNbCoO4,mp-777452,1.9616000000000002,1.92967502,7.236535714305603e-05,"{3: 1, 41: 1, 27: 1, 8: 4}","[3, 8, 27, 41]",3184271411,Li1Nb1Co1O4
LiCoSnO4,mp-753496,0.4503999999999997,3.25489997,0.0577870278571444,"{3: 1, 27: 1, 50: 1, 8: 4}","[3, 8, 27, 50]",3184271501,Li1Co1Sn1O4
LiCoSbO4,mp-773085,1.2510999999999997,3.8585075,0.0,"{3: 1, 27: 1, 51: 1, 8: 4}","[3, 8, 27, 51]",3184271511,Li1Co1Sb1O4
LiEu2CoO4,mp-1236244,0.0,3.34853696,0.2202481101953122,"{3: 1, 63: 2, 27: 1, 8: 4}","[3, 8, 27, 63]",3184271632,Li1Eu2Co1O4
Li(CoO2)2,mp-774082,0.6658999999999997,2.10926794,0.0,"{3: 1, 27: 2, 8: 4}","[3, 8, 27]",3184272,Li1Co2O4
LiCo3O4,mp-755398,0.0,3.57806305,0.10986256812500006,"{3: 1, 27: 3, 8: 4}","[3, 8, 27]",3184273,Li1Co3O4
LiNiAsO4,mp-22243,0.0,3.54157355,0.003198959523806444,"{3: 1, 28: 1, 33: 1, 8: 4}","[3, 8, 28, 33]",3184281331,Li1Ni1As1O4
LiNbNiO4,mp-777650,2.977,1.87762955,0.018458989642858192,"{3: 1, 41: 1, 28: 1, 8: 4}","[3, 8, 28, 41]",3184281411,Li1Nb1Ni1O4
LiNiSnO4,mp-756797,0.34620000000000006,3.60158312,0.006895322440478857,"{3: 1, 28: 1, 50: 1, 8: 4}","[3, 8, 28, 50]",3184281501,Li1Ni1Sn1O4
LiNiSbO4,mp-756254,1.5918999999999999,4.14057223,0.0,"{3: 1, 28: 1, 51: 1, 8: 4}","[3, 8, 28, 51]",3184281511,Li1Ni1Sb1O4
Li(NiO2)2,mp-774941,0.7825000000000002,3.78602398,0.0,"{3: 1, 28: 2, 8: 4}","[3, 8, 28]",3184282,Li1Ni2O4
LiNi3O4,mp-1273274,0.10050000000000026,4.59069308,0.003079798541667067,"{3: 1, 28: 3, 8: 4}","[3, 8, 28]",3184283,Li1Ni3O4
LiZnAsO4,mp-18048,2.9218,-0.17918972,0.0,"{3: 1, 30: 1, 33: 1, 8: 4}","[3, 8, 30, 33]",3184301331,Li1Zn1As1O4
LiNbZnO4,mp-6146,2.7777,0.81042523,0.0030383482142823937,"{3: 1, 41: 1, 30: 1, 8: 4}","[3, 8, 30, 41]",3184301411,Li1Nb1Zn1O4
LiZnIO4,mp-1104352,2.8646000000000003,4.66874885,0.09609845321429233,"{3: 1, 30: 1, 53: 1, 8: 4}","[3, 8, 30, 53]",3184301531,Li1Zn1I1O4
LiGaGeO4,mp-8702,2.7169,0.04935891,0.01284577083333538,"{3: 1, 31: 1, 32: 1, 8: 4}","[3, 8, 31, 32]",3184311321,Li1Ga1Ge1O4
LiGeRhO4,mp-1222349,1.6894999999999998,3.05721699,0.0,"{3: 1, 32: 1, 45: 1, 8: 4}","[3, 8, 32, 45]",3184321451,Li1Ge1Rh1O4
LiInGeO4,mp-17854,2.2777999999999996,2.24399998,0.0,"{3: 1, 49: 1, 32: 1, 8: 4}","[3, 8, 32, 49]",3184321491,Li1In1Ge1O4
LiNdGeO4,mp-556814,4.058400000000001,1.86182681,0.0015714117857204002,"{3: 1, 60: 1, 32: 1, 8: 4}","[3, 8, 32, 60]",3184321601,Li1Nd1Ge1O4
Rb2LiAsO4,mp-14363,3.5526,-0.19701302,0.0,"{37: 2, 3: 1, 33: 1, 8: 4}","[3, 8, 33, 37]",3184331372,Rb2Li1As1O4
Cs2LiAsO4,mp-14364,3.7302000000000004,0.47896448,0.0,"{55: 2, 3: 1, 33: 1, 8: 4}","[3, 8, 33, 55]",3184331552,Cs2Li1As1O4
LiPr2(BrO2)2,mp-1235538,0.8480999999999999,1.16156234,0.21170085301587527,"{3: 1, 59: 2, 35: 2, 8: 4}","[3, 8, 35, 59]",3184352592,Li1Pr2Br2O4
LiBi3(BrO2)2,mp-768150,2.5094000000000003,2.64075701,0.0,"{3: 1, 83: 3, 35: 2, 8: 4}","[3, 8, 35, 83]",3184352833,Li1Bi3Br2O4
RbLiMoO4,mp-556209,4.4196,-1.73785096,0.0,"{37: 1, 3: 1, 42: 1, 8: 4}","[3, 8, 37, 42]",3184371421,Rb1Li1Mo1O4
Rb2Li(SbO2)2,mp-1235508,0.0,3.42598717,0.14028897833333254,"{37: 2, 3: 1, 51: 2, 8: 4}","[3, 8, 37, 51]",3184372512,Rb2Li1Sb2O4
LiZr2O4,mp-770731,0.0,5.67279229,0.07417819410714621,"{3: 1, 40: 2, 8: 4}","[3, 8, 40]",3184402,Li1Zr2O4
LiNb2O4,mp-758673,0.0,3.24870227,0.06002521750000156,"{3: 1, 41: 2, 8: 4}","[3, 8, 41]",3184412,Li1Nb2O4
LiMo8(P2O11)4,mp-26051,2.3855,1.0177289,0.009544452981575802,"{3: 1, 42: 8, 15: 8, 8: 44}","[3, 8, 15, 42]",31844158428,Li1Mo8P8O44
CsLiMoO4,mp-551629,4.4239999999999995,-1.45920444,0.0,"{55: 1, 3: 1, 42: 1, 8: 4}","[3, 8, 42, 55]",3184421551,Cs1Li1Mo1O4
Li(MoO2)2,mp-25576,1.4741000000000004,3.11192914,0.01588390410714169,"{3: 1, 42: 2, 8: 4}","[3, 8, 42]",3184422,Li1Mo2O4
LiV18O44,mp-774591,0.0,1.59179228,0.03880917515873783,"{3: 1, 23: 18, 8: 44}","[3, 8, 23]",318442318,Li1V18O44
LiRuRhO4,mp-1222456,0.0,3.58250508,0.03433227428571417,"{3: 1, 44: 1, 45: 1, 8: 4}","[3, 8, 44, 45]",3184441451,Li1Ru1Rh1O4
Li(RuO2)2,mp-1193147,0.0,4.90734335,0.06576811553571726,"{3: 1, 44: 2, 8: 4}","[3, 8, 44]",3184442,Li1Ru2O4
LiBi(PdO2)2,mp-559893,0.44599999999999973,3.72913053,0.0,"{3: 1, 83: 1, 46: 2, 8: 4}","[3, 8, 46, 83]",3184462831,Li1Bi1Pd2O4
LiIO4,mp-29473,2.0725,-0.10397891,0.037859892083331737,"{3: 1, 53: 1, 8: 4}","[3, 8, 53]",3184531,Li1I1O4
LiBi3(IO2)2,mp-775430,1.7551999999999999,4.0211672,0.0,"{3: 1, 83: 3, 53: 2, 8: 4}","[3, 8, 53, 83]",3184532833,Li1Bi3I2O4
CsLiWO4,mp-1178391,4.4294,-1.68390385,0.0,"{55: 1, 3: 1, 74: 1, 8: 4}","[3, 8, 55, 74]",3184551741,Cs1Li1W1O4
LiSmEu2O4,mp-1201372,0.10920000000000041,4.63957836,0.02218261820312506,"{3: 1, 62: 1, 63: 2, 8: 4}","[3, 8, 62, 63]",3184621632,Li1Sm1Eu2O4
LiEu3O4,mp-1098000,0.0,3.71048772,0.0,"{3: 1, 63: 3, 8: 4}","[3, 8, 63]",3184633,Li1Eu3O4
Li(WO2)2,mp-504103,0.0,5.07655534,0.2418568678571411,"{3: 1, 74: 2, 8: 4}","[3, 8, 74]",3184742,Li1W2O4
LiReO4,mp-540946,4.0225,-1.82456005,0.0,"{3: 1, 75: 1, 8: 4}","[3, 8, 75]",3184751,Li1Re1O4
LiPt3O4,mp-1211055,0.0,4.83385446,0.0,"{3: 1, 78: 3, 8: 4}","[3, 8, 78]",3184783,Li1Pt3O4
LiMgCr7(SO4)12,mp-532590,0.0,3.12947922,0.004807484221021063,"{3: 1, 12: 1, 24: 7, 16: 12, 8: 48}","[3, 8, 12, 16, 24]",318481211612247,Li1Mg1Cr7S12O48
LiNb7V12O48,mp-774457,1.6223,-0.13394988,0.07238023970588614,"{3: 1, 41: 7, 23: 12, 8: 48}","[3, 8, 23, 41]",318482312417,Li1Nb7V12O48
Li(BiO2)2,mp-1178110,0.0,4.40847968,0.055143391071439396,"{3: 1, 83: 2, 8: 4}","[3, 8, 83]",3184832,Li1Bi2O4
NaLiMgPO4F,mp-1196828,5.1228,6.47592782,0.0,"{11: 1, 3: 1, 12: 1, 15: 1, 8: 4, 9: 1}","[3, 8, 9, 11, 12, 15]",318491111121151,Na1Li1Mg1P1O4F1
NaLiCoPO4F,mp-1204228,0.0,3.0651682,0.02855490513888803,"{11: 1, 3: 1, 27: 1, 15: 1, 8: 4, 9: 1}","[3, 8, 9, 11, 15, 27]",318491111151271,Na1Li1Co1P1O4F1
NaLiNiPO4F,mp-1200250,4.5594,6.31040125,0.0,"{11: 1, 3: 1, 28: 1, 15: 1, 8: 4, 9: 1}","[3, 8, 9, 11, 15, 28]",318491111151281,Na1Li1Ni1P1O4F1
LiMgSO4F,mp-1222350,5.9657,6.61136415,0.01124014046872901,"{3: 1, 12: 1, 16: 1, 8: 4, 9: 1}","[3, 8, 9, 12, 16]",318491121161,Li1Mg1S1O4F1
LiAlPO4F,mp-41795,5.9117999999999995,2.43991451,0.012895190972222359,"{3: 1, 13: 1, 15: 1, 8: 4, 9: 1}","[3, 8, 9, 13, 15]",318491131151,Li1Al1P1O4F1
Sr2LiSiO4F,mp-556066,4.7908,1.82431854,0.015108044490729888,"{38: 2, 3: 1, 14: 1, 8: 4, 9: 1}","[3, 8, 9, 14, 38]",318491141382,Sr2Li1Si1O4F1
LiTiPO4F,mp-25420,0.1648000000000005,4.40776379,0.057876093842265774,"{3: 1, 22: 1, 15: 1, 8: 4, 9: 1}","[3, 8, 9, 15, 22]",318491151221,Li1Ti1P1O4F1
LiVPO4F,mp-25423,1.6248000000000002,2.03697223,0.0,"{3: 1, 23: 1, 15: 1, 8: 4, 9: 1}","[3, 8, 9, 15, 23]",318491151231,Li1V1P1O4F1
LiCrPO4F,mp-25448,2.0339,1.64560102,0.0,"{3: 1, 24: 1, 15: 1, 8: 4, 9: 1}","[3, 8, 9, 15, 24]",318491151241,Li1Cr1P1O4F1
LiMnPO4F,mp-25410,0.8695000000000002,2.26443359,0.0,"{3: 1, 25: 1, 15: 1, 8: 4, 9: 1}","[3, 8, 9, 15, 25]",318491151251,Li1Mn1P1O4F1
LiCoPO4F,mp-25465,0.808,1.87627288,0.011646433125000577,"{3: 1, 27: 1, 15: 1, 8: 4, 9: 1}","[3, 8, 9, 15, 27]",318491151271,Li1Co1P1O4F1
LiNiPO4F,mp-1176633,0.0,0.26279237,0.08565896890624547,"{3: 1, 28: 1, 15: 1, 8: 4, 9: 1}","[3, 8, 9, 15, 28]",318491151281,Li1Ni1P1O4F1
LiGaPO4F,mp-1210869,4.2706,5.5275948,0.037150687291666706,"{3: 1, 31: 1, 15: 1, 8: 4, 9: 1}","[3, 8, 9, 15, 31]",318491151311,Li1Ga1P1O4F1
LiPWO4F,mp-25416,3.1005000000000003,2.37058193,0.054531212968750964,"{3: 1, 15: 1, 74: 1, 8: 4, 9: 1}","[3, 8, 9, 15, 74]",318491151741,Li1P1W1O4F1
LiMnSO4F,mp-942702,3.9043,1.47628188,0.01240299937500744,"{3: 1, 25: 1, 16: 1, 8: 4, 9: 1}","[3, 8, 9, 16, 25]",318491161251,Li1Mn1S1O4F1
LiCoSO4F,mp-942701,2.6590999999999996,1.23864338,0.007272736249997358,"{3: 1, 27: 1, 16: 1, 8: 4, 9: 1}","[3, 8, 9, 16, 27]",318491161271,Li1Co1S1O4F1
LiNiSO4F,mp-942700,3.9201000000000006,1.20809811,0.001509216406252456,"{3: 1, 28: 1, 16: 1, 8: 4, 9: 1}","[3, 8, 9, 16, 28]",318491161281,Li1Ni1S1O4F1
LiZnSO4F,mp-1203440,4.2073,0.38099106,0.0,"{3: 1, 30: 1, 16: 1, 8: 4, 9: 1}","[3, 8, 9, 16, 30]",318491161301,Li1Zn1S1O4F1
LiNi4O4F,mp-753307,1.7546999999999997,5.10530937,0.06465025100000155,"{3: 1, 28: 4, 8: 4, 9: 1}","[3, 8, 9, 28]",318491284,Li1Ni4O4F1
K2LiS2(O2F)2,mp-1235086,0.27390000000000003,0.1676239,0.18388336421650742,"{19: 2, 3: 1, 16: 2, 8: 4, 9: 2}","[3, 8, 9, 16, 19]",318492162192,K2Li1S2O4F2
LiV3(O2F)2,mp-759980,1.4523000000000006,2.91832836,0.06933353150000165,"{3: 1, 23: 3, 8: 4, 9: 2}","[3, 8, 9, 23]",318492233,Li1V3O4F2
LiMn3(O2F)2,mp-759049,0.3506,2.08102245,0.08191472439583514,"{3: 1, 25: 3, 8: 4, 9: 2}","[3, 8, 9, 25]",318492253,Li1Mn3O4F2
LiVSO4F3,mp-769603,0.893,-1.13313249,0.04785198968180282,"{3: 1, 23: 1, 16: 1, 8: 4, 9: 3}","[3, 8, 9, 16, 23]",318493161231,Li1V1S1O4F3
LiTiO4F3,mp-755613,1.3617,-1.87536713,0.17188316680555626,"{3: 1, 22: 1, 8: 4, 9: 3}","[3, 8, 9, 22]",318493221,Li1Ti1O4F3
LiCr6(OF)4,mp-1235655,0.0,3.5023303,0.257898763888889,"{3: 1, 24: 6, 8: 4, 9: 4}","[3, 8, 9, 24]",318494246,Li1Cr6O4F4
LiV3(OF2)4,mp-752988,1.8348,-1.64835926,0.07474426833332881,"{3: 1, 23: 3, 8: 4, 9: 8}","[3, 8, 9, 23]",318498233,Li1V3O4F8
LiMn6(OF2)4,mp-1232977,0.0,1.59444559,0.11580661494518196,"{3: 1, 25: 6, 8: 4, 9: 8}","[3, 8, 9, 25]",318498256,Li1Mn6O4F8
Na3LiWO5,mp-557309,3.8186,1.16420883,0.0,"{11: 3, 3: 1, 74: 1, 8: 5}","[3, 8, 11, 74]",3185113741,Na3Li1W1O5
LiAlSiO5,mp-1198062,0.0015000000000000013,-0.14905693,0.2715046236458418,"{3: 1, 13: 1, 14: 1, 8: 5}","[3, 8, 13, 14]",3185131141,Li1Al1Si1O5
LiAlPO5,mp-1211159,0.29079999999999995,2.32405575,0.12108571560921622,"{3: 1, 13: 1, 15: 1, 8: 5}","[3, 8, 13, 15]",3185131151,Li1Al1P1O5
LiAlNi3O5,mp-1222577,3.0743,5.2825054,0.045701750749996606,"{3: 1, 13: 1, 28: 3, 8: 5}","[3, 8, 13, 28]",3185131283,Li1Al1Ni3O5
LiAlGeO5,mp-1204433,0.2036,-0.96157349,0.28613386308522415,"{3: 1, 13: 1, 32: 1, 8: 5}","[3, 8, 13, 32]",3185131321,Li1Al1Ge1O5
LiSiPO5,mp-1232382,4.9408,3.79181676,0.10936549572917276,"{3: 1, 14: 1, 15: 1, 8: 5}","[3, 8, 14, 15]",3185141151,Li1Si1P1O5
LiVSiO5,mp-754539,2.0428,1.33219845,0.05676882208332934,"{3: 1, 23: 1, 14: 1, 8: 5}","[3, 8, 14, 23]",3185141231,Li1V1Si1O5