formula,material_id,band_gap,efermi,energy_above_hull,comp_atoms,sorted_keys_comp_atoms,comp_number,new_formula
Li3Co4NiO8,mp-754464,0.0,4.31000274,0.06756783953125467,"{3: 3, 27: 4, 28: 1, 8: 8}","[3, 8, 27, 28]",3388274281,Li3Co4Ni1O8
Li3Nb(CoO2)4,mp-772083,1.3723999999999998,3.41806295,0.05696442296875048,"{3: 3, 41: 1, 27: 4, 8: 8}","[3, 8, 27, 41]",3388274411,Li3Nb1Co4O8
Li3Co4SnO8,mp-1302608,0.6652999999999998,3.83150033,0.04822606593750045,"{3: 3, 27: 4, 50: 1, 8: 8}","[3, 8, 27, 50]",3388274501,Li3Co4Sn1O8
Li3Co4SbO8,mp-756225,1.3648999999999996,4.48401921,0.02051116687499821,"{3: 3, 27: 4, 51: 1, 8: 8}","[3, 8, 27, 51]",3388274511,Li3Co4Sb1O8
Li3Co4TeO8,mp-756161,0.0,5.11306937,0.11188700859375,"{3: 3, 27: 4, 52: 1, 8: 8}","[3, 8, 27, 52]",3388274521,Li3Co4Te1O8
Li3Co4WO8,mp-754704,1.3286999999999995,4.22633566,0.05597981539062591,"{3: 3, 27: 4, 74: 1, 8: 8}","[3, 8, 27, 74]",3388274741,Li3Co4W1O8
Li3NbNi3O8,mp-757382,0.0,3.04853012,0.07002775480000345,"{3: 3, 41: 1, 28: 3, 8: 8}","[3, 8, 28, 41]",3388283411,Li3Nb1Ni3O8
Li3Ni3SbO8,mp-772016,0.0,3.31071581,0.06578766655555768,"{3: 3, 28: 3, 51: 1, 8: 8}","[3, 8, 28, 51]",3388283511,Li3Ni3Sb1O8
Li3Ni3TeO8,mp-1177536,0.0,3.47067506,0.018573801500008535,"{3: 3, 28: 3, 52: 1, 8: 8}","[3, 8, 28, 52]",3388283521,Li3Ni3Te1O8
Li3(NiO2)4,mp-755972,0.0,3.4488464,0.008851531027782578,"{3: 3, 28: 4, 8: 8}","[3, 8, 28]",3388284,Li3Ni4O8
Li3Nb(NiO2)4,mp-754319,2.0747000000000004,3.92222128,0.056299800468757155,"{3: 3, 41: 1, 28: 4, 8: 8}","[3, 8, 28, 41]",3388284411,Li3Nb1Ni4O8
Li3Ni4SnO8,mp-755223,0.0,4.55999595,0.009955552552083802,"{3: 3, 28: 4, 50: 1, 8: 8}","[3, 8, 28, 50]",3388284501,Li3Ni4Sn1O8
Li3Ni4SbO8,mp-754956,1.6910999999999996,5.05527823,0.04494584125000056,"{3: 3, 28: 4, 51: 1, 8: 8}","[3, 8, 28, 51]",3388284511,Li3Ni4Sb1O8
Li3Ni5O8,mp-758143,0.0,3.96040802,0.011253282291667333,"{3: 3, 28: 5, 8: 8}","[3, 8, 28]",3388285,Li3Ni5O8
K4Li3Nb18P12(WO42)2,mp-849406,0.8404,1.70209334,0.002820694960496084,"{19: 4, 3: 3, 41: 18, 15: 12, 74: 2, 8: 84}","[3, 8, 15, 19, 41, 74]",3388415121944118742,K4Li3Nb18P12W2O84
Li3VCrP2(O4F)2,mp-753680,0.5934999999999997,3.10475822,0.02698415408088639,"{3: 3, 23: 1, 24: 1, 15: 2, 8: 8, 9: 2}","[3, 8, 9, 15, 23, 24]",338892152231241,Li3V1Cr1P2O8F2
Li3MnVP2(O4F)2,mp-752825,1.2013000000000003,2.11511623,0.03530046588235081,"{3: 3, 25: 1, 23: 1, 15: 2, 8: 8, 9: 2}","[3, 8, 9, 15, 23, 25]",338892152231251,Li3Mn1V1P2O8F2
Li3Cr2P2(O4F)2,mp-759310,1.4299000000000004,2.8970965,0.014460678676469385,"{3: 3, 24: 2, 15: 2, 8: 8, 9: 2}","[3, 8, 9, 15, 24]",338892152242,Li3Cr2P2O8F2
Li3Mn2P2(O4F)2,mp-759305,0.24719999999999986,2.28659428,0.02249131294117035,"{3: 3, 25: 2, 15: 2, 8: 8, 9: 2}","[3, 8, 9, 15, 25]",338892152252,Li3Mn2P2O8F2
Li3Co2P2(O4F)2,mp-759682,0.0,1.81533793,0.06161090735295449,"{3: 3, 27: 2, 15: 2, 8: 8, 9: 2}","[3, 8, 9, 15, 27]",338892152272,Li3Co2P2O8F2
Li3Ni2P2(O4F)2,mp-758764,0.0,1.10257578,0.030123199632366315,"{3: 3, 28: 2, 15: 2, 8: 8, 9: 2}","[3, 8, 9, 15, 28]",338892152282,Li3Ni2P2O8F2
Li3V2P2O8F3,mp-758819,1.9919,1.34027604,0.06009996069444856,"{3: 3, 23: 2, 15: 2, 8: 8, 9: 3}","[3, 8, 9, 15, 23]",338893152232,Li3V2P2O8F3
Li3Mn2P2O8F3,mp-1290947,0.0,1.16129887,0.06715379166666935,"{3: 3, 25: 2, 15: 2, 8: 8, 9: 3}","[3, 8, 9, 15, 25]",338893152252,Li3Mn2P2O8F3
Li3V2S2(O4F3)2,mp-769588,1.0314,-0.45597514,0.07250240583333412,"{3: 3, 23: 2, 16: 2, 8: 8, 9: 6}","[3, 8, 9, 16, 23]",338896162232,Li3V2S2O8F6
Li3V4P2O8F9,mp-758610,1.8039999999999998,0.25929716,0.09501028624999108,"{3: 3, 23: 4, 15: 2, 8: 8, 9: 9}","[3, 8, 9, 15, 23]",338899152234,Li3V4P2O8F9
Li3Cr4P2O8F9,mp-758264,0.9551999999999998,1.28575571,0.07781931692307342,"{3: 3, 24: 4, 15: 2, 8: 8, 9: 9}","[3, 8, 9, 15, 24]",338899152244,Li3Cr4P2O8F9
Li3Ac,mp-976407,0.0,2.23322365,0.1806265768749995,"{3: 3, 89: 1}","[3, 89]",33891,Li3Ac1
Li3V(SiO3)3,mp-766406,1.9627,1.77100423,0.09564067675780841,"{3: 3, 23: 1, 14: 3, 8: 9}","[3, 8, 14, 23]",3389143231,Li3V1Si3O9
Li3CrP2O9,mp-504343,0.0,0.55222275,0.07104247514285777,"{3: 3, 24: 1, 15: 2, 8: 9}","[3, 8, 15, 24]",3389152241,Li3Cr1P2O9
Li3MnP2O9,mp-867845,0.0,0.28461911,0.05234836190740655,"{3: 3, 25: 1, 15: 2, 8: 9}","[3, 8, 15, 25]",3389152251,Li3Mn1P2O9
Li3MoP2O9,mp-25974,1.4696000000000002,0.92920101,0.06294181183335201,"{3: 3, 42: 1, 15: 2, 8: 9}","[3, 8, 15, 42]",3389152421,Li3Mo1P2O9
Li3P2WO9,mp-757576,3.3444000000000003,1.42617958,0.048755114333332905,"{3: 3, 15: 2, 74: 1, 8: 9}","[3, 8, 15, 74]",3389152741,Li3P2W1O9
RbLi3S2O9,mp-1209228,0.3232,-0.77788275,0.14566002550000157,"{37: 1, 3: 3, 16: 2, 8: 9}","[3, 8, 16, 37]",3389162371,Rb1Li3S2O9
Li3VAs2O9,mp-1177474,1.7624,1.4028507,0.05280711366666502,"{3: 3, 23: 1, 33: 2, 8: 9}","[3, 8, 23, 33]",3389231332,Li3V1As2O9
Li3Cr13Ni3(SO4)24,mp-695469,2.2487,0.62126005,0.028480406825540427,"{3: 3, 24: 13, 28: 3, 16: 24, 8: 96}","[3, 8, 16, 24, 28]",3389616242413283,Li3Cr13Ni3S24O96
Li3Th,mp-977239,0.0,2.24476934,0.41619980749999996,"{3: 3, 90: 1}","[3, 90]",33901,Li3Th1
Na3Li3Al2F12,mp-6711,7.0872,-1.93776339,0.0,"{11: 3, 3: 3, 13: 2, 9: 12}","[3, 9, 11, 13]",33912113132,Na3Li3Al2F12
Na3Li3Sc2F12,mp-14023,6.8685,-2.73858823,0.0,"{11: 3, 3: 3, 21: 2, 9: 12}","[3, 9, 11, 21]",33912113212,Na3Li3Sc2F12
Na3Li3Ti2F12,mp-14457,0.0,2.8151019,0.0,"{11: 3, 3: 3, 22: 2, 9: 12}","[3, 9, 11, 22]",33912113222,Na3Li3Ti2F12
Na3Li3V2F12,mp-6153,0.0,0.82150361,0.0,"{11: 3, 3: 3, 23: 2, 9: 12}","[3, 9, 11, 23]",33912113232,Na3Li3V2F12
Na3Li3Cr2F12,mp-14458,3.8583,-1.34135584,0.0,"{11: 3, 3: 3, 24: 2, 9: 12}","[3, 9, 11, 24]",33912113242,Na3Li3Cr2F12
Na3Li3Co2F12,mp-21932,1.5477,-2.05727963,0.0008153346249990534,"{11: 3, 3: 3, 27: 2, 9: 12}","[3, 9, 11, 27]",33912113272,Na3Li3Co2F12
Na3Li3Rh2F12,mp-1210682,1.9933,0.40679752,0.0,"{11: 3, 3: 3, 45: 2, 9: 12}","[3, 9, 11, 45]",33912113452,Na3Li3Rh2F12
Na3Li3In2F12,mp-6527,5.2896,-1.98623287,0.0,"{11: 3, 3: 3, 49: 2, 9: 12}","[3, 9, 11, 49]",33912113492,Na3Li3In2F12
Li3V2F12,mp-760783,0.24659999999999993,-2.40770942,0.02195608867647003,"{3: 3, 23: 2, 9: 12}","[3, 9, 23]",33912232,Li3V2F12
Li3Mn4F15,mp-759518,0.0,-1.44408362,0.06513473465909136,"{3: 3, 25: 4, 9: 15}","[3, 9, 25]",33915254,Li3Mn4F15
Li3Mn5F15,mp-759954,0.0,-0.63235385,0.05578553771738637,"{3: 3, 25: 5, 9: 15}","[3, 9, 25]",33915255,Li3Mn5F15
Li3V4F19,mp-776128,1.3893,-1.09876784,0.06874790403845665,"{3: 3, 23: 4, 9: 19}","[3, 9, 23]",33919234,Li3V4F19
Li3Mn4F19,mp-777320,1.0555,-1.76630551,0.04942572408654389,"{3: 3, 25: 4, 9: 19}","[3, 9, 25]",33919254,Li3Mn4F19
Li3Zr4F19,mp-29040,5.6198,-2.71722669,0.024730281586544223,"{3: 3, 40: 4, 9: 19}","[3, 9, 40]",33919404,Li3Zr4F19
Li3Np,mp-1185256,0.0,3.55708303,0.6728535028124973,"{3: 3, 93: 1}","[3, 93]",33931,Li3Np1
Li3Pu,mp-1185258,0.0,3.13992977,0.3830548475000022,"{3: 3, 94: 1}","[3, 94]",33941,Li3Pu1
Li3AgF4,mp-758861,2.1989,-1.51366475,0.0911781006249992,"{3: 3, 47: 1, 9: 4}","[3, 9, 47]",3394471,Li3Ag1F4
CsLi3F4,mp-555439,6.7384,-1.83056888,0.06627681624999937,"{55: 1, 3: 3, 9: 4}","[3, 9, 55]",3394551,Cs1Li3F4
Li3VF5,mp-860790,2.5096,1.28038096,0.052405758888888876,"{3: 3, 23: 1, 9: 5}","[3, 9, 23]",3395231,Li3V1F5
Li3MnF5,mp-759420,3.6318,-0.63862227,0.04684643333333316,"{3: 3, 25: 1, 9: 5}","[3, 9, 25]",3395251,Li3Mn1F5
Li3Ag2F5,mp-759449,1.5188,-1.22968345,0.09685060125000078,"{3: 3, 47: 2, 9: 5}","[3, 9, 47]",3395472,Li3Ag2F5
Cs2Li3F5,mp-560088,5.618399999999999,-1.52970493,0.09112760600000058,"{55: 2, 3: 3, 9: 5}","[3, 9, 55]",3395552,Cs2Li3F5
Li3AlF6,mp-15254,7.688400000000001,-1.82875722,0.0,"{3: 3, 13: 1, 9: 6}","[3, 9, 13]",3396131,Li3Al1F6
Li3PF6,mp-1238766,3.2590999999999997,-0.53943888,0.33660432726666567,"{3: 3, 15: 1, 9: 6}","[3, 9, 15]",3396151,Li3P1F6
Li3ScF6,mp-560890,6.6768,-2.58321049,0.0,"{3: 3, 21: 1, 9: 6}","[3, 9, 21]",3396211,Li3Sc1F6
Li3TiF6,mp-21540,0.1575000000000002,2.76216877,0.012280003166666553,"{3: 3, 22: 1, 9: 6}","[3, 9, 22]",3396221,Li3Ti1F6
Li3VF6,mp-21633,2.4336,-0.25754429,0.0,"{3: 3, 23: 1, 9: 6}","[3, 9, 23]",3396231,Li3V1F6
Li3CrF6,mp-561396,3.9644000000000004,-1.17216253,0.0,"{3: 3, 24: 1, 9: 6}","[3, 9, 24]",3396241,Li3Cr1F6
Li3MnF6,mp-760028,1.7228999999999999,-1.22955179,0.0020933685000050772,"{3: 3, 25: 1, 9: 6}","[3, 9, 25]",3396251,Li3Mn1F6
Li3CoF6,mp-1111290,2.9404000000000003,-1.29751961,0.1884986125000001,"{3: 3, 27: 1, 9: 6}","[3, 9, 27]",3396271,Li3Co1F6
Li3NiF6,mp-1211465,2.3599,-2.25901361,0.0,"{3: 3, 28: 1, 9: 6}","[3, 9, 28]",3396281,Li3Ni1F6
Li3GaF6,mp-15558,6.2804,-2.54857023,0.0,"{3: 3, 31: 1, 9: 6}","[3, 9, 31]",3396311,Li3Ga1F6
Li3AsF6,mp-1239084,3.8182,-1.17388291,0.16578913725,"{3: 3, 33: 1, 9: 6}","[3, 9, 33]",3396331,Li3As1F6
Li3NbF6,mp-1211885,0.2191,-0.204314,0.34626967906666195,"{3: 3, 41: 1, 9: 6}","[3, 9, 41]",3396411,Li3Nb1F6
Li3MoF6,mp-1111287,2.9152,3.33723786,0.24791110549999917,"{3: 3, 42: 1, 9: 6}","[3, 9, 42]",3396421,Li3Mo1F6
Li3RuF6,mp-1111685,0.0,1.47334188,0.2665382726250005,"{3: 3, 44: 1, 9: 6}","[3, 9, 44]",3396441,Li3Ru1F6
Li3RhF6,mp-1237062,1.9018,-1.31663922,0.09716825250000127,"{3: 3, 45: 1, 9: 6}","[3, 9, 45]",3396451,Li3Rh1F6
Li3PdF6,mp-1111069,0.0,0.19745585,0.25193446299999955,"{3: 3, 46: 1, 9: 6}","[3, 9, 46]",3396461,Li3Pd1F6
Li3InF6,mp-1110579,4.8656,-1.8325,0.2567323694999999,"{3: 3, 49: 1, 9: 6}","[3, 9, 49]",3396491,Li3In1F6
Li3SbF6,mp-1237474,3.664,-0.07258313,0.15689427687500057,"{3: 3, 51: 1, 9: 6}","[3, 9, 51]",3396511,Li3Sb1F6
Li3TaF6,mp-1211531,0.5994000000000002,2.08464526,0.3304375281999974,"{3: 3, 73: 1, 9: 6}","[3, 9, 73]",3396731,Li3Ta1F6
Li3IrF6,mp-1237975,2.0124,0.14614792,0.11066201060000047,"{3: 3, 77: 1, 9: 6}","[3, 9, 77]",3396771,Li3Ir1F6
Li3PtF6,mp-1212313,0.0246000000000004,-5.43868422,0.570918652125,"{3: 3, 78: 1, 9: 6}","[3, 9, 78]",3396781,Li3Pt1F6
Li3AuF6,mp-1110580,0.40869999999999995,-0.62625,0.3692157559999991,"{3: 3, 79: 1, 9: 6}","[3, 9, 79]",3396791,Li3Au1F6
Li3TlF6,mp-1110576,3.3885,-1.86583333,0.2694392182500014,"{3: 3, 81: 1, 9: 6}","[3, 9, 81]",3396811,Li3Tl1F6
Li3BiF6,mp-1237871,4.3416999999999994,-1.65948755,0.15139108600000029,"{3: 3, 83: 1, 9: 6}","[3, 9, 83]",3396831,Li3Bi1F6
Li3VF7,mp-759421,1.9246000000000003,-2.51718794,0.05270668636363762,"{3: 3, 23: 1, 9: 7}","[3, 9, 23]",3397231,Li3V1F7
Li3MnF7,mp-759724,1.2844,-2.91354761,0.05635590696969661,"{3: 3, 25: 1, 9: 7}","[3, 9, 25]",3397251,Li3Mn1F7
Li3Mn2F7,mp-764189,3.2257000000000002,-0.25238361,0.051403905000000805,"{3: 3, 25: 2, 9: 7}","[3, 9, 25]",3397252,Li3Mn2F7
Li3ThF7,mp-27761,5.6857999999999995,-1.7668582,0.209163741590908,"{3: 3, 90: 1, 9: 7}","[3, 9, 90]",3397901,Li3Th1F7
Li3VF8,mp-753288,3.8164,-3.06844999,0.09244672000000076,"{3: 3, 23: 1, 9: 8}","[3, 9, 23]",3398231,Li3V1F8
Li3V2F8,mp-752901,0.475,0.89858398,0.06765464615384786,"{3: 3, 23: 2, 9: 8}","[3, 9, 23]",3398232,Li3V2F8
Li3V2F9,mp-767772,3.1679,-0.33197278,0.06236613142857372,"{3: 3, 23: 2, 9: 9}","[3, 9, 23]",3399232,Li3V2F9
Li3Mn2F9,mp-754135,1.7893,-0.55239249,0.07255977910714329,"{3: 3, 25: 2, 9: 9}","[3, 9, 25]",3399252,Li3Mn2F9
Li4Mg,mp-1222419,0.0,0.51646119,0.010894633000000375,"{3: 4, 12: 1}","[3, 12]",34121,Li4Mg1
Li4SiPt3,mp-1105613,0.0,4.15026601,0.0,"{3: 4, 14: 1, 78: 3}","[3, 14, 78]",34141783,Li4Si1Pt3
Li4Zn(PS4)2,mp-1147724,2.7498000000000005,4.31930891,0.009435243666665372,"{3: 4, 30: 1, 15: 2, 16: 8}","[3, 15, 16, 30]",34152168301,Li4Zn1P2S8
Sr(Li2P)2,mp-570097,0.9758999999999998,2.28527014,0.0,"{38: 1, 3: 4, 15: 2}","[3, 15, 38]",34152381,Sr1Li4P2
Li4Re6S11,mp-1181012,1.7327999999999997,3.85152201,0.0,"{3: 4, 75: 6, 16: 11}","[3, 16, 75]",341611756,Li4Re6S11
Li4Ti5S12,mp-766597,0.7876000000000003,2.56355472,0.07123762472221706,"{3: 4, 22: 5, 16: 12}","[3, 16, 22]",341612225,Li4Ti5S12
Li4TiS4,mp-766540,2.3658,0.93943388,0.0,"{3: 4, 22: 1, 16: 4}","[3, 16, 22]",34164221,Li4Ti1S4
Li4VS4,mp-768414,0.0,2.48008728,0.053864803968256325,"{3: 4, 23: 1, 16: 4}","[3, 16, 23]",34164231,Li4V1S4
Li4CrS4,mp-766971,0.2022999999999997,2.07677324,0.049686389444444146,"{3: 4, 24: 1, 16: 4}","[3, 16, 24]",34164241,Li4Cr1S4
Li4GeS4,mp-1222529,2.5202999999999998,3.4301613,0.0,"{3: 4, 32: 1, 16: 4}","[3, 16, 32]",34164321,Li4Ge1S4
Li4SnS4,mp-1195718,2.3564,3.82901387,0.0,"{3: 4, 50: 1, 16: 4}","[3, 16, 50]",34164501,Li4Sn1S4
Li4SbS4,mp-753776,0.0,2.67219866,0.07337557083333657,"{3: 4, 51: 1, 16: 4}","[3, 16, 51]",34164511,Li4Sb1S4
Li4AuS4,mp-1211793,0.0,1.92664114,0.2673013989236104,"{3: 4, 79: 1, 16: 4}","[3, 16, 79]",34164791,Li4Au1S4
Li4MnGe2S7,mp-1192995,1.5209,3.09121812,0.0,"{3: 4, 25: 1, 32: 2, 16: 7}","[3, 16, 25, 32]",34167251322,Li4Mn1Ge2S7
Li4Bi2S7,mp-753429,0.9856000000000003,2.94630319,0.037675564807693185,"{3: 4, 83: 2, 16: 7}","[3, 16, 83]",34167832,Li4Bi2S7
Li4Mn3Cl10,mp-531376,0.9009999999999998,1.67311314,0.007280501323533528,"{3: 4, 25: 3, 17: 10}","[3, 17, 25]",341710253,Li4Mn3Cl10
Li4MnSn2Se7,mp-1192737,1.0650000000000002,2.58190278,0.0,"{3: 4, 25: 1, 50: 2, 34: 7}","[3, 25, 34, 50]",34251347502,Li4Mn1Sn2Se7
Li4ZnCd3,mp-1222443,0.0,1.53533499,0.011713415625001389,"{3: 4, 30: 1, 48: 3}","[3, 30, 48]",34301483,Li4Zn1Cd3
Li4ZrGe2,mp-31082,0.0,2.08639784,0.40434335245238184,"{3: 4, 40: 1, 32: 2}","[3, 32, 40]",34322401,Li4Zr1Ge2
Li4Ce3Ge4,mp-1101898,0.0,4.47815788,0.013891093575757907,"{3: 4, 58: 3, 32: 4}","[3, 32, 58]",34324583,Li4Ce3Ge4
Li4Pr3Ge4,mp-1102495,0.0,2.66328499,0.0,"{3: 4, 59: 3, 32: 4}","[3, 32, 59]",34324593,Li4Pr3Ge4
Li4Nd3Ge4,mp-1102842,0.0,2.63070751,0.0,"{3: 4, 60: 3, 32: 4}","[3, 32, 60]",34324603,Li4Nd3Ge4
Li4Sm3Ge4,mp-1103229,0.0,2.60649802,0.0,"{3: 4, 62: 3, 32: 4}","[3, 32, 62]",34324623,Li4Sm3Ge4
Li4SnSe4,mp-1194700,1.6929,2.70092447,0.0004531261111120344,"{3: 4, 50: 1, 34: 4}","[3, 34, 50]",34344501,Li4Sn1Se4
Sr3(LiSb)4,mp-540803,0.0,3.68827045,0.0,"{38: 3, 3: 4, 51: 4}","[3, 38, 51]",34383514,Sr3Li4Sb4
Li4Be3P3ClO12,mp-560894,6.4154,1.23634719,0.0,"{3: 4, 4: 3, 15: 3, 17: 1, 8: 12}","[3, 4, 8, 15, 17]",3443812153171,Li4Be3P3Cl1O12
Li4Be3P3BrO12,mp-554560,6.0638000000000005,1.42624376,0.0,"{3: 4, 4: 3, 15: 3, 35: 1, 8: 12}","[3, 4, 8, 15, 35]",3443812153351,Li4Be3P3Br1O12
Li4Be3P3IO12,mp-1211168,5.3771,1.09335341,0.0,"{3: 4, 4: 3, 15: 3, 53: 1, 8: 12}","[3, 4, 8, 15, 53]",3443812153531,Li4Be3P3I1O12
Li4Be3As3ClO12,mp-560072,4.4494,-0.60672322,0.0,"{3: 4, 4: 3, 33: 3, 17: 1, 8: 12}","[3, 4, 8, 17, 33]",3443812171333,Li4Be3As3Cl1O12
Li4Be3As3BrO12,mp-1211214,3.8547,-0.13608214,0.0,"{3: 4, 4: 3, 33: 3, 35: 1, 8: 12}","[3, 4, 8, 33, 35]",3443812333351,Li4Be3As3Br1O12
Sr19Li44,mp-1195042,0.02279999999999993,0.69184211,0.0,"{38: 19, 3: 44}","[3, 38]",3443819,Sr19Li44
Li4(CdSb)5,mp-1222490,0.26049999999999995,2.59331311,0.0,"{3: 4, 48: 5, 51: 5}","[3, 48, 51]",34485515,Li4Cd5Sb5
Li4B2O5,mp-768884,4.971,0.48342417,0.0464252879545457,"{3: 4, 5: 2, 8: 5}","[3, 5, 8]",345285,Li4B2O5
Li4Ca(BO3)2,mp-557467,4.7254,0.56635257,0.0,"{3: 4, 20: 1, 5: 2, 8: 6}","[3, 5, 8, 20]",345286201,Li4Ca1B2O6
Li4V(BO3)2,mp-777961,2.7351,2.6862271,0.0,"{3: 4, 23: 1, 5: 2, 8: 6}","[3, 5, 8, 23]",345286231,Li4V1B2O6
Li4Mn(BO3)2,mp-754416,3.5788,1.25192927,0.01156049769230627,"{3: 4, 25: 1, 5: 2, 8: 6}","[3, 5, 8, 25]",345286251,Li4Mn1B2O6
Li4Co(BO3)2,mp-1177472,3.0153999999999996,0.72970253,0.09938919153846282,"{3: 4, 27: 1, 5: 2, 8: 6}","[3, 5, 8, 27]",345286271,Li4Co1B2O6
Li4Ni(BO3)2,mp-775949,3.0071,1.04380103,0.04423935961538561,"{3: 4, 28: 1, 5: 2, 8: 6}","[3, 5, 8, 28]",345286281,Li4Ni1B2O6
Li4Sn(BO3)2,mp-756045,2.5107999999999997,2.57552668,0.07982157749999974,"{3: 4, 50: 1, 5: 2, 8: 6}","[3, 5, 8, 50]",345286501,Li4Sn1B2O6
Li4Mn3(BO3)4,mp-766499,0.4946999999999999,1.91133504,0.06791926673912663,"{3: 4, 25: 3, 5: 4, 8: 12}","[3, 5, 8, 25]",3454812253,Li4Mn3B4O12
Li4B4Sb2SO16,mp-768968,2.561,1.22443402,0.09418051811727235,"{3: 4, 5: 4, 51: 2, 16: 1, 8: 16}","[3, 5, 8, 16, 51]",3454816161512,Li4B4Sb2S1O16
Li4Mg23B54,mp-530613,0.0,5.47763572,0.04014986394200726,"{3: 4, 12: 23, 5: 54}","[3, 5, 12]",345541223,Li4Mg23B54
CsLi4(BO2)5,mp-1019716,4.4885,-0.65367039,0.0027444496944450947,"{55: 1, 3: 4, 5: 5, 8: 10}","[3, 5, 8, 55]",3455810551,Cs1Li4B5O10
Li4B7ClO12,mp-1222565,5.8739,0.43561653,0.005676340208313313,"{3: 4, 5: 7, 17: 1, 8: 12}","[3, 5, 8, 17]",3457812171,Li4B7Cl1O12
Cs3Li4(BO2)7,mp-1019615,4.5217,0.2681632,0.0,"{55: 3, 3: 4, 5: 7, 8: 14}","[3, 5, 8, 55]",3457814553,Cs3Li4B7O14
Li4CO4,mp-1180721,4.2363,-0.07319655,0.0701955988888896,"{3: 4, 6: 1, 8: 4}","[3, 6, 8]",346184,Li4C1O4
Li4UC3O11,mp-935267,2.3419,1.03550012,0.03510659013157902,"{3: 4, 92: 1, 6: 3, 8: 11}","[3, 6, 8, 92]",3463811921,Li4U1C3O11
Li4V(CO3)4,mp-759521,1.2907,0.41025685,0.06892382416666454,"{3: 4, 23: 1, 6: 4, 8: 12}","[3, 6, 8, 23]",3464812231,Li4V1C4O12
Na2Li4Mn2C4SO16,mp-759748,3.8861,1.40187316,0.05495535844827426,"{11: 2, 3: 4, 25: 2, 6: 4, 16: 1, 8: 16}","[3, 6, 8, 11, 16, 25]",3464816112161252,Na2Li4Mn2C4S1O16
Na2Li4Co2C4SO16,mp-760207,2.6305,1.15715341,0.056076611206896665,"{11: 2, 3: 4, 27: 2, 6: 4, 16: 1, 8: 16}","[3, 6, 8, 11, 16, 27]",3464816112161272,Na2Li4Co2C4S1O16
Na2Li4Ni2C4SO16,mp-758866,2.9563,1.26130847,0.054254273103444106,"{11: 2, 3: 4, 28: 2, 6: 4, 16: 1, 8: 16}","[3, 6, 8, 11, 16, 28]",3464816112161282,Na2Li4Ni2C4S1O16
Li4V2C4SO16,mp-776347,0.8724000000000001,0.93003229,0.06642971972222433,"{3: 4, 23: 2, 6: 4, 16: 1, 8: 16}","[3, 6, 8, 16, 23]",3464816161232,Li4V2C4S1O16
Li4Cr2C4SO16,mp-771912,2.0016,0.67654536,0.07017061379629652,"{3: 4, 24: 2, 6: 4, 16: 1, 8: 16}","[3, 6, 8, 16, 24]",3464816161242,Li4Cr2C4S1O16
Li4Mn2C4SO16,mp-776358,0.7852,0.60973851,0.06791401898147953,"{3: 4, 25: 2, 6: 4, 16: 1, 8: 16}","[3, 6, 8, 16, 25]",3464816161252,Li4Mn2C4S1O16
Li4Co2C4SO16,mp-770944,0.06580000000000008,1.47845574,0.08744368672840608,"{3: 4, 27: 2, 6: 4, 16: 1, 8: 16}","[3, 6, 8, 16, 27]",3464816161272,Li4Co2C4S1O16
Li4Ni2C4SO16,mp-778481,0.0,0.10726106,0.09808866185185039,"{3: 4, 28: 2, 6: 4, 16: 1, 8: 16}","[3, 6, 8, 16, 28]",3464816161282,Li4Ni2C4S1O16
Li4Sb2C4SO16,mp-775852,2.5505999999999998,1.37433418,0.09566823027778071,"{3: 4, 51: 2, 6: 4, 16: 1, 8: 16}","[3, 6, 8, 16, 51]",3464816161512,Li4Sb2C4S1O16
Li4Bi2C4SO16,mp-768991,1.9868,0.85813446,0.07561867814814693,"{3: 4, 83: 2, 6: 4, 16: 1, 8: 16}","[3, 6, 8, 16, 83]",3464816161832,Li4Bi2C4S1O16
Li4V3(CO3)6,mp-758087,0.0,3.37152567,0.05498255406250063,"{3: 4, 23: 3, 6: 6, 8: 18}","[3, 6, 8, 23]",3466818233,Li4V3C6O18
Li4Cr3(CO3)6,mp-758282,0.6537999999999999,3.13130167,0.04959073840725914,"{3: 4, 24: 3, 6: 6, 8: 18}","[3, 6, 8, 24]",3466818243,Li4Cr3C6O18
Li4NCl,mp-29149,1.7617,1.93683656,0.0,"{3: 4, 7: 1, 17: 1}","[3, 7, 17]",3471171,Li4N1Cl1
Li4NO,mp-1077223,0.0,0.41043126,0.15401401791666647,"{3: 4, 7: 1, 8: 1}","[3, 7, 8]",347181,Li4N1O1
SrLi4N2,mp-15845,0.8873999999999999,0.7815771,0.0,"{38: 1, 3: 4, 7: 2}","[3, 7, 38]",3472381,Sr1Li4N2
Li47Mn5As19,mp-532427,0.0,2.67264672,0.053763500494576455,"{3: 47, 25: 5, 33: 19}","[3, 25, 33]",3472553319,Li47Mn5As19
Li4TaN3,mp-30129,2.6752,1.47590739,0.0,"{3: 4, 73: 1, 7: 3}","[3, 7, 73]",3473731,Li4Ta1N3
Li4Ca2Mg(SiN3)2,mp-1020016,3.0547,3.93402871,0.0,"{3: 4, 20: 2, 12: 1, 14: 2, 7: 6}","[3, 7, 12, 14, 20]",3476121142202,Li4Ca2Mg1Si2N6
Li4Ca3(SiN3)2,mp-567219,2.2904,4.25002498,0.0,"{3: 4, 20: 3, 14: 2, 7: 6}","[3, 7, 14, 20]",3476142203,Li4Ca3Si2N6
Sr3Li4(SiN3)2,mp-1104857,2.107,5.98643289,0.0,"{38: 3, 3: 4, 14: 2, 7: 6}","[3, 7, 14, 38]",3476142383,Sr3Li4Si2N6
Sr3Li4(GeN3)2,mp-567371,2.0534,2.9730493,0.0,"{38: 3, 3: 4, 32: 2, 7: 6}","[3, 7, 32, 38]",3476322383,Sr3Li4Ge2N6
Li4Pt,mp-1211180,0.0,-0.02478388,0.44125183733333273,"{3: 4, 78: 1}","[3, 78]",34781,Li4Pt1
Li47(CoO4)8,mp-1177487,0.8284,0.97335723,0.022939561695414667,"{3: 47, 27: 8, 8: 32}","[3, 8, 27]",347832278,Li47Co8O32
Li47(NiO4)8,mp-850945,1.067,0.89211291,0.037424041130270425,"{3: 47, 28: 8, 8: 32}","[3, 8, 28]",347832288,Li47Ni8O32
Li4V2SiGeO10,mp-772830,1.9746000000000001,2.01888986,0.007175905920145276,"{3: 4, 23: 2, 14: 1, 32: 1, 8: 10}","[3, 8, 14, 23, 32]",34810141232321,Li4V2Si1Ge1O10