formula,material_id,band_gap,efermi,energy_above_hull,comp_atoms,sorted_keys_comp_atoms,comp_number,new_formula
Li3Mn2OF5,mp-753529,1.9747,1.66171332,0.10826480136363426,"{3: 3, 25: 2, 8: 1, 9: 5}","[3, 8, 9, 25]",338195252,Li3Mn2O1F5
Li3Co2OF5,mp-849429,1.5355999999999999,1.23163959,0.09972086159090665,"{3: 3, 27: 2, 8: 1, 9: 5}","[3, 8, 9, 27]",338195272,Li3Co2O1F5
Li3Ni2OF5,mp-859785,0.4111999999999999,0.68380479,2.261579075909082,"{3: 3, 28: 2, 8: 1, 9: 5}","[3, 8, 9, 28]",338195282,Li3Ni2O1F5
Li3VOF6,mp-759965,2.9678,-1.1168195,0.07989077856060955,"{3: 3, 23: 1, 8: 1, 9: 6}","[3, 8, 9, 23]",338196231,Li3V1O1F6
Li3NbOF6,mp-769384,4.9368,-1.39814408,0.051663940795454444,"{3: 3, 41: 1, 8: 1, 9: 6}","[3, 8, 9, 41]",338196411,Li3Nb1O1F6
Li3V2OF7,mp-752612,2.0167,0.10562241,0.05201059591345558,"{3: 3, 23: 2, 8: 1, 9: 7}","[3, 8, 9, 23]",338197232,Li3V2O1F7
Li3Mn3OF7,mp-761165,2.2852,1.13853405,0.06747732714285792,"{3: 3, 25: 3, 8: 1, 9: 7}","[3, 8, 9, 25]",338197253,Li3Mn3O1F7
Li3Co3OF7,mp-761096,2.3176,0.48871513,0.03993086374999866,"{3: 3, 27: 3, 8: 1, 9: 7}","[3, 8, 9, 27]",338197273,Li3Co3O1F7
Li3Ni3OF7,mp-753329,3.1619,1.04150096,0.037501433035700416,"{3: 3, 28: 3, 8: 1, 9: 7}","[3, 8, 9, 28]",338197283,Li3Ni3O1F7
Li3Ta7O19,mp-772220,2.8734,1.66047068,0.06582978913793269,"{3: 3, 73: 7, 8: 19}","[3, 8, 73]",33819737,Li3Ta7O19
Li3Mn10O20,mp-705636,0.0,2.31508788,0.07877923801262998,"{3: 3, 25: 10, 8: 20}","[3, 8, 25]",338202510,Li3Mn10O20
Li3Pb,mp-30760,0.0,4.13537573,0.0019604210000014888,"{3: 3, 82: 1}","[3, 82]",33821,Li3Pb1
Li3Mn2(PO3)7,mp-780898,4.0146,1.49202672,0.08312996815657137,"{3: 3, 25: 2, 15: 7, 8: 21}","[3, 8, 15, 25]",33821157252,Li3Mn2P7O21
Li3Ni2(PO3)7,mp-859106,4.0723,1.3005985,0.09050027755049861,"{3: 3, 28: 2, 15: 7, 8: 21}","[3, 8, 15, 28]",33821157282,Li3Ni2P7O21
Li3Sn2(PO3)7,mp-757560,4.3251,1.68508677,0.0724697204040341,"{3: 3, 50: 2, 15: 7, 8: 21}","[3, 8, 15, 50]",33821157502,Li3Sn2P7O21
NaLi3Ti2Al2(PO4)6,mp-776523,2.5061,1.84175244,0.03913158149121987,"{11: 1, 3: 3, 22: 2, 13: 2, 15: 6, 8: 24}","[3, 8, 11, 13, 15, 22]",33824111132156222,Na1Li3Ti2Al2P6O24
NaLi3Ga4(SiO3)8,mp-1220817,4.3276,2.46240011,0.04176675395832952,"{11: 1, 3: 3, 31: 4, 14: 8, 8: 24}","[3, 8, 11, 14, 31]",33824111148314,Na1Li3Ga4Si8O24
NaLi3Ti2Cr2(PO4)6,mp-776043,2.6201,1.05509141,0.01902395934211043,"{11: 1, 3: 3, 22: 2, 24: 2, 15: 6, 8: 24}","[3, 8, 11, 15, 22, 24]",33824111156222242,Na1Li3Ti2Cr2P6O24
Na2Li3Ti3Al(PO4)6,mp-769078,0.06979999999999986,4.53872184,0.06589046811528565,"{11: 2, 3: 3, 22: 3, 13: 1, 15: 6, 8: 24}","[3, 8, 11, 13, 15, 22]",33824112131156223,Na2Li3Ti3Al1P6O24
Na5Li3V8O24,mp-1220829,3.0604,-0.54890404,0.012107732624998313,"{11: 5, 3: 3, 23: 8, 8: 24}","[3, 8, 11, 23]",33824115238,Na5Li3V8O24
Li3Cr4P5O24,mp-1177807,0.9424000000000001,0.66569706,0.09576986475694405,"{3: 3, 24: 4, 15: 5, 8: 24}","[3, 8, 15, 24]",33824155244,Li3Cr4P5O24
Li3Mo4P5O24,mp-705470,2.5369,1.01174909,0.037757108611184975,"{3: 3, 42: 4, 15: 5, 8: 24}","[3, 8, 15, 42]",33824155424,Li3Mo4P5O24
Li3P5(WO6)4,mp-1177533,3.516,0.71306608,0.0420098265277673,"{3: 3, 15: 5, 74: 4, 8: 24}","[3, 8, 15, 74]",33824155744,Li3P5W4O24
Li3V4(PO4)6,mp-766125,0.6562000000000001,2.02369929,0.01140581676801311,"{3: 3, 23: 4, 15: 6, 8: 24}","[3, 8, 15, 23]",33824156234,Li3V4P6O24
Li3V5(PO4)6,mp-1177556,1.9493000000000003,3.04646677,0.05487041315788943,"{3: 3, 23: 5, 15: 6, 8: 24}","[3, 8, 15, 23]",33824156235,Li3V5P6O24
Li3Cr4(PO4)6,mp-766571,0.0,1.22752918,0.04080524158107668,"{3: 3, 24: 4, 15: 6, 8: 24}","[3, 8, 15, 24]",33824156244,Li3Cr4P6O24
Li3Mn4(PO4)6,mp-766527,0.42789999999999995,1.46186107,0.017665292815312483,"{3: 3, 25: 4, 15: 6, 8: 24}","[3, 8, 15, 25]",33824156254,Li3Mn4P6O24
Li3Mn5(PO4)6,mp-1177609,0.2808999999999999,1.20234942,0.04768594157897166,"{3: 3, 25: 5, 15: 6, 8: 24}","[3, 8, 15, 25]",33824156255,Li3Mn5P6O24
Li3Zr4(PO4)6,mp-771710,0.048199999999999577,4.41923579,0.05702112059653075,"{3: 3, 40: 4, 15: 6, 8: 24}","[3, 8, 15, 40]",33824156404,Li3Zr4P6O24
Li3Sb5(PO4)6,mp-26281,3.9611000000000005,2.56731941,0.021557102894759872,"{3: 3, 51: 5, 15: 6, 8: 24}","[3, 8, 15, 51]",33824156515,Li3Sb5P6O24
Li3Bi5(PO4)6,mp-26835,4.0023,2.10699181,0.04198269407894717,"{3: 3, 83: 5, 15: 6, 8: 24}","[3, 8, 15, 83]",33824156835,Li3Bi5P6O24
Li3Cr(PO3)8,mp-26329,0.0,0.60582624,0.05455710805555025,"{3: 3, 24: 1, 15: 8, 8: 24}","[3, 8, 15, 24]",33824158241,Li3Cr1P8O24
Li3Mo(PO3)8,mp-26319,1.1831,1.00602568,0.047846385208340614,"{3: 3, 42: 1, 15: 8, 8: 24}","[3, 8, 15, 42]",33824158421,Li3Mo1P8O24
Li3La5Ti8O24,mp-1177671,0.0,7.34912441,0.07337379653124998,"{3: 3, 57: 5, 22: 8, 8: 24}","[3, 8, 22, 57]",33824228575,Li3La5Ti8O24
Li3(WO3)8,mp-1222771,0.0,3.25129485,0.013105750678573003,"{3: 3, 74: 8, 8: 24}","[3, 8, 74]",33824748,Li3W8O24
Li3La5Ti6Nb2O26,mp-761156,1.8674999999999997,3.94355183,0.05731261464286064,"{3: 3, 57: 5, 22: 6, 41: 2, 8: 26}","[3, 8, 22, 41, 57]",33826226412575,Li3La5Ti6Nb2O26
Li3Mn4(P2O7)4,mp-1177764,0.0,0.98010935,0.07344345395350249,"{3: 3, 25: 4, 15: 8, 8: 28}","[3, 8, 15, 25]",33828158254,Li3Mn4P8O28
Li3MnO2F,mp-756674,0.6114999999999999,1.09065574,0.10680881750000282,"{3: 3, 25: 1, 8: 2, 9: 1}","[3, 8, 9, 25]",338291251,Li3Mn1O2F1
Li3CoO2F,mp-760920,1.3231000000000002,0.6924698,0.06149972294642758,"{3: 3, 27: 1, 8: 2, 9: 1}","[3, 8, 9, 27]",338291271,Li3Co1O2F1
Li3NiO2F,mp-753400,2.4593999999999996,3.3644948,0.09664609071428476,"{3: 3, 28: 1, 8: 2, 9: 1}","[3, 8, 9, 28]",338291281,Li3Ni1O2F1
Li3V5P7O29,mp-1177763,0.8812,0.71156478,0.05146872164773075,"{3: 3, 23: 5, 15: 7, 8: 29}","[3, 8, 15, 23]",33829157235,Li3V5P7O29
Li3P7W5O29,mp-851107,2.2116999999999996,1.38255723,0.058688839886364974,"{3: 3, 15: 7, 74: 5, 8: 29}","[3, 8, 15, 74]",33829157745,Li3P7W5O29
Li3V3P8O29,mp-1177582,1.2238,0.77938028,0.03945362046512191,"{3: 3, 23: 3, 15: 8, 8: 29}","[3, 8, 15, 23]",33829158233,Li3V3P8O29
Li3Mn3P8O29,mp-1177655,0.0,-0.48758556,0.07958404467054603,"{3: 3, 25: 3, 15: 8, 8: 29}","[3, 8, 15, 25]",33829158253,Li3Mn3P8O29
Li3Nb3P8O29,mp-777751,2.4912,-0.03205653,0.03274302980232413,"{3: 3, 41: 3, 15: 8, 8: 29}","[3, 8, 15, 41]",33829158413,Li3Nb3P8O29
Li3Sb3P8O29,mp-776510,2.6036,0.77265989,0.008803322499995936,"{3: 3, 51: 3, 15: 8, 8: 29}","[3, 8, 15, 51]",33829158513,Li3Sb3P8O29
Li3Bi3P8O29,mp-778111,0.5346,0.18421544,0.09240864141472915,"{3: 3, 83: 3, 15: 8, 8: 29}","[3, 8, 15, 83]",33829158833,Li3Bi3P8O29
Li3V(OF)2,mp-753080,1.1774999999999998,2.89126082,0.07984293843750034,"{3: 3, 23: 1, 8: 2, 9: 2}","[3, 8, 9, 23]",338292231,Li3V1O2F2
Li3Mn(OF)2,mp-753602,2.4193,1.22530869,0.02442540687499939,"{3: 3, 25: 1, 8: 2, 9: 2}","[3, 8, 9, 25]",338292251,Li3Mn1O2F2
Li3Co(OF)2,mp-754312,1.2644,1.59688304,0.13059817562499987,"{3: 3, 27: 1, 8: 2, 9: 2}","[3, 8, 9, 27]",338292271,Li3Co1O2F2
Li3Ni(OF)2,mp-761272,0.3054000000000001,1.98163974,0.08219335197916688,"{3: 3, 28: 1, 8: 2, 9: 2}","[3, 8, 9, 28]",338292281,Li3Ni1O2F2
Li3V12O29,mp-772492,0.0,1.8409273,0.042285380454549326,"{3: 3, 23: 12, 8: 29}","[3, 8, 23]",338292312,Li3V12O29
Li3Co2O2F3,mp-760300,0.0,2.98486538,0.16580061350000008,"{3: 3, 27: 2, 8: 2, 9: 3}","[3, 8, 9, 27]",338293272,Li3Co2O2F3
Li3Ni2O2F3,mp-753703,2.2142,3.31813187,0.034348318000000155,"{3: 3, 28: 2, 8: 2, 9: 3}","[3, 8, 9, 28]",338293282,Li3Ni2O2F3
Li3Mn5O2F9,mp-758528,1.5145,1.31024981,0.11602418315789453,"{3: 3, 25: 5, 8: 2, 9: 9}","[3, 8, 9, 25]",338299255,Li3Mn5O2F9
KNa2Li3Cr2(Si2O5)6,mp-16282,4.3993,1.85527111,0.0,"{19: 1, 11: 2, 3: 3, 24: 2, 14: 12, 8: 30}","[3, 8, 11, 14, 19, 24]",338301121412191242,K1Na2Li3Cr2Si12O30
KNa2Li3Zr2(Si2O5)6,mp-851120,0.0,5.72974242,0.058350306886362446,"{19: 1, 11: 2, 3: 3, 40: 2, 14: 12, 8: 30}","[3, 8, 11, 14, 19, 40]",338301121412191402,K1Na2Li3Zr2Si12O30
Na7Li3V10O30,mp-774938,2.8056,-0.56661444,0.01209276719999508,"{11: 7, 3: 3, 23: 10, 8: 30}","[3, 8, 11, 23]",338301172310,Na7Li3V10O30
KLi3Zr2(Si2O5)6,mp-16055,5.1498,0.62227051,0.0,"{19: 1, 3: 3, 40: 2, 14: 12, 8: 30}","[3, 8, 14, 19, 40]",338301412191402,K1Li3Zr2Si12O30
KLi3Si12(SnO15)2,mp-6844,4.4356,1.05406974,0.0,"{19: 1, 3: 3, 14: 12, 50: 2, 8: 30}","[3, 8, 14, 19, 50]",338301412191502,K1Li3Si12Sn2O30
Li3Bi,mp-23222,0.34289999999999976,2.90571406,0.0,"{3: 3, 83: 1}","[3, 83]",33831,Li3Bi1
Li3Ta12O31,mp-1222700,0.9834,2.25427658,0.060676970424639265,"{3: 3, 73: 12, 8: 31}","[3, 8, 73]",338317312,Li3Ta12O31
Li3V4P9O32,mp-705002,1.3339,1.22715353,0.03438622590280538,"{3: 3, 23: 4, 15: 9, 8: 32}","[3, 8, 15, 23]",33832159234,Li3V4P9O32
Li3Cr4P9O32,mp-705371,0.22520000000000007,0.75437323,0.07168285864582291,"{3: 3, 24: 4, 15: 9, 8: 32}","[3, 8, 15, 24]",33832159244,Li3Cr4P9O32
Li3Mo4P9O32,mp-705341,1.5540999999999998,1.36676367,0.03283805663193551,"{3: 3, 42: 4, 15: 9, 8: 32}","[3, 8, 15, 42]",33832159424,Li3Mo4P9O32
Li3CrO3,mp-770755,0.6804999999999999,0.99916909,0.06828936214285797,"{3: 3, 24: 1, 8: 3}","[3, 8, 24]",3383241,Li3Cr1O3
Li3MnO3,mp-756408,1.3918,0.53552252,0.016778587142857404,"{3: 3, 25: 1, 8: 3}","[3, 8, 25]",3383251,Li3Mn1O3
Li3CoO3,mp-755926,1.2294,0.93232611,0.045126762142857935,"{3: 3, 27: 1, 8: 3}","[3, 8, 27]",3383271,Li3Co1O3
Li3NiO3,mp-773516,0.9276,0.80282852,0.023292737619048154,"{3: 3, 28: 1, 8: 3}","[3, 8, 28]",3383281,Li3Ni1O3
Li3ZrO3,mp-772899,0.0,2.52282692,0.07516412882143086,"{3: 3, 40: 1, 8: 3}","[3, 8, 40]",3383401,Li3Zr1O3
Li3InO3,mp-27417,2.8858000000000006,2.1158491,0.010260926071429033,"{3: 3, 49: 1, 8: 3}","[3, 8, 49]",3383491,Li3In1O3
Li3SbO3,mp-756935,2.8939999999999997,2.48715345,0.009161866428573084,"{3: 3, 51: 1, 8: 3}","[3, 8, 51]",3383511,Li3Sb1O3
Li3U7(PO7)5,mp-557826,1.9176,1.408165,0.004160980649970725,"{3: 3, 92: 7, 15: 5, 8: 35}","[3, 8, 15, 92]",33835155927,Li3U7P5O35
Li3U7(AsO7)5,mp-1223319,1.7877,2.55790234,0.003051518800015529,"{3: 3, 92: 7, 33: 5, 8: 35}","[3, 8, 33, 92]",33835335927,Li3U7As5O35
Li3LaO3,mp-780226,3.8721999999999994,2.01402055,0.09593020303571276,"{3: 3, 57: 1, 8: 3}","[3, 8, 57]",3383571,Li3La1O3
Li3La8Ti9Cr3O36,mp-743640,1.2976,5.29893107,0.06686039665253851,"{3: 3, 57: 8, 22: 9, 24: 3, 8: 36}","[3, 8, 22, 24, 57]",33836229243578,Li3La8Ti9Cr3O36
Li3GdO3,mp-1177660,3.5829999999999997,1.10173033,0.05026264369047606,"{3: 3, 64: 1, 8: 3}","[3, 8, 64]",3383641,Li3Gd1O3
KLi3Ca7Ti2Si12(O18F)2,mp-641919,3.5221,1.42806931,0.0,"{19: 1, 3: 3, 20: 7, 22: 2, 14: 12, 8: 36, 9: 2}","[3, 8, 9, 14, 19, 20, 22]",33836921412191207222,K1Li3Ca7Ti2Si12O36F2
Li3HfO3,mp-757794,0.0,2.6822044,0.08929038352040841,"{3: 3, 72: 1, 8: 3}","[3, 8, 72]",3383721,Li3Hf1O3
Li3AuO3,mp-7471,1.8710999999999998,0.66930665,0.0,"{3: 3, 79: 1, 8: 3}","[3, 8, 79]",3383791,Li3Au1O3
KLi3Ca7Ti2(Si6O19)2,mp-1197175,0.0121,1.49108851,0.02959904620105913,"{19: 1, 3: 3, 20: 7, 22: 2, 14: 12, 8: 38}","[3, 8, 14, 19, 20, 22]",338381412191207222,K1Li3Ca7Ti2Si12O38
Li3BiO3,mp-28510,2.4379,1.47422843,0.0,"{3: 3, 83: 1, 8: 3}","[3, 8, 83]",3383831,Li3Bi1O3
Li3VO3F,mp-758195,1.7782,1.95804178,0.05096898875000022,"{3: 3, 23: 1, 8: 3, 9: 1}","[3, 8, 9, 23]",338391231,Li3V1O3F1
Li3VO3F2,mp-850210,3.2584,-1.15234053,0.07513319444444289,"{3: 3, 23: 1, 8: 3, 9: 2}","[3, 8, 9, 23]",338392231,Li3V1O3F2
Li3V2(OF)3,mp-1280055,0.6251,2.17648755,0.08432724193181773,"{3: 3, 23: 2, 8: 3, 9: 3}","[3, 8, 9, 23]",338393232,Li3V2O3F3
Li3V3O3F5,mp-759089,0.8607,2.56846435,0.08451914508928571,"{3: 3, 23: 3, 8: 3, 9: 5}","[3, 8, 9, 23]",338395233,Li3V3O3F5
Li3Mn3O3F5,mp-753322,0.25519999999999987,1.47476616,0.06356899334821797,"{3: 3, 25: 3, 8: 3, 9: 5}","[3, 8, 9, 25]",338395253,Li3Mn3O3F5
Li3Ni3O3F5,mp-758736,0.0,1.10577017,0.07758778041665693,"{3: 3, 28: 3, 8: 3, 9: 5}","[3, 8, 9, 28]",338395283,Li3Ni3O3F5
Li3V4(OF3)3,mp-753498,1.0596999999999999,1.84616219,0.07052802187500262,"{3: 3, 23: 4, 8: 3, 9: 9}","[3, 8, 9, 23]",338399234,Li3V4O3F9
K5Li3Ti8(AsO5)8,mp-766047,3.0181,-0.0601007,0.008487034687499673,"{19: 5, 3: 3, 22: 8, 33: 8, 8: 40}","[3, 8, 19, 22, 33]",33840195228338,K5Li3Ti8As8O40
NaLi3SiO4,mp-559904,4.4978,0.89240422,0.0,"{11: 1, 3: 3, 14: 1, 8: 4}","[3, 8, 11, 14]",3384111141,Na1Li3Si1O4
NaLi3GeO4,mp-561254,3.6606,0.01100571,0.0,"{11: 1, 3: 3, 32: 1, 8: 4}","[3, 8, 11, 32]",3384111321,Na1Li3Ge1O4
Na2Li3CoO4,mp-504854,1.4597,1.26346749,0.0,"{11: 2, 3: 3, 27: 1, 8: 4}","[3, 8, 11, 27]",3384112271,Na2Li3Co1O4
Na2Li3GaO4,mp-540945,3.2395,0.41224877,0.0,"{11: 2, 3: 3, 31: 1, 8: 4}","[3, 8, 11, 31]",3384112311,Na2Li3Ga1O4
Li3MgNiO4,mp-776409,0.9152,1.1060059,0.06544637776234286,"{3: 3, 12: 1, 28: 1, 8: 4}","[3, 8, 12, 28]",3384121281,Li3Mg1Ni1O4
Li3MnAlO4,mp-770591,0.8266999999999998,2.47277573,0.06898780312499753,"{3: 3, 25: 1, 13: 1, 8: 4}","[3, 8, 13, 25]",3384131251,Li3Mn1Al1O4
Li3AlCoO4,mp-771900,1.7269,1.92456599,0.08654386106481304,"{3: 3, 13: 1, 27: 1, 8: 4}","[3, 8, 13, 27]",3384131271,Li3Al1Co1O4
Li3AlNiO4,mp-770491,2.4289000000000005,2.86642777,0.09785425145833315,"{3: 3, 13: 1, 28: 1, 8: 4}","[3, 8, 13, 28]",3384131281,Li3Al1Ni1O4
Li3SiO4,mp-1211198,0.0,-0.12940008,0.06370494787500025,"{3: 3, 14: 1, 8: 4}","[3, 8, 14]",3384141,Li3Si1O4
KLi3SiO4,mp-1211498,4.875699999999999,0.69883036,0.0,"{19: 1, 3: 3, 14: 1, 8: 4}","[3, 8, 14, 19]",3384141191,K1Li3Si1O4
Li3PO4,mp-13725,5.818099999999999,0.6255881,0.0,"{3: 3, 15: 1, 8: 4}","[3, 8, 15]",3384151,Li3P1O4
Li3CrClO4,mp-756743,2.2008,-0.28590177,0.0285187912962952,"{3: 3, 24: 1, 17: 1, 8: 4}","[3, 8, 17, 24]",3384171241,Li3Cr1Cl1O4
KLi3TiO4,mp-1211546,4.6824,4.55711603,0.0,"{19: 1, 3: 3, 22: 1, 8: 4}","[3, 8, 19, 22]",3384191221,K1Li3Ti1O4
KLi3GeO4,mp-18002,3.9368,-0.12183589,0.0,"{19: 1, 3: 3, 32: 1, 8: 4}","[3, 8, 19, 32]",3384191321,K1Li3Ge1O4
KLi3PbO4,mp-559106,1.6930999999999998,1.17055634,0.0,"{19: 1, 3: 3, 82: 1, 8: 4}","[3, 8, 19, 82]",3384191821,K1Li3Pb1O4
K2Li3CrO4,mp-766413,1.0503999999999998,3.37872956,0.0707193158600008,"{19: 2, 3: 3, 24: 1, 8: 4}","[3, 8, 19, 24]",3384192241,K2Li3Cr1O4
K2Li3MnO4,mp-773015,0.4625999999999999,2.11169968,0.03448304795833934,"{19: 2, 3: 3, 25: 1, 8: 4}","[3, 8, 19, 25]",3384192251,K2Li3Mn1O4
K2Li3CoO4,mp-757868,1.2641,2.54033704,0.0,"{19: 2, 3: 3, 27: 1, 8: 4}","[3, 8, 19, 27]",3384192271,K2Li3Co1O4
K2Li3NiO4,mp-774432,1.4741000000000002,2.62273194,0.0,"{19: 2, 3: 3, 28: 1, 8: 4}","[3, 8, 19, 28]",3384192281,K2Li3Ni1O4
K2Li3GaO4,mp-17774,3.3151,0.38391842,0.0,"{19: 2, 3: 3, 31: 1, 8: 4}","[3, 8, 19, 31]",3384192311,K2Li3Ga1O4
Li3VO4,mp-19219,3.6915999999999998,-0.67359684,0.0,"{3: 3, 23: 1, 8: 4}","[3, 8, 23]",3384231,Li3V1O4
Li3CrO4,mp-770632,0.8956999999999999,0.89580871,0.0,"{3: 3, 24: 1, 8: 4}","[3, 8, 24]",3384241,Li3Cr1O4
Li3MnO4,mp-764778,0.0,1.39920794,0.06621107812500071,"{3: 3, 25: 1, 8: 4}","[3, 8, 25]",3384251,Li3Mn1O4
Li3Mn2O4,mp-691164,0.09489999999999998,3.49779794,0.19449011000000382,"{3: 3, 25: 2, 8: 4}","[3, 8, 25]",3384252,Li3Mn2O4
Li3LaNiO4,mp-768238,2.2762000000000002,6.02486293,0.07998346486111174,"{3: 3, 57: 1, 28: 1, 8: 4}","[3, 8, 28, 57]",3384281571,Li3La1Ni1O4
Rb2Li3GaO4,mp-1209478,3.5182,3.74070988,0.0,"{37: 2, 3: 3, 31: 1, 8: 4}","[3, 8, 31, 37]",3384311372,Rb2Li3Ga1O4
Cs2Li3GaO4,mp-555140,3.6593,1.14481623,0.0,"{55: 2, 3: 3, 31: 1, 8: 4}","[3, 8, 31, 55]",3384311552,Cs2Li3Ga1O4
Li3GeO4,mp-1211318,0.0,-0.868925,0.08229057316666655,"{3: 3, 32: 1, 8: 4}","[3, 8, 32]",3384321,Li3Ge1O4
Li3AsO4,mp-9197,4.1268,-0.03226995,0.0,"{3: 3, 33: 1, 8: 4}","[3, 8, 33]",3384331,Li3As1O4
Li3NbO4,mp-31488,3.7757,0.91375854,0.0,"{3: 3, 41: 1, 8: 4}","[3, 8, 41]",3384411,Li3Nb1O4
Li3RuO4,mp-37692,0.0,2.84898333,0.0,"{3: 3, 44: 1, 8: 4}","[3, 8, 44]",3384441,Li3Ru1O4
Li3SbO4,mp-5769,3.0560000000000005,2.6938652,0.0,"{3: 3, 51: 1, 8: 4}","[3, 8, 51]",3384511,Li3Sb1O4
Li3TaO4,mp-3151,4.2438,1.0551473,0.0,"{3: 3, 73: 1, 8: 4}","[3, 8, 73]",3384731,Li3Ta1O4
Li3BiO4,mp-557738,1.0578999999999996,2.09080846,0.0,"{3: 3, 83: 1, 8: 4}","[3, 8, 83]",3384831,Li3Bi1O4
Li3Mn8(OF3)4,mp-1661801,0.7559,1.0353796,0.07753087074074205,"{3: 3, 25: 8, 8: 4, 9: 12}","[3, 8, 9, 25]",3384912258,Li3Mn8O4F12
Li3Co8(OF3)4,mp-780689,0.0,0.86151574,0.11018258944444614,"{3: 3, 27: 8, 8: 4, 9: 12}","[3, 8, 9, 27]",3384912278,Li3Co8O4F12
Li3Ni8(OF3)4,mp-759452,0.0,1.41102074,0.07614501407406671,"{3: 3, 28: 8, 8: 4, 9: 12}","[3, 8, 9, 28]",3384912288,Li3Ni8O4F12
Li3UO4,mp-551675,0.3780000000000001,5.60618787,0.0,"{3: 3, 92: 1, 8: 4}","[3, 8, 92]",3384921,Li3U1O4
Li3V2(O2F)2,mp-1567479,1.5350000000000001,1.39124781,0.053512529886366345,"{3: 3, 23: 2, 8: 4, 9: 2}","[3, 8, 9, 23]",338492232,Li3V2O4F2
Li3Co4O4F3,mp-760940,0.0,3.22263427,0.13002469928571436,"{3: 3, 27: 4, 8: 4, 9: 3}","[3, 8, 9, 27]",338493274,Li3Co4O4F3
Li3Ni4O4F3,mp-752750,2.2384,4.12886171,0.04563562357142725,"{3: 3, 28: 4, 8: 4, 9: 3}","[3, 8, 9, 28]",338493284,Li3Ni4O4F3
Li3V2(OF)4,mp-776500,1.2909,0.9104108,0.07848634903846463,"{3: 3, 23: 2, 8: 4, 9: 4}","[3, 8, 9, 23]",338494232,Li3V2O4F4
Li3Mn3(OF)4,mp-753615,0.5171999999999999,0.88873032,0.05004578456845188,"{3: 3, 25: 3, 8: 4, 9: 4}","[3, 8, 9, 25]",338494253,Li3Mn3O4F4
Li3AlSiO5,mp-1020023,4.4558,1.6473903,0.0,"{3: 3, 13: 1, 14: 1, 8: 5}","[3, 8, 13, 14]",3385131141,Li3Al1Si1O5
Li3AlCrO5,mp-770586,1.7516999999999998,1.87400195,0.055797743250002085,"{3: 3, 13: 1, 24: 1, 8: 5}","[3, 8, 13, 24]",3385131241,Li3Al1Cr1O5
Li3AlGeO5,mp-6765,3.9691999999999994,0.80857524,0.0,"{3: 3, 13: 1, 32: 1, 8: 5}","[3, 8, 13, 32]",3385131321,Li3Al1Ge1O5
Li3TiSiO5,mp-766449,0.02629999999999999,4.83019577,0.09031252449998828,"{3: 3, 22: 1, 14: 1, 8: 5}","[3, 8, 14, 22]",3385141221,Li3Ti1Si1O5
Li3VSiO5,mp-766229,1.6548999999999996,2.45747595,0.04964644374999061,"{3: 3, 23: 1, 14: 1, 8: 5}","[3, 8, 14, 23]",3385141231,Li3V1Si1O5
Li3CrSiO5,mp-765411,3.1273,3.7578164,0.07812936674999893,"{3: 3, 24: 1, 14: 1, 8: 5}","[3, 8, 14, 24]",3385141241,Li3Cr1Si1O5
Li3MnSiO5,mp-778997,0.0,1.43250932,0.07822549062499551,"{3: 3, 25: 1, 14: 1, 8: 5}","[3, 8, 14, 25]",3385141251,Li3Mn1Si1O5
Li3CoSiO5,mp-758411,0.8665,0.9927074,0.043687516000000315,"{3: 3, 27: 1, 14: 1, 8: 5}","[3, 8, 14, 27]",3385141271,Li3Co1Si1O5
Li3SiNiO5,mp-766472,0.6113,1.33155467,0.04884361458333153,"{3: 3, 14: 1, 28: 1, 8: 5}","[3, 8, 14, 28]",3385141281,Li3Si1Ni1O5
Li3GaSiO5,mp-16996,3.6429,0.93697693,0.0,"{3: 3, 31: 1, 14: 1, 8: 5}","[3, 8, 14, 31]",3385141311,Li3Ga1Si1O5
Li3SiBiO5,mp-758245,3.2412,1.92699346,0.05691866574999871,"{3: 3, 14: 1, 83: 1, 8: 5}","[3, 8, 14, 83]",3385141831,Li3Si1Bi1O5
Li3MnPO5,mp-757770,2.2055000000000002,2.74361373,0.08601732675000218,"{3: 3, 25: 1, 15: 1, 8: 5}","[3, 8, 15, 25]",3385151251,Li3Mn1P1O5
Li3CoPO5,mp-757007,0.0,4.66313011,0.059912645999999015,"{3: 3, 27: 1, 15: 1, 8: 5}","[3, 8, 15, 27]",3385151271,Li3Co1P1O5
Li3MnCoO5,mp-1173984,1.7259000000000002,1.9155083,0.049068432499997705,"{3: 3, 25: 1, 27: 1, 8: 5}","[3, 8, 25, 27]",3385251271,Li3Mn1Co1O5
Li3Mn2O5,mp-1173962,1.0029000000000003,3.64322127,0.021640222999987913,"{3: 3, 25: 2, 8: 5}","[3, 8, 25]",3385252,Li3Mn2O5
Li3CoRuO5,mp-1222819,0.0,3.32950008,0.12206737699999248,"{3: 3, 27: 1, 44: 1, 8: 5}","[3, 8, 27, 44]",3385271441,Li3Co1Ru1O5
Li3Co2O5,mp-1173960,1.0581,2.2644678,0.027677708999999773,"{3: 3, 27: 2, 8: 5}","[3, 8, 27]",3385272,Li3Co2O5
Li3GaGeO5,mp-17685,3.2656,0.10707484,0.0,"{3: 3, 31: 1, 32: 1, 8: 5}","[3, 8, 31, 32]",3385311321,Li3Ga1Ge1O5
Li3Mn28O56,mp-1177832,0.0,2.47648448,0.05029929809673206,"{3: 3, 25: 28, 8: 56}","[3, 8, 25]",338562528,Li3Mn28O56
Li3V24O58,mp-1177621,0.9363000000000001,1.21319883,0.03086667617647798,"{3: 3, 23: 24, 8: 58}","[3, 8, 23]",338582324,Li3V24O58
Li3Co13O5F19,mp-761039,2.2250000000000005,1.35345935,0.09229845468749698,"{3: 3, 27: 13, 8: 5, 9: 19}","[3, 8, 9, 27]",33859192713,Li3Co13O5F19
Li3V3O5F3,mp-759132,1.072,2.40475623,0.07939501723214448,"{3: 3, 23: 3, 8: 5, 9: 3}","[3, 8, 9, 23]",338593233,Li3V3O5F3
Li3Mn3O5F3,mp-753419,0.5133999999999999,1.18629815,0.07321241936012335,"{3: 3, 25: 3, 8: 5, 9: 3}","[3, 8, 9, 25]",338593253,Li3Mn3O5F3
Li3V4O5F7,mp-752564,0.919,1.79847473,0.09787534536184683,"{3: 3, 23: 4, 8: 5, 9: 7}","[3, 8, 9, 23]",338597234,Li3V4O5F7