formula,material_id,band_gap,efermi,energy_above_hull,comp_atoms,sorted_keys_comp_atoms,comp_number,new_formula
Li2NiPO4F,mp-554446,3.6477,5.77692996,0.029674211249992588,"{3: 2, 28: 1, 15: 1, 8: 4, 9: 1}","[3, 8, 9, 15, 28]",328491151281,Li2Ni1P1O4F1
Li2PWO4F,mp-25399,1.9727999999999999,3.20083497,0.28766169527778196,"{3: 2, 15: 1, 74: 1, 8: 4, 9: 1}","[3, 8, 9, 15, 74]",328491151741,Li2P1W1O4F1
Li2UO4,mp-9607,2.1005,2.37647956,0.0,"{3: 2, 92: 1, 8: 4}","[3, 8, 92]",3284921,Li2U1O4
Li2VSO4F3,mp-769602,2.237,0.33400419,0.09068285096590323,"{3: 2, 23: 1, 16: 1, 8: 4, 9: 3}","[3, 8, 9, 16, 23]",328493161231,Li2V1S1O4F3
Li2MnSO4F3,mp-770642,1.4832,0.13081127,0.0837838363920449,"{3: 2, 25: 1, 16: 1, 8: 4, 9: 3}","[3, 8, 9, 16, 25]",328493161251,Li2Mn1S1O4F3
Li2SbSO4F3,mp-769153,4.3691,0.82379886,0.07450529727272048,"{3: 2, 51: 1, 16: 1, 8: 4, 9: 3}","[3, 8, 9, 16, 51]",328493161511,Li2Sb1S1O4F3
Li2Mn3O4F3,mp-767162,0.7646000000000002,2.05425237,0.38280039241319574,"{3: 2, 25: 3, 8: 4, 9: 3}","[3, 8, 9, 25]",328493253,Li2Mn3O4F3
Li2V3(OF)4,mp-752838,0.9256,1.31972527,0.057314432884612465,"{3: 2, 23: 3, 8: 4, 9: 4}","[3, 8, 9, 23]",328494233,Li2V3O4F4
Li2TiSiO5,mp-6332,3.2152999999999996,1.89757356,0.0,"{3: 2, 22: 1, 14: 1, 8: 5}","[3, 8, 14, 22]",3285141221,Li2Ti1Si1O5
Li2VSiO5,mp-18860,2.3621,2.45856119,0.0,"{3: 2, 23: 1, 14: 1, 8: 5}","[3, 8, 14, 23]",3285141231,Li2V1Si1O5
Li2CrSiO5,mp-757461,0.22270000000000012,2.1030817,0.08723770788580332,"{3: 2, 24: 1, 14: 1, 8: 5}","[3, 8, 14, 24]",3285141241,Li2Cr1Si1O5
Li2MnSiO5,mp-755733,0.5558000000000001,2.11285961,0.0900403724444434,"{3: 2, 25: 1, 14: 1, 8: 5}","[3, 8, 14, 25]",3285141251,Li2Mn1Si1O5
Li2LuSiO5,mp-1189864,0.0,1.94672814,0.08876958374073851,"{3: 2, 71: 1, 14: 1, 8: 5}","[3, 8, 14, 71]",3285141711,Li2Lu1Si1O5
Li2Si2O5,mp-4117,5.154,0.73310869,0.0,"{3: 2, 14: 2, 8: 5}","[3, 8, 14]",3285142,Li2Si2O5
Li2VPO5,mp-780725,0.8682000000000003,3.81212304,0.07631801189815146,"{3: 2, 23: 1, 15: 1, 8: 5}","[3, 8, 15, 23]",3285151231,Li2V1P1O5
Li2CrPO5,mp-757132,1.0107999999999997,3.90332198,0.09307123944443951,"{3: 2, 24: 1, 15: 1, 8: 5}","[3, 8, 15, 24]",3285151241,Li2Cr1P1O5
Li2MnPO5,mp-752743,1.0031000000000003,2.40933311,0.07824728425925098,"{3: 2, 25: 1, 15: 1, 8: 5}","[3, 8, 15, 25]",3285151251,Li2Mn1P1O5
Li2SO5,mp-1188639,0.0,-1.33120757,0.28440597999999895,"{3: 2, 16: 1, 8: 5}","[3, 8, 16]",3285161,Li2S1O5
Li2TiVO5,mp-755429,2.2828,1.71406567,0.03122746763889772,"{3: 2, 22: 1, 23: 1, 8: 5}","[3, 8, 22, 23]",3285221231,Li2Ti1V1O5
Li2TiMn2O5,mp-770956,0.2408999999999999,4.12596721,0.0772091925000069,"{3: 2, 22: 1, 25: 2, 8: 5}","[3, 8, 22, 25]",3285221252,Li2Ti1Mn2O5
Li2TiCo2O5,mp-770848,0.8901999999999997,3.66129907,0.05965026650000027,"{3: 2, 22: 1, 27: 2, 8: 5}","[3, 8, 22, 27]",3285221272,Li2Ti1Co2O5
Li2TiNi2O5,mp-770852,1.5476,4.00692603,0.039484312999994664,"{3: 2, 22: 1, 28: 2, 8: 5}","[3, 8, 22, 28]",3285221282,Li2Ti1Ni2O5
Li2TiGeO5,mp-13182,3.4593000000000003,0.95066302,0.00153696861111019,"{3: 2, 22: 1, 32: 1, 8: 5}","[3, 8, 22, 32]",3285221321,Li2Ti1Ge1O5
Li2Ti2O5,mp-756294,3.4224,-0.90307169,0.028946053055555865,"{3: 2, 22: 2, 8: 5}","[3, 8, 22]",3285222,Li2Ti2O5
Li2VCoO5,mp-758263,0.6293,1.14352047,0.0929335723809519,"{3: 2, 23: 1, 27: 1, 8: 5}","[3, 8, 23, 27]",3285231271,Li2V1Co1O5
Li2VGeO5,mp-18809,0.0,3.31334083,0.010562275729160575,"{3: 2, 23: 1, 32: 1, 8: 5}","[3, 8, 23, 32]",3285231321,Li2V1Ge1O5
Li2Co4O5,mp-690530,0.0,3.66191502,0.49879309856060594,"{3: 2, 27: 4, 8: 5}","[3, 8, 27]",3285274,Li2Co4O5
Li2Ge2O5,mp-7998,3.3005000000000004,2.57699199,0.021553242222223545,"{3: 2, 32: 2, 8: 5}","[3, 8, 32]",3285322,Li2Ge2O5
Li2Zr2O5,mp-772105,3.6229999999999998,1.18288129,0.07483205166666629,"{3: 2, 40: 2, 8: 5}","[3, 8, 40]",3285402,Li2Zr2O5
Li2Te2O5,mp-27811,3.2521000000000004,2.44945581,0.0,"{3: 2, 52: 2, 8: 5}","[3, 8, 52]",3285522,Li2Te2O5
Li2Hf2O5,mp-1177942,4.346,5.88845459,0.08030915805555949,"{3: 2, 72: 2, 8: 5}","[3, 8, 72]",3285722,Li2Hf2O5
Li2U2O5,mp-1185149,0.0,5.66622184,0.3293945384587822,"{3: 2, 92: 2, 8: 5}","[3, 8, 92]",3285922,Li2U2O5
Li2V2O5F2,mp-764224,2.2056,-1.38828147,0.06454341136362896,"{3: 2, 23: 2, 8: 5, 9: 2}","[3, 8, 9, 23]",328592232,Li2V2O5F2
Li2Mn4O5F3,mp-754142,0.254,2.56284075,0.0783508569196778,"{3: 2, 25: 4, 8: 5, 9: 3}","[3, 8, 9, 25]",328593254,Li2Mn4O5F3
Li2V4O5F8,mp-752634,0.0,0.47147023,0.08638117014620139,"{3: 2, 23: 4, 8: 5, 9: 8}","[3, 8, 9, 23]",328598234,Li2V4O5F8
Li2Al(NiO2)3,mp-1302787,0.3918999999999997,4.46119724,0.01968564881944701,"{3: 2, 13: 1, 28: 3, 8: 6}","[3, 8, 13, 28]",3286131283,Li2Al1Ni3O6
Li2Al2SiO6,mp-1222720,4.625900000000001,0.52224677,0.027389918560600357,"{3: 2, 13: 2, 14: 1, 8: 6}","[3, 8, 13, 14]",3286132141,Li2Al2Si1O6
Li2MnAl2O6,mp-770689,1.7195999999999998,2.61686648,0.09081494930397316,"{3: 2, 25: 1, 13: 2, 8: 6}","[3, 8, 13, 25]",3286132251,Li2Mn1Al2O6
Li2Cr2SiO6,mp-758734,2.4783,6.26803095,0.06281481681818146,"{3: 2, 24: 2, 14: 1, 8: 6}","[3, 8, 14, 24]",3286141242,Li2Cr2Si1O6
Li2Co2SiO6,mp-752511,0.44989999999999997,2.9420455,0.14287716969698216,"{3: 2, 27: 2, 14: 1, 8: 6}","[3, 8, 14, 27]",3286141272,Li2Co2Si1O6
Li2V(SiO3)2,mp-863421,1.6437,4.67811765,0.07668076943181834,"{3: 2, 23: 1, 14: 2, 8: 6}","[3, 8, 14, 23]",3286142231,Li2V1Si2O6
Li2Cr(SiO3)2,mp-1261497,1.9896999999999996,4.75433211,0.059819803939398675,"{3: 2, 24: 1, 14: 2, 8: 6}","[3, 8, 14, 24]",3286142241,Li2Cr1Si2O6
Li2Mn(SiO3)2,mp-754949,3.4868999999999994,1.7589419,0.012182672196969335,"{3: 2, 25: 1, 14: 2, 8: 6}","[3, 8, 14, 25]",3286142251,Li2Mn1Si2O6
Li2Co(SiO3)2,mp-753142,2.8033999999999994,2.10281787,0.01143246742424342,"{3: 2, 27: 1, 14: 2, 8: 6}","[3, 8, 14, 27]",3286142271,Li2Co1Si2O6
Li2Si2NiO6,mp-1645783,3.7949,5.24882174,0.03581627636364004,"{3: 2, 14: 2, 28: 1, 8: 6}","[3, 8, 14, 28]",3286142281,Li2Si2Ni1O6
Li2VPO6,mp-616566,2.8096,0.89763528,0.014165039999999962,"{3: 2, 23: 1, 15: 1, 8: 6}","[3, 8, 15, 23]",3286151231,Li2V1P1O6
Li2CrPO6,mp-778669,0.8508,2.1598064,0.09184680027380754,"{3: 2, 24: 1, 15: 1, 8: 6}","[3, 8, 15, 24]",3286151241,Li2Cr1P1O6
Li2PWO6,mp-757392,2.6243,2.02529019,0.05569632187500151,"{3: 2, 15: 1, 74: 1, 8: 6}","[3, 8, 15, 74]",3286151741,Li2P1W1O6
Li2TiV2O6,mp-752814,1.2730999999999995,3.32860089,0.03591827738634912,"{3: 2, 22: 1, 23: 2, 8: 6}","[3, 8, 22, 23]",3286221232,Li2Ti1V2O6
Li2TiCr2O6,mp-757086,2.0191,2.44329924,0.08230989477272921,"{3: 2, 22: 1, 24: 2, 8: 6}","[3, 8, 22, 24]",3286221242,Li2Ti1Cr2O6
Li2TiMn2O6,mp-776053,1.2210999999999999,2.04739962,0.0715622510795404,"{3: 2, 22: 1, 25: 2, 8: 6}","[3, 8, 22, 25]",3286221252,Li2Ti1Mn2O6
Li2Ti(CoO3)2,mp-753110,0.6642999999999999,2.06135642,0.1163829129545304,"{3: 2, 22: 1, 27: 2, 8: 6}","[3, 8, 22, 27]",3286221272,Li2Ti1Co2O6
Li2Ti(NiO3)2,mp-758759,0.3679000000000001,2.71997744,0.068551415707363,"{3: 2, 22: 1, 28: 2, 8: 6}","[3, 8, 22, 28]",3286221282,Li2Ti1Ni2O6
Li2TiTeO6,mp-756117,2.0990999999999995,2.71031727,0.0,"{3: 2, 22: 1, 52: 1, 8: 6}","[3, 8, 22, 52]",3286221521,Li2Ti1Te1O6
Li2Ti2VO6,mp-758843,0.2702,4.31575365,0.07722378318182344,"{3: 2, 22: 2, 23: 1, 8: 6}","[3, 8, 22, 23]",3286222231,Li2Ti2V1O6
Li2Ti2CoO6,mp-757277,1.935,1.95667364,0.08840230943181915,"{3: 2, 22: 2, 27: 1, 8: 6}","[3, 8, 22, 27]",3286222271,Li2Ti2Co1O6
Li2Ti2NiO6,mp-831246,2.6289000000000002,1.86401455,0.0859461579545382,"{3: 2, 22: 2, 28: 1, 8: 6}","[3, 8, 22, 28]",3286222281,Li2Ti2Ni1O6
Li2Ti3O6,mp-758089,0.0,4.873007,0.03502193909091034,"{3: 2, 22: 3, 8: 6}","[3, 8, 22]",3286223,Li2Ti3O6
Li2VCr2O6,mp-849313,1.3626,2.65295416,0.05315704836174007,"{3: 2, 23: 1, 24: 2, 8: 6}","[3, 8, 23, 24]",3286231242,Li2V1Cr2O6
Li2V2CrO6,mp-780616,0.0,3.25029127,0.06264167266098841,"{3: 2, 23: 2, 24: 1, 8: 6}","[3, 8, 23, 24]",3286232241,Li2V2Cr1O6
Li2MnV2O6,mp-753136,0.4998,3.05483365,0.09108539261362569,"{3: 2, 25: 1, 23: 2, 8: 6}","[3, 8, 23, 25]",3286232251,Li2Mn1V2O6
Li2V2CoO6,mp-756363,0.6882000000000001,2.48052464,0.1699821085064963,"{3: 2, 23: 2, 27: 1, 8: 6}","[3, 8, 23, 27]",3286232271,Li2V2Co1O6
Li2V2SnO6,mp-754074,1.5564000000000004,3.43063982,0.08681937590908895,"{3: 2, 23: 2, 50: 1, 8: 6}","[3, 8, 23, 50]",3286232501,Li2V2Sn1O6
Li2V3O6,mp-752965,0.9237000000000002,3.21929399,0.04468708352272177,"{3: 2, 23: 3, 8: 6}","[3, 8, 23]",3286233,Li2V3O6
Li2Mn2CrO6,mp-1568146,1.2466,3.36371098,0.1778415577272705,"{3: 2, 25: 2, 24: 1, 8: 6}","[3, 8, 24, 25]",3286241252,Li2Mn2Cr1O6
Li2Cr(CoO3)2,mp-757009,0.0,2.86501117,0.078006830164143,"{3: 2, 24: 1, 27: 2, 8: 6}","[3, 8, 24, 27]",3286241272,Li2Cr1Co2O6
Li2CrTeO6,mp-1178016,0.0,4.29605666,0.0857127282222212,"{3: 2, 24: 1, 52: 1, 8: 6}","[3, 8, 24, 52]",3286241521,Li2Cr1Te1O6
Li2CrWO6,mp-754450,0.5032000000000001,2.08671879,0.0700449812222228,"{3: 2, 24: 1, 74: 1, 8: 6}","[3, 8, 24, 74]",3286241741,Li2Cr1W1O6
Li2MnCr2O6,mp-850919,0.5196999999999998,2.49613266,0.13919302370370712,"{3: 2, 25: 1, 24: 2, 8: 6}","[3, 8, 24, 25]",3286242251,Li2Mn1Cr2O6
Li2Cr2CoO6,mp-758963,0.6529000000000003,2.42537874,0.04414054575757387,"{3: 2, 24: 2, 27: 1, 8: 6}","[3, 8, 24, 27]",3286242271,Li2Cr2Co1O6
Li2Cr2NiO6,mp-850867,0.0,2.54320111,0.10460241282828697,"{3: 2, 24: 2, 28: 1, 8: 6}","[3, 8, 24, 28]",3286242281,Li2Cr2Ni1O6
Li2Cr2SnO6,mp-756493,3.1686,2.78573106,0.07752771090909416,"{3: 2, 24: 2, 50: 1, 8: 6}","[3, 8, 24, 50]",3286242501,Li2Cr2Sn1O6
Li2Cr3O6,mp-758744,0.4758,2.33069684,0.07347746065656668,"{3: 2, 24: 3, 8: 6}","[3, 8, 24]",3286243,Li2Cr3O6
Li2Mn(CoO3)2,mp-1177992,1.6124,1.57978032,0.10014891994318464,"{3: 2, 25: 1, 27: 2, 8: 6}","[3, 8, 25, 27]",3286251272,Li2Mn1Co2O6
Li2Mn(NiO3)2,mp-762624,0.5479000000000003,2.58448417,0.04088207676136513,"{3: 2, 25: 1, 28: 2, 8: 6}","[3, 8, 25, 28]",3286251282,Li2Mn1Ni2O6
Li2Mn(SeO3)2,mp-1177936,3.2053000000000003,1.4850486,0.09865164393428305,"{3: 2, 25: 1, 34: 2, 8: 6}","[3, 8, 25, 34]",3286251342,Li2Mn1Se2O6
Li2MnWO6,mp-776740,0.7695999999999998,1.79732515,0.05531437375000081,"{3: 2, 25: 1, 74: 1, 8: 6}","[3, 8, 25, 74]",3286251741,Li2Mn1W1O6
Li2Mn2CoO6,mp-754926,0.7765,2.13659629,0.07382373981820045,"{3: 2, 25: 2, 27: 1, 8: 6}","[3, 8, 25, 27]",3286252271,Li2Mn2Co1O6
Li2Mn2NiO6,mp-758510,0.32420000000000027,3.12409323,0.06650475318181392,"{3: 2, 25: 2, 28: 1, 8: 6}","[3, 8, 25, 28]",3286252281,Li2Mn2Ni1O6
Li2Mn2SnO6,mp-754419,1.0102000000000002,2.75065135,0.05034005454545998,"{3: 2, 25: 2, 50: 1, 8: 6}","[3, 8, 25, 50]",3286252501,Li2Mn2Sn1O6
Li2Mn2SbO6,mp-1567262,0.9462000000000006,3.4541445,0.07531495511363051,"{3: 2, 25: 2, 51: 1, 8: 6}","[3, 8, 25, 51]",3286252511,Li2Mn2Sb1O6
Li2Mn3O6,mp-762412,0.8406000000000002,2.50545326,0.031172986818183368,"{3: 2, 25: 3, 8: 6}","[3, 8, 25]",3286253,Li2Mn3O6
Li2Co(NiO3)2,mp-757774,0.0,3.3450897,0.07130579426136574,"{3: 2, 27: 1, 28: 2, 8: 6}","[3, 8, 27, 28]",3286271282,Li2Co1Ni2O6
Li2Co2NiO6,mp-754376,0.0,2.33581643,0.08679793176136474,"{3: 2, 27: 2, 28: 1, 8: 6}","[3, 8, 27, 28]",3286272281,Li2Co2Ni1O6
Li2Co2SnO6,mp-753584,0.4552999999999998,2.6976059,0.12448417363636377,"{3: 2, 27: 2, 50: 1, 8: 6}","[3, 8, 27, 50]",3286272501,Li2Co2Sn1O6
Li2(CoO2)3,mp-758725,1.1551999999999998,2.14910221,0.022637624431817827,"{3: 2, 27: 3, 8: 6}","[3, 8, 27]",3286273,Li2Co3O6
Li2Ni2SnO6,mp-774781,0.3115999999999999,3.36299751,0.03562729674242249,"{3: 2, 28: 2, 50: 1, 8: 6}","[3, 8, 28, 50]",3286282501,Li2Ni2Sn1O6
Li2Ni2SbO6,mp-1639439,0.669,3.91796295,0.04728175833333115,"{3: 2, 28: 2, 51: 1, 8: 6}","[3, 8, 28, 51]",3286282511,Li2Ni2Sb1O6
Li2Ni2BiO6,mp-1569254,0.8308999999999997,2.80488515,0.023757412007576306,"{3: 2, 28: 2, 83: 1, 8: 6}","[3, 8, 28, 83]",3286282831,Li2Ni2Bi1O6
Li2(NiO2)3,mp-758095,0.0,3.14408122,0.023522184280304614,"{3: 2, 28: 3, 8: 6}","[3, 8, 28]",3286283,Li2Ni3O6
Li2GeTeO6,mp-1222711,3.0974000000000004,5.1421562,0.0,"{3: 2, 32: 1, 52: 1, 8: 6}","[3, 8, 32, 52]",3286321521,Li2Ge1Te1O6
Li2ZrTeO6,mp-6782,2.7792,2.49872131,0.01230181824999832,"{3: 2, 40: 1, 52: 1, 8: 6}","[3, 8, 40, 52]",3286401521,Li2Zr1Te1O6
Li2TeMoO6,mp-1203622,3.0987,1.84729746,0.024422492999998546,"{3: 2, 52: 1, 42: 1, 8: 6}","[3, 8, 42, 52]",3286421521,Li2Te1Mo1O6
Li2SnO6,mp-1180644,0.0,1.34678818,0.5152236675555555,"{3: 2, 50: 1, 8: 6}","[3, 8, 50]",3286501,Li2Sn1O6
Li2SnTeO6,mp-8673,2.0439000000000003,3.64841144,0.0,"{3: 2, 50: 1, 52: 1, 8: 6}","[3, 8, 50, 52]",3286501521,Li2Sn1Te1O6
Li2TeWO6,mp-1196881,3.6400999999999994,1.77353535,0.0071159024999891685,"{3: 2, 52: 1, 74: 1, 8: 6}","[3, 8, 52, 74]",3286521741,Li2Te1W1O6
Li2IO6,mp-1211077,0.12769999999999998,-0.32257007,0.2705484216666676,"{3: 2, 53: 1, 8: 6}","[3, 8, 53]",3286531,Li2I1O6
Li2OsO6,mp-726692,0.0,-0.56288342,0.17938316783625652,"{3: 2, 76: 1, 8: 6}","[3, 8, 76]",3286761,Li2Os1O6
Li2PtO6,mp-1180661,0.0504,1.26098139,0.3442620189629624,"{3: 2, 78: 1, 8: 6}","[3, 8, 78]",3286781,Li2Pt1O6
Li2Ca2Si2O7,mp-1020009,4.7378,1.39733292,0.010006000705128137,"{3: 2, 20: 2, 14: 2, 8: 7}","[3, 8, 14, 20]",3287142202,Li2Ca2Si2O7
Li2VSi2O7,mp-765964,1.3048000000000002,2.45556299,0.062333786805528035,"{3: 2, 23: 1, 14: 2, 8: 7}","[3, 8, 14, 23]",3287142231,Li2V1Si2O7
Li2Cr2Si2O7,mp-758171,0.8804999999999996,4.36868026,0.10220597935897846,"{3: 2, 24: 2, 14: 2, 8: 7}","[3, 8, 14, 24]",3287142242,Li2Cr2Si2O7
Li2Mn2Si2O7,mp-859108,3.0250000000000004,5.55926419,0.03070832794872569,"{3: 2, 25: 2, 14: 2, 8: 7}","[3, 8, 14, 25]",3287142252,Li2Mn2Si2O7
Li2Co2Si2O7,mp-758338,2.6228999999999996,4.95022076,0.04816126070512894,"{3: 2, 27: 2, 14: 2, 8: 7}","[3, 8, 14, 27]",3287142272,Li2Co2Si2O7
Li2Si2Ni2O7,mp-766586,3.0167,5.55556971,0.07101421019231147,"{3: 2, 14: 2, 28: 2, 8: 7}","[3, 8, 14, 28]",3287142282,Li2Si2Ni2O7
Li2Si2WO7,mp-753700,2.7995000000000005,2.95811279,0.04322513166666564,"{3: 2, 14: 2, 74: 1, 8: 7}","[3, 8, 14, 74]",3287142741,Li2Si2W1O7
Li2Si3O7,mp-555899,5.2253,0.59174972,0.002952714930559708,"{3: 2, 14: 3, 8: 7}","[3, 8, 14]",3287143,Li2Si3O7
Li2Si4O7,mp-985637,2.7086000000000006,4.05296858,0.2989040070512843,"{3: 2, 14: 4, 8: 7}","[3, 8, 14]",3287144,Li2Si4O7
Li2VP2O7,mp-754669,2.7579000000000002,3.12792356,0.016684068967007804,"{3: 2, 23: 1, 15: 2, 8: 7}","[3, 8, 15, 23]",3287152231,Li2V1P2O7
Li2CrP2O7,mp-26965,3.7041000000000004,1.20828321,0.0,"{3: 2, 24: 1, 15: 2, 8: 7}","[3, 8, 15, 24]",3287152241,Li2Cr1P2O7
Li2MnP2O7,mp-1203394,4.3532,5.9667762,0.0,"{3: 2, 25: 1, 15: 2, 8: 7}","[3, 8, 15, 25]",3287152251,Li2Mn1P2O7
Li2CoP2O7,mp-26089,2.6793,0.66258075,0.013769648472202967,"{3: 2, 27: 1, 15: 2, 8: 7}","[3, 8, 15, 27]",3287152271,Li2Co1P2O7
Li2NiP2O7,mp-779070,4.312200000000001,1.25998894,0.004232519722219941,"{3: 2, 28: 1, 15: 2, 8: 7}","[3, 8, 15, 28]",3287152281,Li2Ni1P2O7
Li2P2PdO7,mp-616572,1.0586,1.79731779,0.00786886861110947,"{3: 2, 15: 2, 46: 1, 8: 7}","[3, 8, 15, 46]",3287152461,Li2P2Pd1O7
Li2SnP2O7,mp-27033,3.5874,2.19269208,0.01700438145833605,"{3: 2, 50: 1, 15: 2, 8: 7}","[3, 8, 15, 50]",3287152501,Li2Sn1P2O7
Li2S2O7,mp-1020013,5.5360000000000005,-0.21997761,0.0,"{3: 2, 16: 2, 8: 7}","[3, 8, 16]",3287162,Li2S2O7
Li2CaTa2O7,mp-1194523,2.8142,4.19092367,0.0,"{3: 2, 20: 1, 73: 2, 8: 7}","[3, 8, 20, 73]",3287201732,Li2Ca1Ta2O7
Li2Ti3O7,mp-1190132,2.9823000000000004,1.30058474,0.015399772916667942,"{3: 2, 22: 3, 8: 7}","[3, 8, 22]",3287223,Li2Ti3O7
Li2V3O7,mp-772164,2.2431,1.08323979,0.08552283878471645,"{3: 2, 23: 3, 8: 7}","[3, 8, 23]",3287233,Li2V3O7
Li2Cr2O7,mp-754365,2.378,-1.46885725,0.016585937893939473,"{3: 2, 24: 2, 8: 7}","[3, 8, 24]",3287242,Li2Cr2O7
Li28Mg22N25,mp-531773,0.0,2.78238713,0.03162239096666575,"{3: 28, 12: 22, 7: 25}","[3, 7, 12]",3287251222,Li28Mg22N25
Li2Mn3O7,mp-770534,1.0299,1.57391239,0.013383061006948083,"{3: 2, 25: 3, 8: 7}","[3, 8, 25]",3287253,Li2Mn3O7
Li2Ni5O7,mp-754083,0.0,4.2525057,0.016471843690473165,"{3: 2, 28: 5, 8: 7}","[3, 8, 28]",3287285,Li2Ni5O7
Li2SeO7,mp-1194671,0.2336,0.4542139,0.627789020916671,"{3: 2, 34: 1, 8: 7}","[3, 8, 34]",3287341,Li2Se1O7
Li2Se2O7,mp-1194726,2.9444999999999997,-1.11869892,0.0,"{3: 2, 34: 2, 8: 7}","[3, 8, 34]",3287342,Li2Se2O7
SrLi2Nb2O7,mp-557857,1.6613,1.41665919,0.010655998749996343,"{38: 1, 3: 2, 41: 2, 8: 7}","[3, 8, 38, 41]",3287381412,Sr1Li2Nb2O7
SrLi2Ta2O7,mp-558054,2.2704000000000004,1.65277789,0.0,"{38: 1, 3: 2, 73: 2, 8: 7}","[3, 8, 38, 73]",3287381732,Sr1Li2Ta2O7
Li2LaTa2O7,mp-15901,0.0,6.11067413,0.042852078211106814,"{3: 2, 57: 1, 73: 2, 8: 7}","[3, 8, 57, 73]",3287571732,Li2La1Ta2O7
Li2La4O7,mp-1120737,2.1605999999999996,4.90212047,0.45629129884615516,"{3: 2, 57: 4, 8: 7}","[3, 8, 57]",3287574,Li2La4O7
Li2UWO7,mp-1223021,1.8699999999999999,1.97193697,0.030649737272728572,"{3: 2, 92: 1, 74: 1, 8: 7}","[3, 8, 74, 92]",3287741921,Li2U1W1O7
Li2W2O7,mp-27130,3.7559,-0.15810127,0.012205641477274654,"{3: 2, 74: 2, 8: 7}","[3, 8, 74]",3287742,Li2W2O7
Li2Mn4O7F,mp-753834,0.0,2.40816835,0.07223776906250379,"{3: 2, 25: 4, 8: 7, 9: 1}","[3, 8, 9, 25]",328791254,Li2Mn4O7F1
Li2Co4O7F,mp-780622,0.0,2.64058716,0.0755592674107115,"{3: 2, 27: 4, 8: 7, 9: 1}","[3, 8, 9, 27]",328791274,Li2Co4O7F1
Li2Cr2P2O7F2,mp-758993,1.7499000000000002,2.27287705,0.15254323195833575,"{3: 2, 24: 2, 15: 2, 8: 7, 9: 2}","[3, 8, 9, 15, 24]",328792152242,Li2Cr2P2O7F2
Li2Mn2P2O7F2,mp-770546,2.8465999999999996,1.71039701,0.09659832066666407,"{3: 2, 25: 2, 15: 2, 8: 7, 9: 2}","[3, 8, 9, 15, 25]",328792152252,Li2Mn2P2O7F2
KNaLi2(SO4)2,mp-14484,5.2970999999999995,-0.02781609,0.0,"{19: 1, 11: 1, 3: 2, 16: 2, 8: 8}","[3, 8, 11, 16, 19]",3288111162191,K1Na1Li2S2O8
Na3Li2Al(SiO4)2,mp-1020163,4.051,1.4723095,0.007223642421887888,"{11: 3, 3: 2, 13: 1, 14: 2, 8: 8}","[3, 8, 11, 13, 14]",3288113131142,Na3Li2Al1Si2O8
Li2MgTi3O8,mp-774752,3.2916,1.83771914,0.0,"{3: 2, 12: 1, 22: 3, 8: 8}","[3, 8, 12, 22]",3288121223,Li2Mg1Ti3O8
Li2MgMn3O8,mp-581301,1.8867,3.25422357,0.0,"{3: 2, 12: 1, 25: 3, 8: 8}","[3, 8, 12, 25]",3288121253,Li2Mg1Mn3O8
Li2MgCo3O8,mp-1177928,0.0,1.48947575,0.014846473189938258,"{3: 2, 12: 1, 27: 3, 8: 8}","[3, 8, 12, 27]",3288121273,Li2Mg1Co3O8
Li2MgNi3O8,mp-756920,0.31919999999999993,2.18924035,0.06457811182359663,"{3: 2, 12: 1, 28: 3, 8: 8}","[3, 8, 12, 28]",3288121283,Li2Mg1Ni3O8
Li2AlCr2SbO8,mp-1222901,2.1334000000000004,3.89511197,0.007102175892860885,"{3: 2, 13: 1, 24: 2, 51: 1, 8: 8}","[3, 8, 13, 24, 51]",3288131242511,Li2Al1Cr2Sb1O8
Li2Al2CrSbO8,mp-1222897,2.5534,4.178689,0.004355117857140378,"{3: 2, 13: 2, 24: 1, 51: 1, 8: 8}","[3, 8, 13, 24, 51]",3288132241511,Li2Al2Cr1Sb1O8
Li2Mn3(SiO4)2,mp-849556,2.0446999999999997,2.11885121,0.052420342722218294,"{3: 2, 25: 3, 14: 2, 8: 8}","[3, 8, 14, 25]",3288142253,Li2Mn3Si2O8
Li2Co3(SiO4)2,mp-758078,2.2312000000000003,1.93385474,0.024176697333333053,"{3: 2, 27: 3, 14: 2, 8: 8}","[3, 8, 14, 27]",3288142273,Li2Co3Si2O8
Li2Si2Ni3O8,mp-766974,2.7613,1.8598008,0.08639672388888897,"{3: 2, 14: 2, 28: 3, 8: 8}","[3, 8, 14, 28]",3288142283,Li2Si2Ni3O8
Li2VSi3O8,mp-766402,2.766300000000001,5.95927143,0.0985295567559561,"{3: 2, 23: 1, 14: 3, 8: 8}","[3, 8, 14, 23]",3288143231,Li2V1Si3O8
Li2CrSi3O8,mp-758277,3.1126000000000005,2.47562681,0.0565640299999961,"{3: 2, 24: 1, 14: 3, 8: 8}","[3, 8, 14, 24]",3288143241,Li2Cr1Si3O8
Li2MnSi3O8,mp-753994,2.3135000000000003,2.10129918,0.07805575184523672,"{3: 2, 25: 1, 14: 3, 8: 8}","[3, 8, 14, 25]",3288143251,Li2Mn1Si3O8
Li2CoSi3O8,mp-753262,3.1591,2.32775627,0.06994794785714653,"{3: 2, 27: 1, 14: 3, 8: 8}","[3, 8, 14, 27]",3288143271,Li2Co1Si3O8
Li2Si3NiO8,mp-757113,3.5043999999999995,1.58361278,0.0838721038095267,"{3: 2, 14: 3, 28: 1, 8: 8}","[3, 8, 14, 28]",3288143281,Li2Si3Ni1O8
KLi2Sb(PO4)2,mp-759715,3.4286000000000003,2.19763007,0.08222471591269542,"{19: 1, 3: 2, 51: 1, 15: 2, 8: 8}","[3, 8, 15, 19, 51]",3288152191511,K1Li2Sb1P2O8
Li2Sc(PO4)2,mp-1193287,0.2571,0.51759936,0.06233212495192486,"{3: 2, 21: 1, 15: 2, 8: 8}","[3, 8, 15, 21]",3288152211,Li2Sc1P2O8
Li2V(PO4)2,mp-26415,1.3100999999999998,1.08362597,0.0285177242948631,"{3: 2, 23: 1, 15: 2, 8: 8}","[3, 8, 15, 23]",3288152231,Li2V1P2O8
Li2MnV(PO4)2,mp-757718,2.5021,4.01693996,0.0033557271428579227,"{3: 2, 25: 1, 23: 1, 15: 2, 8: 8}","[3, 8, 15, 23, 25]",3288152231251,Li2Mn1V1P2O8