formula,material_id,band_gap,efermi,energy_above_hull,comp_atoms,sorted_keys_comp_atoms,comp_number,new_formula
Li4Sn2P4H3O16,mp-777312,0.0,3.06706049,0.06561824370689617,"{3: 4, 50: 2, 15: 4, 1: 3, 8: 16}","[1, 3, 8, 15, 50]",1334816154502,Li4Sn2P4H3O16
Li4H3ClO3,mp-643259,4.4775,-1.91211795,0.0,"{3: 4, 1: 3, 17: 1, 8: 3}","[1, 3, 8, 17]",133483171,Li4H3Cl1O3
Li4H3BrO3,mp-753690,4.4379,-2.07285937,0.0,"{3: 4, 1: 3, 35: 1, 8: 3}","[1, 3, 8, 35]",133483351,Li4H3Br1O3
LiBH34(C3N)4,mp-1195276,4.2338000000000005,-2.12853182,0.16512383935095887,"{3: 1, 5: 1, 1: 34, 6: 12, 7: 4}","[1, 3, 5, 6, 7]",134315161274,Li1B1H34C12N4
LiAlH34(C3N)4,mp-1195591,4.2603,2.24998515,0.18380375079327305,"{3: 1, 13: 1, 1: 34, 6: 12, 7: 4}","[1, 3, 6, 7, 13]",1343161274131,Li1Al1H34C12N4
Li2MgB4(H17N3)2,mp-1199747,5.4504,-2.98597351,0.018965377304963837,"{3: 2, 12: 1, 5: 4, 1: 34, 7: 6}","[1, 3, 5, 7, 12]",134325476121,Li2Mg1B4H34N6
Li66Be24H35,mp-722623,0.0,0.79834333,0.22731553037333363,"{3: 66, 4: 24, 1: 35}","[1, 3, 4]",135366424,Li66Be24H35
Li3AsH36(SeN3)4,mp-866667,1.8941,-0.01023626,0.0,"{3: 3, 33: 1, 1: 36, 34: 4, 7: 12}","[1, 3, 7, 33, 34]",13633712331344,Li3As1H36Se4N12
Li2AlB5(H19N3)2,mp-1199564,6.049300000000001,-2.62493422,0.0367231494230813,"{3: 2, 13: 1, 5: 5, 1: 38, 7: 6}","[1, 3, 5, 7, 13]",138325576131,Li2Al1B5H38N6
Li3As7(H3N)13,mp-1199218,1.8068000000000002,0.54685233,0.0,"{3: 3, 33: 7, 1: 39, 7: 13}","[1, 3, 7, 33]",13933713337,Li3As7H39N13
LiAlH4,mp-27653,4.3443,-1.57591053,0.013086210138888887,"{3: 1, 13: 1, 1: 4}","[1, 3, 13]",1431131,Li1Al1H4
LiEr4(HCl)4,mp-1222333,0.0,5.2212633,0.11901900461538162,"{3: 1, 68: 4, 1: 4, 17: 4}","[1, 3, 17, 68]",1431174684,Li1Er4H4Cl4
LiGaH4,mp-1192145,4.6818,-2.56627861,0.00028410416666702076,"{3: 1, 31: 1, 1: 4}","[1, 3, 31]",1431311,Li1Ga1H4
LiBeH4NF4,mp-706611,6.7331,-3.63557297,0.024616029583333088,"{3: 1, 4: 1, 1: 4, 7: 1, 9: 4}","[1, 3, 4, 7, 9]",1431417194,Li1Be1H4N1F4
LiBH4,mp-1192133,6.3705,2.42726724,0.0,"{3: 1, 5: 1, 1: 4}","[1, 3, 5]",143151,Li1B1H4
LiBH4C2(O3F)2,mp-1196081,3.4009,-1.85544665,0.06429356094618033,"{3: 1, 5: 1, 1: 4, 6: 2, 8: 6, 9: 2}","[1, 3, 5, 6, 8, 9]",143151628692,Li1B1H4C2O6F2
LiB(HO)4,mp-23662,5.5694,-0.77171528,0.008493894875003072,"{3: 1, 5: 1, 1: 4, 8: 4}","[1, 3, 5, 8]",14315184,Li1B1H4O4
Li(BH)4,mp-1211283,1.7113,-0.01388636,0.17671495462301312,"{3: 1, 5: 4, 1: 4}","[1, 3, 5]",143154,Li1B4H4
LiH4CSNO2,mp-1203010,4.0282,2.96463588,0.09930363411249932,"{3: 1, 1: 4, 6: 1, 16: 1, 7: 1, 8: 2}","[1, 3, 6, 7, 8, 16]",1431617182161,Li1H4C1S1N1O2
LiH4CN3,mp-1196875,4.2206,0.10044228,0.015919287777777846,"{3: 1, 1: 4, 6: 1, 7: 3}","[1, 3, 6, 7]",14316173,Li1H4C1N3
LiPH4CO3,mp-1198038,5.609500000000001,-1.4396919,0.01404049266666707,"{3: 1, 15: 1, 1: 4, 6: 1, 8: 3}","[1, 3, 6, 8, 15]",14316183151,Li1P1H4C1O3
NaLiH4C2O5,mp-698457,4.616300000000001,-1.54894481,0.08084095136752101,"{11: 1, 3: 1, 1: 4, 6: 2, 8: 5}","[1, 3, 6, 8, 11]",14316285111,Na1Li1H4C2O5
LiPH4NO3F,mp-720554,5.104100000000001,-0.25732323,0.013668007234850066,"{3: 1, 15: 1, 1: 4, 7: 1, 8: 3, 9: 1}","[1, 3, 7, 8, 9, 15]",1431718391151,Li1P1H4N1O3F1
LiH4SNO4,mp-1194832,5.371499999999999,-0.80047183,0.0,"{3: 1, 1: 4, 16: 1, 7: 1, 8: 4}","[1, 3, 7, 8, 16]",14317184161,Li1H4S1N1O4
LiH4SeNO4,mp-24615,3.8634,-1.37791044,0.11159542790127475,"{3: 1, 1: 4, 34: 1, 7: 1, 8: 4}","[1, 3, 7, 8, 34]",14317184341,Li1H4Se1N1O4
LiH4SNO5,mp-1203097,5.7564,5.16466882,0.12181351661458972,"{3: 1, 1: 4, 16: 1, 7: 1, 8: 5}","[1, 3, 7, 8, 16]",14317185161,Li1H4S1N1O5
RbLi(H2N)2,mp-510073,2.3503,-0.02492435,0.0,"{37: 1, 3: 1, 1: 4, 7: 2}","[1, 3, 7, 37]",143172371,Rb1Li1H4N2
CsLi(H2N)2,mp-642740,1.9969999999999999,0.55871336,0.0,"{55: 1, 3: 1, 1: 4, 7: 2}","[1, 3, 7, 55]",143172551,Cs1Li1H4N2
KLiH4S2(NO3)2,mp-699460,5.1939,-0.61769976,0.06356586960284716,"{19: 1, 3: 1, 1: 4, 16: 2, 7: 2, 8: 6}","[1, 3, 7, 8, 16, 19]",14317286162191,K1Li1H4S2N2O6
RbLiH4S2(NO3)2,mp-699447,5.2524999999999995,-0.53110013,0.06504480831812387,"{37: 1, 3: 1, 1: 4, 16: 2, 7: 2, 8: 6}","[1, 3, 7, 8, 16, 37]",14317286162371,Rb1Li1H4S2N2O6
CsLiH4S2(NO3)2,mp-699459,5.5265,-0.4112734,0.06456388754555942,"{55: 1, 3: 1, 1: 4, 16: 2, 7: 2, 8: 6}","[1, 3, 7, 8, 16, 55]",14317286162551,Cs1Li1H4S2N2O6
LiH4(NO2)3,mp-1211054,3.1612999999999998,-2.51453483,0.1503819898928569,"{3: 1, 1: 4, 7: 3, 8: 6}","[1, 3, 7, 8]",14317386,Li1H4N3O6
LiMn2P2(H2O5)2,mp-1235619,0.7675999999999998,1.63409736,0.02046000802631731,"{3: 1, 25: 2, 15: 2, 1: 4, 8: 10}","[1, 3, 8, 15, 25]",1431810152252,Li1Mn2P2H4O10
LiMnH4(SO5)2,mp-1176828,1.0454999999999999,1.18180825,0.02511325257365371,"{3: 1, 25: 1, 1: 4, 16: 2, 8: 10}","[1, 3, 8, 16, 25]",1431810162251,Li1Mn1H4S2O10
LiV3P2(HO3)4,mp-759104,2.0421000000000005,2.10095616,0.018740911250037406,"{3: 1, 23: 3, 15: 2, 1: 4, 8: 12}","[1, 3, 8, 15, 23]",1431812152233,Li1V3P2H4O12
LiMn3P2(HO3)4,mp-759026,0.8147000000000002,1.60456391,0.03835038782197753,"{3: 1, 25: 3, 15: 2, 1: 4, 8: 12}","[1, 3, 8, 15, 25]",1431812152253,Li1Mn3P2H4O12
LiVP4(H2O7)2,mp-755618,2.2388000000000003,1.17091696,0.015393626875001232,"{3: 1, 23: 1, 15: 4, 1: 4, 8: 14}","[1, 3, 8, 15, 23]",1431814154231,Li1V1P4H4O14
LiMnP4(H2O7)2,mp-780204,1.5253,0.56088244,0.012450134270836521,"{3: 1, 25: 1, 15: 4, 1: 4, 8: 14}","[1, 3, 8, 15, 25]",1431814154251,Li1Mn1P4H4O14
Na3LiTi2Si4(HO4)4,mp-1205129,3.5603,4.48490709,0.004383918597224756,"{11: 3, 3: 1, 22: 2, 14: 4, 1: 4, 8: 16}","[1, 3, 8, 11, 14, 22]",1431816113144222,Na3Li1Ti2Si4H4O16
LiV2H4(OF5)2,mp-753201,0.6728000000000001,-2.21743995,0.03064173684209681,"{3: 1, 23: 2, 1: 4, 8: 2, 9: 10}","[1, 3, 8, 9, 23]",143182910232,Li1V2H4O2F10
K10LiZr6H4O2F35,mp-1196541,0.00039999999999995595,3.17906773,0.0,"{19: 10, 3: 1, 40: 6, 1: 4, 8: 2, 9: 35}","[1, 3, 8, 9, 19, 40]",1431829351910406,K10Li1Zr6H4O2F35
CsLiH4W2SO3,mp-1213673,0.0,3.05063584,1.0369117840178559,"{55: 1, 3: 1, 1: 4, 74: 2, 16: 1, 8: 3}","[1, 3, 8, 16, 55, 74]",143183161551742,Cs1Li1H4W2S1O3
LiAl2H4Pb2(O2F3)2,mp-1236388,0.0,4.46350529,0.10225871337719727,"{3: 1, 13: 2, 1: 4, 82: 2, 8: 4, 9: 6}","[1, 3, 8, 9, 13, 82]",14318496132822,Li1Al2H4Pb2O4F6
CsLiH4SO5,mp-755891,4.3863,0.33215897,0.047502465583328934,"{55: 1, 3: 1, 1: 4, 16: 1, 8: 5}","[1, 3, 8, 16, 55]",143185161551,Cs1Li1H4S1O5
NaLiMo(H2O3)2,mp-504845,4.5257,-1.22994102,0.012502308846160659,"{11: 1, 3: 1, 42: 1, 1: 4, 8: 6}","[1, 3, 8, 11, 42]",143186111421,Na1Li1Mo1H4O6
LiTe4H4(O3F4)2,mp-1235165,0.8481000000000001,1.57445551,0.06770724187047428,"{3: 1, 52: 4, 1: 4, 8: 6, 9: 8}","[1, 3, 8, 9, 52]",14318698524,Li1Te4H4O6F8
NaLiSi2H4O7,mp-1192726,4.8696,4.77143313,0.011991264750000674,"{11: 1, 3: 1, 14: 2, 1: 4, 8: 7}","[1, 3, 8, 11, 14]",143187111142,Na1Li1Si2H4O7
LiVPH4O7,mp-1203841,2.5599999999999996,3.56824631,0.04940079406250586,"{3: 1, 23: 1, 15: 1, 1: 4, 8: 7}","[1, 3, 8, 15, 23]",143187151231,Li1V1P1H4O7
LiSm4(HO2)4,mp-1235405,0.0,5.44419766,0.20109669411764042,"{3: 1, 62: 4, 1: 4, 8: 8}","[1, 3, 8, 62]",143188624,Li1Sm4H4O8
Li2MgH4,mp-1104241,3.8467000000000002,3.0846379,0.019022172857142916,"{3: 2, 12: 1, 1: 4}","[1, 3, 12]",1432121,Li2Mg1H4
Li2BeH4,mp-1180666,4.5911,2.36262188,0.0,"{3: 2, 4: 1, 1: 4}","[1, 3, 4]",143241,Li2Be1H4
Li2Be2H4NF7,mp-1197133,6.791,-3.52905397,0.002330899557291488,"{3: 2, 4: 2, 1: 4, 7: 1, 9: 7}","[1, 3, 4, 7, 9]",1432427197,Li2Be2H4N1F7
Li2B4H4O9,mp-604459,5.1171999999999995,-0.51548704,0.011560251535081889,"{3: 2, 5: 4, 1: 4, 8: 9}","[1, 3, 5, 8]",14325489,Li2B4H4O9
Li2AlGaSi2(H2O5)2,mp-1222936,4.349,-0.04196265,0.014050929250000621,"{3: 2, 13: 1, 31: 1, 14: 2, 1: 4, 8: 10}","[1, 3, 8, 13, 14, 31]",1432810131142311,Li2Al1Ga1Si2H4O10
Li2MnH4(SO5)2,mp-772240,4.0138,1.16945394,0.03426635605264394,"{3: 2, 25: 1, 1: 4, 16: 2, 8: 10}","[1, 3, 8, 16, 25]",1432810162251,Li2Mn1H4S2O10
Li2H4(SO4)3,mp-720254,5.8773,-1.43378782,0.0,"{3: 2, 1: 4, 16: 3, 8: 12}","[1, 3, 8, 16]",1432812163,Li2H4S3O12
Li2V3P4(HO4)4,mp-849336,2.3922000000000003,3.22988531,0.037139978081896174,"{3: 2, 23: 3, 15: 4, 1: 4, 8: 16}","[1, 3, 8, 15, 23]",1432816154233,Li2V3P4H4O16
Li2Cr3P4(HO4)4,mp-774386,2.8400000000000003,2.22714437,0.03207514862069161,"{3: 2, 24: 3, 15: 4, 1: 4, 8: 16}","[1, 3, 8, 15, 24]",1432816154243,Li2Cr3P4H4O16
Li2Mn3P4(HO4)4,mp-778123,3.6289,1.64360543,0.02867582706894911,"{3: 2, 25: 3, 15: 4, 1: 4, 8: 16}","[1, 3, 8, 15, 25]",1432816154253,Li2Mn3P4H4O16
Li2V3P4H4O19,mp-850740,1.5511,0.58351472,0.06118093122395507,"{3: 2, 23: 3, 15: 4, 1: 4, 8: 19}","[1, 3, 8, 15, 23]",1432819154233,Li2V3P4H4O19
Li2MgZr2H4(OF3)4,mp-1223295,0.6743000000000001,-1.86720408,0.2216654858000089,"{3: 2, 12: 1, 40: 2, 1: 4, 8: 4, 9: 12}","[1, 3, 8, 9, 12, 40]",143284912121402,Li2Mg1Zr2H4O4F12
Li2P(H2O3)2,mp-1198188,3.7626,-0.73154482,0.0603336650000017,"{3: 2, 15: 1, 1: 4, 8: 6}","[1, 3, 8, 15]",143286151,Li2P1H4O6
Li2Cr(H2O3)2,mp-505245,3.052,-1.69965523,0.018963177820514154,"{3: 2, 24: 1, 1: 4, 8: 6}","[1, 3, 8, 24]",143286241,Li2Cr1H4O6
Li2Cr2H4O9,mp-696441,0.10200000000000031,-3.04787696,0.010094635401959096,"{3: 2, 24: 2, 1: 4, 8: 9}","[1, 3, 8, 24]",143289242,Li2Cr2H4O9
Li3H4Rh,mp-697047,0.3917999999999999,1.02780984,0.0,"{3: 3, 1: 4, 45: 1}","[1, 3, 45]",1433451,Li3H4Rh1
Li3H4IN2,mp-1223173,3.6707,3.35729961,0.03388705524999924,"{3: 3, 1: 4, 53: 1, 7: 2}","[1, 3, 7, 53]",143372531,Li3H4I1N2
Li3V2H4(OF5)2,mp-758217,0.7545000000000001,0.03498149,0.06168908380952587,"{3: 3, 23: 2, 1: 4, 8: 2, 9: 10}","[1, 3, 8, 9, 23]",143382910232,Li3V2H4O2F10
Li4H4Rh,mp-27797,0.0,1.65596075,0.0,"{3: 4, 1: 4, 45: 1}","[1, 3, 45]",1434451,Li4H4Rh1
Li4CaB10(HO5)4,mp-1202263,4.884799999999999,0.81960322,0.005413377555541388,"{3: 4, 20: 1, 5: 10, 1: 4, 8: 20}","[1, 3, 5, 8, 20]",1434510820201,Li4Ca1B10H4O20
LiZnSi2H47C17N4,mp-1196671,2.8367999999999998,-0.18482547,0.1356337422569407,"{3: 1, 30: 1, 14: 2, 1: 47, 6: 17, 7: 4}","[1, 3, 6, 7, 14, 30]",1473161774142301,Li1Zn1Si2H47C17N4
Li3Ce4B12(H12Cl)4,mp-1223687,0.05849999999999997,-0.25455906,0.1311303185622057,"{3: 3, 58: 4, 5: 12, 1: 48, 17: 4}","[1, 3, 5, 17, 58]",14833512174584,Li3Ce4B12H48Cl4
Li3P11(H3N)17,mp-722502,1.9667999999999999,0.61804059,0.006755589118024652,"{3: 3, 15: 11, 1: 51, 7: 17}","[1, 3, 7, 15]",151337171511,Li3P11H51N17
LiBeH5(NF2)2,mp-721303,5.785299999999999,-1.47512324,0.0881229069230729,"{3: 1, 4: 1, 1: 5, 7: 2, 9: 4}","[1, 3, 4, 7, 9]",1531417294,Li1Be1H5N2F4
LiBH5N,mp-1196392,4.1364,-1.49019917,0.09073558583333341,"{3: 1, 5: 1, 1: 5, 7: 1}","[1, 3, 5, 7]",15315171,Li1B1H5N1
Li(BH)5,mp-941221,4.9946,-1.68748604,0.055241781531385925,"{3: 1, 5: 5, 1: 5}","[1, 3, 5]",153155,Li1B5H5
LiH5S(NO2)2,mp-504426,5.619999999999999,-0.19173145,0.08626780025643566,"{3: 1, 1: 5, 16: 1, 7: 2, 8: 4}","[1, 3, 7, 8, 16]",15317284161,Li1H5S1N2O4
LiV2P2H5O11,mp-758721,2.0013,1.21114585,0.040252007261905476,"{3: 1, 23: 2, 15: 2, 1: 5, 8: 11}","[1, 3, 8, 15, 23]",1531811152232,Li1V2P2H5O11
LiMn2P2H5O11,mp-780864,0.4881,0.76342691,0.0633691258283724,"{3: 1, 25: 2, 15: 2, 1: 5, 8: 11}","[1, 3, 8, 15, 25]",1531811152252,Li1Mn2P2H5O11
LiTeH5O6,mp-1222518,2.9303999999999997,1.2469246,0.014614351249999658,"{3: 1, 52: 1, 1: 5, 8: 6}","[1, 3, 8, 52]",153186521,Li1Te1H5O6
LiVP2H5O9,mp-774186,2.2968,2.55054362,0.04822110843660976,"{3: 1, 23: 1, 15: 2, 1: 5, 8: 9}","[1, 3, 8, 15, 23]",153189152231,Li1V1P2H5O9
LiCrP2H5O9,mp-780488,2.6140999999999996,1.52178586,0.03561390270833087,"{3: 1, 24: 1, 15: 2, 1: 5, 8: 9}","[1, 3, 8, 15, 24]",153189152241,Li1Cr1P2H5O9
LiMnP2H5O9,mp-778069,3.812,0.54208747,0.08426661624999454,"{3: 1, 25: 1, 15: 2, 1: 5, 8: 9}","[1, 3, 8, 15, 25]",153189152251,Li1Mn1P2H5O9
Li2(BH)5,mp-1210808,3.4535,-1.23316488,0.33710707395833417,"{3: 2, 5: 5, 1: 5}","[1, 3, 5]",153255,Li2B5H5
Li4H5Rh,mp-27796,0.0,2.44732126,0.058773126499996664,"{3: 4, 1: 5, 45: 1}","[1, 3, 45]",1534451,Li4H5Rh1
Li4B8H5O18,mp-1223603,0.9162,0.53838857,0.012781086706048939,"{3: 4, 5: 8, 1: 5, 8: 18}","[1, 3, 5, 8]",153458818,Li4B8H5O18
Li7H5N4,mp-1200910,2.6296,2.63908984,0.005943180156250172,"{3: 7, 1: 5, 7: 4}","[1, 3, 7]",153774,Li7H5N4
Li3MgZn5(BH4)15,mp-1197046,5.202999999999999,-3.83770097,0.0,"{3: 3, 12: 1, 30: 5, 5: 15, 1: 60}","[1, 3, 5, 12, 30]",16033515121305,Li3Mg1Zn5B15H60
Na2LiAlH6,mp-24413,2.8917,0.72957574,0.0,"{11: 2, 3: 1, 13: 1, 1: 6}","[1, 3, 11, 13]",1631112131,Na2Li1Al1H6
LiMgAlH6,mp-1193498,3.3555,0.15304667,0.0,"{3: 1, 12: 1, 13: 1, 1: 6}","[1, 3, 12, 13]",1631121131,Li1Mg1Al1H6
LiMgH6Ir,mp-866640,3.3760000000000003,0.89988045,0.0,"{3: 1, 12: 1, 1: 6, 77: 1}","[1, 3, 12, 77]",1631121771,Li1Mg1H6Ir1
K2LiAlH6,mp-23774,2.5761,0.14027695,0.0,"{19: 2, 3: 1, 13: 1, 1: 6}","[1, 3, 13, 19]",1631131192,K2Li1Al1H6
LiBH6N,mp-1202697,5.7189,3.05847216,0.16729472717592486,"{3: 1, 5: 1, 1: 6, 7: 1}","[1, 3, 5, 7]",16315171,Li1B1H6N1
LiBH6O,mp-1203666,6.4335,2.25333794,0.10924777847222256,"{3: 1, 5: 1, 1: 6, 8: 1}","[1, 3, 5, 8]",16315181,Li1B1H6O1
LiNiBP2H6O11,mp-1212004,0.0,5.36993126,0.01332759291666541,"{3: 1, 28: 1, 5: 1, 15: 2, 1: 6, 8: 11}","[1, 3, 5, 8, 15, 28]",163151811152281,Li1Ni1B1P2H6O11
Li(BH)6,mp-1198726,5.6126000000000005,-1.71115326,0.0,"{3: 1, 5: 6, 1: 6}","[1, 3, 5]",163156,Li1B6H6
LiH6C3BrN2,mp-1199163,4.319,2.34759317,0.17926244480769515,"{3: 1, 1: 6, 6: 3, 35: 1, 7: 2}","[1, 3, 6, 7, 35]",16316372351,Li1H6C3Br1N2
LiMoH6NO5,mp-728669,2.8875,-1.22367545,0.12062549523214106,"{3: 1, 42: 1, 1: 6, 7: 1, 8: 5}","[1, 3, 7, 8, 42]",16317185421,Li1Mo1H6N1O5
LiH6NO6,mp-23906,3.0027999999999997,-1.62997183,0.009896489107147133,"{3: 1, 1: 6, 7: 1, 8: 6}","[1, 3, 7, 8]",16317186,Li1H6N1O6
Na2Li(H2N)3,mp-604147,2.1905,0.00637688,0.008052362847221772,"{11: 2, 3: 1, 1: 6, 7: 3}","[1, 3, 7, 11]",163173112,Na2Li1H6N3
K2Li(H2N)3,mp-1198663,2.3848000000000003,1.85688084,0.0,"{19: 2, 3: 1, 1: 6, 7: 3}","[1, 3, 7, 19]",163173192,K2Li1H6N3
LiSn(H2N)3,mp-1197059,2.881,2.47530309,0.0,"{3: 1, 50: 1, 1: 6, 7: 3}","[1, 3, 7, 50]",163173501,Li1Sn1H6N3
LiMn3Al2(HO2)6,mp-690617,0.5024,-1.42894511,0.0,"{3: 1, 25: 3, 13: 2, 1: 6, 8: 12}","[1, 3, 8, 13, 25]",1631812132253,Li1Mn3Al2H6O12
LiMn3H6(SeO3)8,mp-1196748,1.6130999999999998,0.40045947,0.0,"{3: 1, 25: 3, 1: 6, 34: 8, 8: 24}","[1, 3, 8, 25, 34]",1631824253348,Li1Mn3H6Se8O24
LiTiH6(OF3)2,mp-1235748,0.02719999999999989,1.26166396,0.09492006070312531,"{3: 1, 22: 1, 1: 6, 8: 2, 9: 6}","[1, 3, 8, 9, 22]",16318296221,Li1Ti1H6O2F6
LiAsH6(OF2)3,mp-556562,3.7843,-2.39186931,0.014310685441173199,"{3: 1, 33: 1, 1: 6, 8: 3, 9: 6}","[1, 3, 8, 9, 33]",16318396331,Li1As1H6O3F6
LiAl2H6ClO6,mp-643655,4.9389,-0.40500802,0.0,"{3: 1, 13: 2, 1: 6, 17: 1, 8: 6}","[1, 3, 8, 13, 17]",163186132171,Li1Al2H6Cl1O6
LiAl2H6BrO6,mp-1097038,4.7911,4.56717609,0.0,"{3: 1, 13: 2, 1: 6, 35: 1, 8: 6}","[1, 3, 8, 13, 35]",163186132351,Li1Al2H6Br1O6
LiNd2(HO)6,mp-1235651,0.0,3.56372801,0.11850802091666601,"{3: 1, 60: 2, 1: 6, 8: 6}","[1, 3, 8, 60]",163186602,Li1Nd2H6O6
LiH6ClO7,mp-23797,5.2939,-1.5177991,0.006700698833331131,"{3: 1, 1: 6, 17: 1, 8: 7}","[1, 3, 8, 17]",163187171,Li1H6Cl1O7
LiMnH6O7,mp-23785,2.1661,-2.04259477,0.07241317996666385,"{3: 1, 25: 1, 1: 6, 8: 7}","[1, 3, 8, 25]",163187251,Li1Mn1H6O7
LiH6BrO7,mp-23985,3.123,-1.75993601,0.006165395000000906,"{3: 1, 1: 6, 35: 1, 8: 7}","[1, 3, 8, 35]",163187351,Li1H6Br1O7
LiTcH6O7,mp-1192681,3.4433999999999996,1.36753937,0.0,"{3: 1, 43: 1, 1: 6, 8: 7}","[1, 3, 8, 43]",163187431,Li1Tc1H6O7
LiH6IO7,mp-1193954,2.3600000000000003,-0.18112483,0.014346953166666232,"{3: 1, 1: 6, 53: 1, 8: 7}","[1, 3, 8, 53]",163187531,Li1H6I1O7
Li2BH6N,mp-1180702,4.2075,-2.07461711,0.07984100266666694,"{3: 2, 5: 1, 1: 6, 7: 1}","[1, 3, 5, 7]",16325171,Li2B1H6N1
RbLi2(H2N)3,mp-722455,1.9381,0.0257748,0.00633874062499995,"{37: 1, 3: 2, 1: 6, 7: 3}","[1, 3, 7, 37]",163273371,Rb1Li2H6N3
CsLi2(H2N)3,mp-643288,0.6641000000000001,1.28093945,0.4094074231944447,"{55: 1, 3: 2, 1: 6, 7: 3}","[1, 3, 7, 55]",163273551,Cs1Li2H6N3
Li2H6Pt,mp-1078552,2.8838,-0.77772612,0.0,"{3: 2, 1: 6, 78: 1}","[1, 3, 78]",1632781,Li2H6Pt1
Li2V2P4H6O17,mp-1177876,2.1062,1.44492217,0.013746512570298464,"{3: 2, 23: 2, 15: 4, 1: 6, 8: 17}","[1, 3, 8, 15, 23]",1632817154232,Li2V2P4H6O17
Li2Mn2P4H6O17,mp-780897,0.8574,0.84874593,0.025266370295678797,"{3: 2, 25: 2, 15: 4, 1: 6, 8: 17}","[1, 3, 8, 15, 25]",1632817154252,Li2Mn2P4H6O17
Li2P(HO)6,mp-1201206,5.6516,5.18287457,0.026140201333332058,"{3: 2, 15: 1, 1: 6, 8: 6}","[1, 3, 8, 15]",163286151,Li2P1H6O6
Li2Sn(HO)6,mp-1194119,3.8055,-0.20884681,0.000935592333330959,"{3: 2, 50: 1, 1: 6, 8: 6}","[1, 3, 8, 50]",163286501,Li2Sn1H6O6
Li2H6PtO6,mp-1104879,2.6584,0.43059988,0.02776235238889324,"{3: 2, 1: 6, 78: 1, 8: 6}","[1, 3, 8, 78]",163286781,Li2H6Pt1O6
Li3AlH6,mp-31096,3.5929,0.02417565,0.0,"{3: 3, 13: 1, 1: 6}","[1, 3, 13]",1633131,Li3Al1H6
Li3H6Rh,mp-733455,2.4252,-0.90303132,0.0,"{3: 3, 1: 6, 45: 1}","[1, 3, 45]",1633451,Li3H6Rh1
Li3BH6,mp-1180683,1.2946,1.58566623,0.2643726344999999,"{3: 3, 5: 1, 1: 6}","[1, 3, 5]",163351,Li3B1H6
Li3H6Ir,mp-722890,3.0495,-0.51314061,0.0,"{3: 3, 1: 6, 77: 1}","[1, 3, 77]",1633771,Li3H6Ir1
Li3La2H6(N3O10)3,mp-722330,3.5098,-0.78033885,0.0014921013875071054,"{3: 3, 57: 2, 1: 6, 7: 9, 8: 30}","[1, 3, 7, 8, 57]",163379830572,Li3La2H6N9O30
Li3Nd2H6(N3O10)3,mp-723059,3.5123,-1.17654544,0.006459045774998451,"{3: 3, 60: 2, 1: 6, 7: 9, 8: 30}","[1, 3, 7, 8, 60]",163379830602,Li3Nd2H6N9O30
Li4H6Ru,mp-642847,2.388,0.06934873,0.0,"{3: 4, 1: 6, 44: 1}","[1, 3, 44]",1634441,Li4H6Ru1
Li4H6Os,mp-642996,2.691,-0.0537873,0.0,"{3: 4, 1: 6, 76: 1}","[1, 3, 76]",1634761,Li4H6Os1
Li4MnH6(S2O9)2,mp-777769,4.412,0.36431413,0.06277546124999134,"{3: 4, 25: 1, 1: 6, 16: 4, 8: 18}","[1, 3, 8, 16, 25]",1634818164251,Li4Mn1H6S4O18
Li4Sb2H6O3F10,mp-769122,4.648000000000001,0.18944011,0.07822651100000133,"{3: 4, 51: 2, 1: 6, 8: 3, 9: 10}","[1, 3, 8, 9, 51]",163483910512,Li4Sb2H6O3F10
LiMg2H7Ru,mp-643276,3.1510000000000002,0.80507616,0.0,"{3: 1, 12: 2, 1: 7, 44: 1}","[1, 3, 12, 44]",1731122441,Li1Mg2H7Ru1
LiMg2H7Os,mp-1210819,3.3071,4.14909355,5.7745454542512675e-06,"{3: 1, 12: 2, 1: 7, 76: 1}","[1, 3, 12, 76]",1731122761,Li1Mg2H7Os1
LiBH7N,mp-1203555,5.643,1.66836161,0.04460988075000394,"{3: 1, 5: 1, 1: 7, 7: 1}","[1, 3, 5, 7]",17315171,Li1B1H7N1
LiH7(SO4)4,mp-1222708,5.759600000000001,-0.98192336,0.006011784017844413,"{3: 1, 1: 7, 16: 4, 8: 16}","[1, 3, 8, 16]",1731816164,Li1H7S4O16
Li2(BH)7,mp-1210763,4.5411,3.33965028,0.14698091216517728,"{3: 2, 5: 7, 1: 7}","[1, 3, 5]",173257,Li2B7H7
Li4H7RhS3O13,mp-1237191,0.0,2.53600662,0.3778985801517809,"{3: 4, 1: 7, 45: 1, 16: 3, 8: 13}","[1, 3, 8, 16, 45]",1734813163451,Li4H7Rh1S3O13
LiBeH8CNOF4,mp-560581,5.5732,-2.28293584,0.03843645112744998,"{3: 1, 4: 1, 1: 8, 6: 1, 7: 1, 8: 1, 9: 4}","[1, 3, 4, 6, 7, 8, 9]",18314161718194,Li1Be1H8C1N1O1F4
LiB(H4N)2,mp-1204824,5.6212,3.07263579,0.1939516945138875,"{3: 1, 5: 1, 1: 8, 7: 2}","[1, 3, 5, 7]",18315172,Li1B1H8N2
KLi(BH4)2,mp-1197966,6.1328,2.82669408,0.002864598750001335,"{19: 1, 3: 1, 5: 2, 1: 8}","[1, 3, 5, 19]",183152191,K1Li1B2H8
LiB3H8,mp-1211100,6.1396,2.28682036,0.02845745293269175,"{3: 1, 5: 3, 1: 8}","[1, 3, 5]",183153,Li1B3H8
LiAlH8C16(O2F9)4,mp-1196128,5.8174,-1.68798745,0.18896901578571423,"{3: 1, 13: 1, 1: 8, 6: 16, 8: 8, 9: 36}","[1, 3, 6, 8, 9, 13]",183161688936131,Li1Al1H8C16O8F36
LiH8C2S2NO5,mp-605006,5.7273,-0.98239206,0.2521556244172878,"{3: 1, 1: 8, 6: 2, 16: 2, 7: 1, 8: 5}","[1, 3, 6, 7, 8, 16]",1831627185162,Li1H8C2S2N1O5
LiCoH8(CO5)2,mp-759255,0.6846000000000001,-1.17948207,0.06506364312500246,"{3: 1, 27: 1, 1: 8, 6: 2, 8: 10}","[1, 3, 6, 8, 27]",183162810271,Li1Co1H8C2O10
LiH8C4O5F9,mp-1198761,5.2926,3.3905139,0.1834074739351852,"{3: 1, 1: 8, 6: 4, 8: 5, 9: 9}","[1, 3, 6, 8, 9]",1831648599,Li1H8C4O5F9
LiP2H8NO8,mp-1195205,5.3449,4.67763313,0.005984690499999168,"{3: 1, 15: 2, 1: 8, 7: 1, 8: 8}","[1, 3, 7, 8, 15]",18317188152,Li1P2H8N1O8
LiAl(H2N)4,mp-695962,1.6440000000000001,0.37004562,0.3698220841071418,"{3: 1, 13: 1, 1: 8, 7: 4}","[1, 3, 7, 13]",183174131,Li1Al1H8N4
LiGa(H2N)4,mp-1194674,3.1636,1.46882509,0.0,"{3: 1, 31: 1, 1: 8, 7: 4}","[1, 3, 7, 31]",183174311,Li1Ga1H8N4