formula,material_id,band_gap,efermi,energy_above_hull,comp_atoms,sorted_keys_comp_atoms,comp_number,new_formula
Li2MnBO4,mp-771018,0.6277000000000001,0.5546743,0.1066437834374998,"{3: 2, 25: 1, 5: 1, 8: 4}","[3, 5, 8, 25]",325184251,Li2Mn1B1O4
Li2CoBO4,mp-752707,1.4304000000000001,1.43958577,0.07367826937499977,"{3: 2, 27: 1, 5: 1, 8: 4}","[3, 5, 8, 27]",325184271,Li2Co1B1O4
Li2NiBO4,mp-771080,0.9314,1.86466081,0.08243056572916707,"{3: 2, 28: 1, 5: 1, 8: 4}","[3, 5, 8, 28]",325184281,Li2Ni1B1O4
Li2BSeO4,mp-770832,2.0982,0.18601169,0.06660748370767688,"{3: 2, 5: 1, 34: 1, 8: 4}","[3, 5, 8, 34]",325184341,Li2B1Se1O4
Li2SnBO4,mp-770833,1.0700000000000003,2.47706564,0.07971834484374796,"{3: 2, 50: 1, 5: 1, 8: 4}","[3, 5, 8, 50]",325184501,Li2Sn1B1O4
Li2BSbO4,mp-770654,1.6851999999999996,2.70604484,0.07299038406249991,"{3: 2, 5: 1, 51: 1, 8: 4}","[3, 5, 8, 51]",325184511,Li2B1Sb1O4
Li2BiBO4,mp-778115,2.3147,2.05101177,0.06377535739583262,"{3: 2, 83: 1, 5: 1, 8: 4}","[3, 5, 8, 83]",325184831,Li2Bi1B1O4
Li2BiBO5,mp-768764,0.0,2.61733329,0.06405714513889293,"{3: 2, 83: 1, 5: 1, 8: 5}","[3, 5, 8, 83]",325185831,Li2Bi1B1O5
Li2SiBSbO7,mp-772132,2.5145,1.30873247,0.09026537847221494,"{3: 2, 14: 1, 5: 1, 51: 1, 8: 7}","[3, 5, 8, 14, 51]",325187141511,Li2Si1B1Sb1O7
Li2VBPO7,mp-771701,1.5137,0.46451037,0.09443133258928338,"{3: 2, 23: 1, 5: 1, 15: 1, 8: 7}","[3, 5, 8, 15, 23]",325187151231,Li2V1B1P1O7
Li2MnBPO7,mp-771706,0.49470000000000003,0.64316226,0.07461867802951261,"{3: 2, 25: 1, 5: 1, 15: 1, 8: 7}","[3, 5, 8, 15, 25]",325187151251,Li2Mn1B1P1O7
Li2SnBPO7,mp-771707,2.7306999999999997,1.32817039,0.09776590108631122,"{3: 2, 50: 1, 5: 1, 15: 1, 8: 7}","[3, 5, 8, 15, 50]",325187151501,Li2Sn1B1P1O7
Li2MnBAsO7,mp-772182,0.49169999999999997,0.28666684,0.0839331520734099,"{3: 2, 25: 1, 5: 1, 33: 1, 8: 7}","[3, 5, 8, 25, 33]",325187251331,Li2Mn1B1As1O7
NaLi2B(PO4)2,mp-1020646,5.8332999999999995,0.88492039,0.0,"{11: 1, 3: 2, 5: 1, 15: 2, 8: 8}","[3, 5, 8, 11, 15]",325188111152,Na1Li2B1P2O8
Li2BF5,mp-1188485,7.5703000000000005,-2.25073476,0.0349704858333304,"{3: 2, 5: 1, 9: 5}","[3, 5, 9]",325195,Li2B1F5
Li2Te,mp-2530,2.4914,2.26399067,0.0,"{3: 2, 52: 1}","[3, 52]",32521,Li2Te1
Li2B2S5,mp-29410,2.4427000000000003,1.56533848,0.0,"{3: 2, 5: 2, 16: 5}","[3, 5, 16]",3252165,Li2B2S5
Li2B2Se5,mp-30100,1.7046999999999999,2.59944206,0.0,"{3: 2, 5: 2, 34: 5}","[3, 5, 34]",3252345,Li2B2Se5
Li2B2Rh3,mp-605839,0.0,5.14140466,0.0,"{3: 2, 5: 2, 45: 3}","[3, 5, 45]",3252453,Li2B2Rh3
Li2B2C,mp-1078212,0.0,3.50783841,0.4097141330000005,"{3: 2, 5: 2, 6: 1}","[3, 5, 6]",325261,Li2B2C1
Cs2Li2B2P4O15,mp-1019606,5.4224000000000006,0.47190838,0.0,"{55: 2, 3: 2, 5: 2, 15: 4, 8: 15}","[3, 5, 8, 15, 55]",3252815154552,Cs2Li2B2P4O15
Cs3NaLi2(BO3)2,mp-607931,3.4539999999999997,0.94143611,0.0,"{55: 3, 11: 1, 3: 2, 5: 2, 8: 6}","[3, 5, 8, 11, 55]",325286111553,Cs3Na1Li2B2O6
Li2Ti(BO3)2,mp-759926,2.9516,0.46083666,0.06196080409090676,"{3: 2, 22: 1, 5: 2, 8: 6}","[3, 5, 8, 22]",325286221,Li2Ti1B2O6
Li2Mn(BO3)2,mp-776779,1.7429999999999999,0.24919652,0.07919770595454434,"{3: 2, 25: 1, 5: 2, 8: 6}","[3, 5, 8, 25]",325286251,Li2Mn1B2O6
Li2Sn(BO3)2,mp-759667,3.2075000000000005,1.37146226,0.07113624090909898,"{3: 2, 50: 1, 5: 2, 8: 6}","[3, 5, 8, 50]",325286501,Li2Sn1B2O6
Li2Bi(BO3)2,mp-768437,0.0,1.18402013,0.06872005181818341,"{3: 2, 83: 1, 5: 2, 8: 6}","[3, 5, 8, 83]",325286831,Li2Bi1B2O6
Li2Bi2B2O7,mp-768821,2.696,2.2825882,0.06144025833333089,"{3: 2, 83: 2, 5: 2, 8: 7}","[3, 5, 8, 83]",325287832,Li2Bi2B2O7
CsLi2I3,mp-569055,4.4204,0.21641867,0.017335858333333398,"{55: 1, 3: 2, 53: 3}","[3, 53, 55]",32533551,Cs1Li2I3
Cs3Li2I5,mp-1181918,3.7443,-0.06031093,0.016587094999998886,"{55: 3, 3: 2, 53: 5}","[3, 53, 55]",32535553,Cs3Li2I5
Li2UI6,mp-570813,0.0,2.36542801,0.0,"{3: 2, 92: 1, 53: 6}","[3, 53, 92]",32536921,Li2U1I6
Li2V5B3O13,mp-772588,1.5717000000000003,3.44588434,0.04378763293476595,"{3: 2, 23: 5, 5: 3, 8: 13}","[3, 5, 8, 23]",3253813235,Li2V5B3O13
Li2Cr5B3O13,mp-772573,1.2860999999999998,3.3920863,0.0889145080706566,"{3: 2, 24: 5, 5: 3, 8: 13}","[3, 5, 8, 24]",3253813245,Li2Cr5B3O13
Li2Lu5B3O13,mp-1210908,4.4597,1.2683652,0.0020799457608635663,"{3: 2, 71: 5, 5: 3, 8: 13}","[3, 5, 8, 71]",3253813715,Li2Lu5B3O13
Li2Bi5B3O13,mp-768740,2.0835999999999997,3.47781557,0.04210080625000234,"{3: 2, 83: 5, 5: 3, 8: 13}","[3, 5, 8, 83]",3253813835,Li2Bi5B3O13
Li2B3O4F3,mp-1196457,6.573499999999999,-1.83500441,0.0,"{3: 2, 5: 3, 8: 4, 9: 3}","[3, 5, 8, 9]",32538493,Li2B3O4F3
Li2B3PO8,mp-1020015,5.4366,0.45074699,0.0,"{3: 2, 5: 3, 15: 1, 8: 8}","[3, 5, 8, 15]",325388151,Li2B3P1O8
RbLi2V2(BO3)3,mp-772424,2.1205999999999996,1.19379451,0.06251748165441384,"{37: 1, 3: 2, 23: 2, 5: 3, 8: 9}","[3, 5, 8, 23, 37]",325389232371,Rb1Li2V2B3O9
RbLi2Cr2(BO3)3,mp-770630,2.0057,1.19591669,0.10087357863970858,"{37: 1, 3: 2, 24: 2, 5: 3, 8: 9}","[3, 5, 8, 24, 37]",325389242371,Rb1Li2Cr2B3O9
RbLi2Mn2(BO3)3,mp-770725,0.24209999999999993,0.42671164,0.0887995436764708,"{37: 1, 3: 2, 25: 2, 5: 3, 8: 9}","[3, 5, 8, 25, 37]",325389252371,Rb1Li2Mn2B3O9
Li2Mn3(BO3)3,mp-780102,0.0,1.9649998,0.04486565676471521,"{3: 2, 25: 3, 5: 3, 8: 9}","[3, 5, 8, 25]",325389253,Li2Mn3B3O9
RbLi2Co2(BO3)3,mp-770633,1.1508,0.18485975,0.07710588188997036,"{37: 1, 3: 2, 27: 2, 5: 3, 8: 9}","[3, 5, 8, 27, 37]",325389272371,Rb1Li2Co2B3O9
RbLi2Ni2(BO3)3,mp-770719,0.6137,0.68088326,0.08064713646265442,"{37: 1, 3: 2, 28: 2, 5: 3, 8: 9}","[3, 5, 8, 28, 37]",325389282371,Rb1Li2Ni2B3O9
Li2Ni3(BO3)3,mp-1177892,0.0,1.53326219,0.10267231411763422,"{3: 2, 28: 3, 5: 3, 8: 9}","[3, 5, 8, 28]",325389283,Li2Ni3B3O9
RbLi2Ga2(BO3)3,mp-16872,3.3885,0.29663869,0.004173050424836511,"{37: 1, 3: 2, 31: 2, 5: 3, 8: 9}","[3, 5, 8, 31, 37]",325389312371,Rb1Li2Ga2B3O9
RbLi2B3Sb2O9,mp-769329,2.2754999999999996,2.35405247,0.0934876223529395,"{37: 1, 3: 2, 5: 3, 51: 2, 8: 9}","[3, 5, 8, 37, 51]",325389371512,Rb1Li2B3Sb2O9
Li2Mn3(BO3)4,mp-766516,0.49759999999999993,0.63572961,0.09666320312188237,"{3: 2, 25: 3, 5: 4, 8: 12}","[3, 5, 8, 25]",3254812253,Li2Mn3B4O12
Li2B4O7,mp-4779,5.668,0.66836281,0.002735776057693151,"{3: 2, 5: 4, 8: 7}","[3, 5, 8]",325487,Li2B4O7
Li2Al(BO2)5,mp-557177,5.6317,-0.07480131,0.0,"{3: 2, 13: 1, 5: 5, 8: 10}","[3, 5, 8, 13]",3255810131,Li2Al1B5O10
Li2V(BO2)5,mp-772429,2.5921,0.63153339,0.04079260229165982,"{3: 2, 23: 1, 5: 5, 8: 10}","[3, 5, 8, 23]",3255810231,Li2V1B5O10
Li2Cr(BO2)5,mp-772433,1.9858000000000002,0.34416691,0.07916740101850372,"{3: 2, 24: 1, 5: 5, 8: 10}","[3, 5, 8, 24]",3255810241,Li2Cr1B5O10
Li2Mn(BO2)5,mp-772440,0.9682,-0.12828487,0.05209484133584752,"{3: 2, 25: 1, 5: 5, 8: 10}","[3, 5, 8, 25]",3255810251,Li2Mn1B5O10
Li2B5SbO10,mp-769374,3.3989999999999996,1.83630439,0.053245050972215324,"{3: 2, 5: 5, 51: 1, 8: 10}","[3, 5, 8, 51]",3255810511,Li2B5Sb1O10
Li2Bi(BO2)5,mp-768756,3.3903999999999996,0.69778326,0.052698494930563555,"{3: 2, 83: 1, 5: 5, 8: 10}","[3, 5, 8, 83]",3255810831,Li2Bi1B5O10
CsLi2Gd4(BO3)5,mp-1197930,2.5666,1.30401681,0.0,"{55: 1, 3: 2, 64: 4, 5: 5, 8: 15}","[3, 5, 8, 55, 64]",3255815551644,Cs1Li2Gd4B5O15
Li2B6O9F2,mp-1200209,6.2705,-1.04078464,0.0,"{3: 2, 5: 6, 8: 9, 9: 2}","[3, 5, 8, 9]",32568992,Li2B6O9F2
Li2LaTl,mp-866195,0.0,5.35048624,0.0,"{3: 2, 57: 1, 81: 1}","[3, 57, 81]",32571811,Li2La1Tl1
Li2LaPb,mp-861893,0.0,6.15637096,0.0,"{3: 2, 57: 1, 82: 1}","[3, 57, 82]",32571821,Li2La1Pb1
Li2CeTl,mp-865971,0.0,5.09405933,0.06035481249999819,"{3: 2, 58: 1, 81: 1}","[3, 58, 81]",32581811,Li2Ce1Tl1
Li2CePb,mp-865932,0.0,5.81448693,0.05367610107143017,"{3: 2, 58: 1, 82: 1}","[3, 58, 82]",32581821,Li2Ce1Pb1
Li25Ca5La7Nb8O48,mp-695291,3.3864,5.79195914,0.11655560188843328,"{3: 25, 20: 5, 57: 7, 41: 8, 8: 48}","[3, 8, 20, 41, 57]",325848205418577,Li25Ca5La7Nb8O48
Sr5Li25La7Nb8O48,mp-686239,3.2108999999999996,5.39851062,0.10386692235664086,"{38: 5, 3: 25, 57: 7, 41: 8, 8: 48}","[3, 8, 38, 41, 57]",325848385418577,Sr5Li25La7Nb8O48
Sr5Li25La7(BiO6)8,mp-686736,1.9255,4.51746434,0.030261060661951333,"{38: 5, 3: 25, 57: 7, 83: 8, 8: 48}","[3, 8, 38, 57, 83]",325848385577838,Sr5Li25La7Bi8O48
Li2B8SeO15,mp-1198324,4.8776,4.3855484,0.0,"{3: 2, 5: 8, 34: 1, 8: 15}","[3, 5, 8, 34]",3258815341,Li2B8Se1O15
Li2PrTl,mp-865715,0.0,3.69716793,0.0,"{3: 2, 59: 1, 81: 1}","[3, 59, 81]",32591811,Li2Pr1Tl1
Li2PrPb,mp-866197,0.0,4.65634022,0.006741105142156201,"{3: 2, 59: 1, 82: 1}","[3, 59, 82]",32591821,Li2Pr1Pb1
Li2NdTl,mp-866179,0.0,3.71889507,0.0,"{3: 2, 60: 1, 81: 1}","[3, 60, 81]",32601811,Li2Nd1Tl1
Li2NdPb,mp-1184981,0.0,4.67353083,0.02030970739705973,"{3: 2, 60: 1, 82: 1}","[3, 60, 82]",32601821,Li2Nd1Pb1
Li2C,mp-1210743,0.0,0.46468104,0.9144175645370365,"{3: 2, 6: 1}","[3, 6]",3261,Li2C1
Li2PmTl,mp-862934,0.0,3.75809603,0.0,"{3: 2, 61: 1, 81: 1}","[3, 61, 81]",32611811,Li2Pm1Tl1
Li2PmPb,mp-862948,0.0,4.71603223,0.0,"{3: 2, 61: 1, 82: 1}","[3, 61, 82]",32611821,Li2Pm1Pb1
CsLi2C,mp-1213008,0.0,2.55404398,1.3288492987212637,"{55: 1, 3: 2, 6: 1}","[3, 6, 55]",3261551,Cs1Li2C1
Li2CN2,mp-9610,3.7395,0.58882221,0.0,"{3: 2, 6: 1, 7: 2}","[3, 6, 7]",326172,Li2C1N2
Li2CO3,mp-3054,5.0573999999999995,-0.1416317,0.0,"{3: 2, 6: 1, 8: 3}","[3, 6, 8]",326183,Li2C1O3
Li2MnCO4,mp-758215,2.1318,1.55025363,0.1116957093750024,"{3: 2, 25: 1, 6: 1, 8: 4}","[3, 6, 8, 25]",326184251,Li2Mn1C1O4
Li2CoCO4,mp-757730,2.5618999999999996,1.03407082,0.0884266343749962,"{3: 2, 27: 1, 6: 1, 8: 4}","[3, 6, 8, 27]",326184271,Li2Co1C1O4
Li2VCO5,mp-1177806,1.6756000000000002,1.98477966,0.05153788555556016,"{3: 2, 23: 1, 6: 1, 8: 5}","[3, 6, 8, 23]",326185231,Li2V1C1O5
Li2MnCO5,mp-764236,0.5015000000000001,1.68247476,0.04742732851852338,"{3: 2, 25: 1, 6: 1, 8: 5}","[3, 6, 8, 25]",326185251,Li2Mn1C1O5
NaLi2MnPCO7,mp-1667394,3.5987999999999998,1.68912325,0.024327490448733613,"{11: 1, 3: 2, 25: 1, 15: 1, 6: 1, 8: 7}","[3, 6, 8, 11, 15, 25]",326187111151251,Na1Li2Mn1P1C1O7
NaLi2CoPCO7,mp-760344,2.9398,1.71420533,0.028326489230765084,"{11: 1, 3: 2, 27: 1, 15: 1, 6: 1, 8: 7}","[3, 6, 8, 11, 15, 27]",326187111151271,Na1Li2Co1P1C1O7
NaLi2NiPCO7,mp-760210,3.5529,1.61003173,0.024832527371791535,"{11: 1, 3: 2, 28: 1, 15: 1, 6: 1, 8: 7}","[3, 6, 8, 11, 15, 28]",326187111151281,Na1Li2Ni1P1C1O7
Li2AlPCO7,mp-767214,5.361400000000001,1.16770771,0.03264572569444546,"{3: 2, 13: 1, 15: 1, 6: 1, 8: 7}","[3, 6, 8, 13, 15]",326187131151,Li2Al1P1C1O7
Li2VSiCO7,mp-770348,1.8635000000000002,0.98354994,0.07471652347221269,"{3: 2, 23: 1, 14: 1, 6: 1, 8: 7}","[3, 6, 8, 14, 23]",326187141231,Li2V1Si1C1O7
Li2MnSiCO7,mp-768606,0.9821,0.81978792,0.07327730798610954,"{3: 2, 25: 1, 14: 1, 6: 1, 8: 7}","[3, 6, 8, 14, 25]",326187141251,Li2Mn1Si1C1O7
Li2SiSnCO7,mp-770647,3.0435999999999996,1.26813614,0.08537655013888568,"{3: 2, 14: 1, 50: 1, 6: 1, 8: 7}","[3, 6, 8, 14, 50]",326187141501,Li2Si1Sn1C1O7
KLi2MnPCO7,mp-761146,3.0119,1.32118767,0.06995122336538273,"{19: 1, 3: 2, 25: 1, 15: 1, 6: 1, 8: 7}","[3, 6, 8, 15, 19, 25]",326187151191251,K1Li2Mn1P1C1O7
Li2ScPCO7,mp-767341,4.0839,0.63005315,0.04728066791666308,"{3: 2, 21: 1, 15: 1, 6: 1, 8: 7}","[3, 6, 8, 15, 21]",326187151211,Li2Sc1P1C1O7
Li2TiPCO7,mp-25400,0.23119999999999985,3.93701323,0.13001892140624616,"{3: 2, 22: 1, 15: 1, 6: 1, 8: 7}","[3, 6, 8, 15, 22]",326187151221,Li2Ti1P1C1O7
Li2VPCO7,mp-770949,1.9668999999999999,1.29328482,0.013545932604165145,"{3: 2, 23: 1, 15: 1, 6: 1, 8: 7}","[3, 6, 8, 15, 23]",326187151231,Li2V1P1C1O7
Li2CrPCO7,mp-776285,2.6729,0.85155894,0.012863353020833301,"{3: 2, 24: 1, 15: 1, 6: 1, 8: 7}","[3, 6, 8, 15, 24]",326187151241,Li2Cr1P1C1O7
Li2MnPCO7,mp-756699,0.6842999999999999,0.89430839,0.01062427303240554,"{3: 2, 25: 1, 15: 1, 6: 1, 8: 7}","[3, 6, 8, 15, 25]",326187151251,Li2Mn1P1C1O7
Li2CoPCO7,mp-25454,0.7795999999999998,1.20956079,0.050053489791652694,"{3: 2, 27: 1, 15: 1, 6: 1, 8: 7}","[3, 6, 8, 15, 27]",326187151271,Li2Co1P1C1O7
Li2NiPCO7,mp-25396,0.0,0.88484861,0.05410089531250417,"{3: 2, 28: 1, 15: 1, 6: 1, 8: 7}","[3, 6, 8, 15, 28]",326187151281,Li2Ni1P1C1O7
Li2AsPCO7,mp-768153,4.265,0.90068708,0.06420360583333906,"{3: 2, 33: 1, 15: 1, 6: 1, 8: 7}","[3, 6, 8, 15, 33]",326187151331,Li2As1P1C1O7
Li2SbPCO7,mp-1177866,4.0421000000000005,1.45002369,0.03035296611111349,"{3: 2, 51: 1, 15: 1, 6: 1, 8: 7}","[3, 6, 8, 15, 51]",326187151511,Li2Sb1P1C1O7
Li2NdPCO7,mp-753626,4.193,0.71176866,0.10382400416666648,"{3: 2, 60: 1, 15: 1, 6: 1, 8: 7}","[3, 6, 8, 15, 60]",326187151601,Li2Nd1P1C1O7
Li2SmPCO7,mp-768193,4.6246,0.56395224,0.09932222000000035,"{3: 2, 62: 1, 15: 1, 6: 1, 8: 7}","[3, 6, 8, 15, 62]",326187151621,Li2Sm1P1C1O7
Li2DyPCO7,mp-767279,4.784800000000001,0.68204984,0.09390735083333279,"{3: 2, 66: 1, 15: 1, 6: 1, 8: 7}","[3, 6, 8, 15, 66]",326187151661,Li2Dy1P1C1O7
Li2HoPCO7,mp-768200,5.0686,0.71760271,0.09623678125000001,"{3: 2, 67: 1, 15: 1, 6: 1, 8: 7}","[3, 6, 8, 15, 67]",326187151671,Li2Ho1P1C1O7
Li2ErPCO7,mp-768195,4.8579,0.55302144,0.0904793912500006,"{3: 2, 68: 1, 15: 1, 6: 1, 8: 7}","[3, 6, 8, 15, 68]",326187151681,Li2Er1P1C1O7
Li2TmPCO7,mp-768218,4.8642,0.65948214,0.09174810250000043,"{3: 2, 69: 1, 15: 1, 6: 1, 8: 7}","[3, 6, 8, 15, 69]",326187151691,Li2Tm1P1C1O7
Li2LuPCO7,mp-755876,4.7648,0.63306685,0.0861921299999997,"{3: 2, 71: 1, 15: 1, 6: 1, 8: 7}","[3, 6, 8, 15, 71]",326187151711,Li2Lu1P1C1O7
Li2PWCO7,mp-25398,3.2806999999999995,1.60661514,0.10110685880953696,"{3: 2, 15: 1, 74: 1, 6: 1, 8: 7}","[3, 6, 8, 15, 74]",326187151741,Li2P1W1C1O7
Li2TlPCO7,mp-754034,1.5182000000000002,1.29940463,0.03726239680555743,"{3: 2, 81: 1, 15: 1, 6: 1, 8: 7}","[3, 6, 8, 15, 81]",326187151811,Li2Tl1P1C1O7
Li2BiPCO7,mp-768216,3.7498999999999993,0.91422422,0.0491974379166642,"{3: 2, 83: 1, 15: 1, 6: 1, 8: 7}","[3, 6, 8, 15, 83]",326187151831,Li2Bi1P1C1O7
Li2CrCSO7,mp-768607,1.9799000000000002,2.07993405,0.10624671341677594,"{3: 2, 24: 1, 6: 1, 16: 1, 8: 7}","[3, 6, 8, 16, 24]",326187161241,Li2Cr1C1S1O7
Li2MnCSO7,mp-780526,3.8191999999999995,0.96627996,0.0681243956249924,"{3: 2, 25: 1, 6: 1, 16: 1, 8: 7}","[3, 6, 8, 16, 25]",326187161251,Li2Mn1C1S1O7
Li2CoCSO7,mp-771972,2.4992,1.19994118,0.06191865291666865,"{3: 2, 27: 1, 6: 1, 16: 1, 8: 7}","[3, 6, 8, 16, 27]",326187161271,Li2Co1C1S1O7
Li2NiCSO7,mp-771145,3.2596,1.39053005,0.06106806229167194,"{3: 2, 28: 1, 6: 1, 16: 1, 8: 7}","[3, 6, 8, 16, 28]",326187161281,Li2Ni1C1S1O7
Li2SnCSO7,mp-770884,3.7891000000000004,1.43933591,0.10302030578125354,"{3: 2, 50: 1, 6: 1, 16: 1, 8: 7}","[3, 6, 8, 16, 50]",326187161501,Li2Sn1C1S1O7
Li2VAsCO7,mp-772133,2.0674,1.27601349,0.04141836216668171,"{3: 2, 23: 1, 33: 1, 6: 1, 8: 7}","[3, 6, 8, 23, 33]",326187231331,Li2V1As1C1O7
Li2CrAsCO7,mp-773176,2.96,0.50659509,0.026140855555548903,"{3: 2, 24: 1, 33: 1, 6: 1, 8: 7}","[3, 6, 8, 24, 33]",326187241331,Li2Cr1As1C1O7
Li2MnAsCO7,mp-771151,0.48460000000000003,0.8597804,0.026254811597197225,"{3: 2, 25: 1, 33: 1, 6: 1, 8: 7}","[3, 6, 8, 25, 33]",326187251331,Li2Mn1As1C1O7
Li2SbAsCO7,mp-771804,3.1606999999999994,1.16196356,0.06438785583332418,"{3: 2, 51: 1, 33: 1, 6: 1, 8: 7}","[3, 6, 8, 33, 51]",326187331511,Li2Sb1As1C1O7
Li2BiAsCO7,mp-772155,3.367,0.74202461,0.06097300479166723,"{3: 2, 83: 1, 33: 1, 6: 1, 8: 7}","[3, 6, 8, 33, 83]",326187331831,Li2Bi1As1C1O7
Li2SmTl,mp-866200,0.0,3.76764447,0.0,"{3: 2, 62: 1, 81: 1}","[3, 62, 81]",32621811,Li2Sm1Tl1
Li2V(CO3)2,mp-1567493,2.9913000000000003,1.81501073,0.04981646917613869,"{3: 2, 23: 1, 6: 2, 8: 6}","[3, 6, 8, 23]",326286231,Li2V1C2O6
Li2Cr(CO3)2,mp-754838,3.0916000000000006,1.04017822,0.06452327869318619,"{3: 2, 24: 1, 6: 2, 8: 6}","[3, 6, 8, 24]",326286241,Li2Cr1C2O6
Li2Mn(CO3)2,mp-765973,3.0605,0.35318982,0.03781619727272911,"{3: 2, 25: 1, 6: 2, 8: 6}","[3, 6, 8, 25]",326286251,Li2Mn1C2O6
Li2Co(CO3)2,mp-753950,2.6334,0.32896866,0.022726872727270475,"{3: 2, 27: 1, 6: 2, 8: 6}","[3, 6, 8, 27]",326286271,Li2Co1C2O6
Li2Ni(CO3)2,mp-766032,3.5794,0.99925634,0.0423084706818182,"{3: 2, 28: 1, 6: 2, 8: 6}","[3, 6, 8, 28]",326286281,Li2Ni1C2O6
RbLi2CdC2O6F,mp-1192391,3.2753,-0.13419881,0.0,"{37: 1, 3: 2, 48: 1, 6: 2, 8: 6, 9: 1}","[3, 6, 8, 9, 37, 48]",32628691371481,Rb1Li2Cd1C2O6F1
Li2Mn2C2O7,mp-760097,1.9123,2.12054168,0.1045772436538499,"{3: 2, 25: 2, 6: 2, 8: 7}","[3, 6, 8, 25]",326287252,Li2Mn2C2O7
Li2Co2C2O7,mp-757756,1.7858,3.87190261,0.08331677846153518,"{3: 2, 27: 2, 6: 2, 8: 7}","[3, 6, 8, 27]",326287272,Li2Co2C2O7
Li2C3SN6O7,mp-1198353,0.1291,-1.80564473,1.1452395192045461,"{3: 2, 6: 3, 16: 1, 7: 6, 8: 7}","[3, 6, 7, 8, 16]",32637687161,Li2C3S1N6O7
Li2V(CO3)3,mp-758564,2.3544,-0.95807188,0.07135811033333717,"{3: 2, 23: 1, 6: 3, 8: 9}","[3, 6, 8, 23]",326389231,Li2V1C3O9
Li2Cr(CO3)3,mp-780684,0.019500000000000003,0.1076572,0.07404349025925416,"{3: 2, 24: 1, 6: 3, 8: 9}","[3, 6, 8, 24]",326389241,Li2Cr1C3O9
Li2Mn2(CO3)3,mp-752466,4.0204,1.49159913,0.08698325687499775,"{3: 2, 25: 2, 6: 3, 8: 9}","[3, 6, 8, 25]",326389252,Li2Mn2C3O9
Li2Co2(CO3)3,mp-757737,2.2431,1.38445274,0.09058580343749512,"{3: 2, 27: 2, 6: 3, 8: 9}","[3, 6, 8, 27]",326389272,Li2Co2C3O9
Li2GdTl,mp-865349,0.0,3.81491045,0.0,"{3: 2, 64: 1, 81: 1}","[3, 64, 81]",32641811,Li2Gd1Tl1
Li26(B24O)3,mp-685675,0.0,2.05190571,0.08830633137471189,"{3: 26, 5: 72, 8: 3}","[3, 5, 8]",32657283,Li26B72O3
Li2DyTl,mp-865581,0.0,4.03037086,0.0,"{3: 2, 66: 1, 81: 1}","[3, 66, 81]",32661811,Li2Dy1Tl1
Li2V3(CO3)6,mp-758280,0.44310000000000005,1.07824354,0.05586370724138057,"{3: 2, 23: 3, 6: 6, 8: 18}","[3, 6, 8, 23]",3266818233,Li2V3C6O18
Li2Cr3(CO3)6,mp-757965,0.0,0.42689756,0.05021205499999937,"{3: 2, 24: 3, 6: 6, 8: 18}","[3, 6, 8, 24]",3266818243,Li2Cr3C6O18
Li2HoTl,mp-865624,0.0,4.02325949,0.0,"{3: 2, 67: 1, 81: 1}","[3, 67, 81]",32671811,Li2Ho1Tl1
Li2ErTl,mp-865573,0.0,4.1079361,0.006769102777779867,"{3: 2, 68: 1, 81: 1}","[3, 68, 81]",32681811,Li2Er1Tl1
Li2TmTl,mp-975786,0.0,4.09759893,0.01606407995370418,"{3: 2, 69: 1, 81: 1}","[3, 69, 81]",32691811,Li2Tm1Tl1
Li2N,mp-1062345,0.0,1.75318654,0.2636250425000002,"{3: 2, 7: 1}","[3, 7]",3271,Li2N1
NaLi2N,mp-570998,0.0,0.71936311,0.0938097343773947,"{11: 1, 3: 2, 7: 1}","[3, 7, 11]",3271111,Na1Li2N1
Li2MnN,mp-1210748,0.0,2.63707717,0.14259670955459836,"{3: 2, 25: 1, 7: 1}","[3, 7, 25]",3271251,Li2Mn1N1
Li2NiN,mp-1210761,0.0,3.14438436,0.007124681250000542,"{3: 2, 28: 1, 7: 1}","[3, 7, 28]",3271281,Li2Ni1N1
Li2AgN,mp-1246010,0.04159999999999986,1.62287674,0.2383008535416682,"{3: 2, 47: 1, 7: 1}","[3, 7, 47]",3271471,Li2Ag1N1
Li2PNO2,mp-1020019,5.3528,2.28668453,0.0,"{3: 2, 15: 1, 7: 1, 8: 2}","[3, 7, 8, 15]",327182151,Li2P1N1O2
Li2P3NO9,mp-734003,0.0,-1.41636809,0.41863609180555184,"{3: 2, 15: 3, 7: 1, 8: 9}","[3, 7, 8, 15]",327189153,Li2P3N1O9
Li2SiN2,mp-684024,3.8508,3.60405319,0.0,"{3: 2, 14: 1, 7: 2}","[3, 7, 14]",3272141,Li2Si1N2
Li2CaN2,mp-1069755,0.0,2.06810057,0.3502179949999995,"{3: 2, 20: 1, 7: 2}","[3, 7, 20]",3272201,Li2Ca1N2
Li2Ca(MnN)2,mp-1210783,0.0,3.42559817,0.11703536375205381,"{3: 2, 20: 1, 25: 2, 7: 2}","[3, 7, 20, 25]",3272201252,Li2Ca1Mn2N2
Li2TiN2,mp-1245502,0.8613999999999997,5.13847324,0.012302579458333796,"{3: 2, 22: 1, 7: 2}","[3, 7, 22]",3272221,Li2Ti1N2
Li2VN2,mp-1246112,0.0,4.83152975,0.15079447812500746,"{3: 2, 23: 1, 7: 2}","[3, 7, 23]",3272231,Li2V1N2
Li2CrN2,mp-1245916,0.0,4.94719413,0.29065395533333405,"{3: 2, 24: 1, 7: 2}","[3, 7, 24]",3272241,Li2Cr1N2
Li2MnN2,mp-1247418,0.4918999999999998,3.8409462,0.03315951144444362,"{3: 2, 25: 1, 7: 2}","[3, 7, 25]",3272251,Li2Mn1N2
Li2CoN2,mp-1247124,0.0,3.7714945,0.1750432710000016,"{3: 2, 27: 1, 7: 2}","[3, 7, 27]",3272271,Li2Co1N2
Li2GeN2,mp-1029776,2.6889000000000003,2.25475135,0.0,"{3: 2, 32: 1, 7: 2}","[3, 7, 32]",3272321,Li2Ge1N2
Li2ZrN2,mp-3216,1.5618999999999996,4.05832841,0.0,"{3: 2, 40: 1, 7: 2}","[3, 7, 40]",3272401,Li2Zr1N2
Li2RuN2,mp-1246439,0.0,5.02560982,0.21014197799999756,"{3: 2, 44: 1, 7: 2}","[3, 7, 44]",3272441,Li2Ru1N2
Li2RhN2,mp-1246256,0.0,4.16863426,0.16294634316666645,"{3: 2, 45: 1, 7: 2}","[3, 7, 45]",3272451,Li2Rh1N2
Li2SnN2,mp-1029385,1.6966999999999999,5.69124317,0.0,"{3: 2, 50: 1, 7: 2}","[3, 7, 50]",3272501,Li2Sn1N2
Li2CeN2,mp-8181,1.2035999999999998,5.07943776,0.0,"{3: 2, 58: 1, 7: 2}","[3, 7, 58]",3272581,Li2Ce1N2