formula,material_id,band_gap,efermi,energy_above_hull,comp_atoms,sorted_keys_comp_atoms,comp_number,new_formula
Li9Mn2AlO8,mp-770680,2.1143,1.71000328,0.07646532056250077,"{3: 9, 25: 2, 13: 1, 8: 8}","[3, 8, 13, 25]",3988131252,Li9Mn2Al1O8
Li9Al(CoO4)2,mp-770726,1.9766000000000001,1.84251522,0.06028273249999838,"{3: 9, 13: 1, 27: 2, 8: 8}","[3, 8, 13, 27]",3988131272,Li9Al1Co2O8
Li9Al(NiO4)2,mp-770517,2.4003000000000005,1.57264849,0.09455253793749918,"{3: 9, 13: 1, 28: 2, 8: 8}","[3, 8, 13, 28]",3988131282,Li9Al1Ni2O8
Li9(CoO4)2,mp-776979,0.4337,0.45163645,0.05347285315789296,"{3: 9, 27: 2, 8: 8}","[3, 8, 27]",3988272,Li9Co2O8
Li9(NiO4)2,mp-775731,0.0,0.2393661,0.09109427741227893,"{3: 9, 28: 2, 8: 8}","[3, 8, 28]",3988282,Li9Ni2O8
Li9Nb10Cr6(PO4)24,mp-850091,0.03330000000000011,3.30304954,0.036858049677247706,"{3: 9, 41: 10, 24: 6, 15: 24, 8: 96}","[3, 8, 15, 24, 41]",3989615242464110,Li9Nb10Cr6P24O96
Li9V8F48,mp-1176824,0.4379000000000002,-1.58787921,0.04890425292307654,"{3: 9, 23: 8, 9: 48}","[3, 9, 23]",39948238,Li9V8F48