formula,material_id,band_gap,efermi,energy_above_hull,comp_atoms,sorted_keys_comp_atoms,comp_number,new_formula
Li4V8O13F3,mp-767820,0.6770999999999998,2.82564021,0.07038928183036752,"{3: 4, 23: 8, 8: 13, 9: 3}","[3, 8, 9, 23]",3481393238,Li4V8O13F3
Li4Mn8O13F3,mp-766808,0.4683999999999999,2.76550834,0.04120197823659755,"{3: 4, 25: 8, 8: 13, 9: 3}","[3, 8, 9, 25]",3481393258,Li4Mn8O13F3
Na5Li4Ti5O14,mp-775424,0.0484,5.09741876,0.016759601755952147,"{11: 5, 3: 4, 22: 5, 8: 14}","[3, 8, 11, 22]",34814115225,Na5Li4Ti5O14
Li4Nb(P2O7)2,mp-863382,0.6434000000000006,4.78010184,0.08367497632039278,"{3: 4, 41: 1, 15: 4, 8: 14}","[3, 8, 15, 41]",34814154411,Li4Nb1P4O14
Li4(CoO2)7,mp-699137,0.0,2.65847795,0.1748349176500117,"{3: 4, 27: 7, 8: 14}","[3, 8, 27]",34814277,Li4Co7O14
Li4(NiO2)7,mp-774600,0.0,3.23921488,0.030503403183333333,"{3: 4, 28: 7, 8: 14}","[3, 8, 28]",34814287,Li4Ni7O14
Li4V3P4O15,mp-773115,2.1958999999999995,3.68540233,0.06362949084935732,"{3: 4, 23: 3, 15: 4, 8: 15}","[3, 8, 15, 23]",34815154233,Li4V3P4O15
Li4Cr3P4O15,mp-772300,2.6174,3.02909651,0.04695203225962885,"{3: 4, 24: 3, 15: 4, 8: 15}","[3, 8, 15, 24]",34815154243,Li4Cr3P4O15
Li4Co3P4O15,mp-778384,2.8956,2.28662744,0.07464146256412274,"{3: 4, 27: 3, 15: 4, 8: 15}","[3, 8, 15, 27]",34815154273,Li4Co3P4O15
Li4Ni3P4O15,mp-540518,3.7007000000000003,3.02500513,0.03517039419871715,"{3: 4, 28: 3, 15: 4, 8: 15}","[3, 8, 15, 28]",34815154283,Li4Ni3P4O15
Li48P16S61,mp-1001069,2.2955,1.80864351,0.018961356952001296,"{3: 48, 15: 16, 16: 61}","[3, 15, 16]",34815161661,Li48P16S61
Li4Al3Cr3(SbO8)2,mp-770625,2.5052000000000003,4.09482937,0.003031566160712984,"{3: 4, 13: 3, 24: 3, 51: 2, 8: 16}","[3, 8, 13, 24, 51]",34816133243512,Li4Al3Cr3Sb2O16
Li4TiMn3(PO4)4,mp-756813,0.0,6.4076739,0.08078137882653014,"{3: 4, 22: 1, 25: 3, 15: 4, 8: 16}","[3, 8, 15, 22, 25]",34816154221253,Li4Ti1Mn3P4O16
Li4Mn3V(PO4)4,mp-757332,0.8172999999999995,5.29315239,0.003168419107143272,"{3: 4, 25: 3, 23: 1, 15: 4, 8: 16}","[3, 8, 15, 23, 25]",34816154231253,Li4Mn3V1P4O16
Li4VCo3(PO4)4,mp-1177182,1.1076000000000006,4.24961646,0.039252464107148555,"{3: 4, 23: 1, 27: 3, 15: 4, 8: 16}","[3, 8, 15, 23, 27]",34816154231273,Li4V1Co3P4O16
Li4VNi3(PO4)4,mp-757423,1.1989,4.94446213,0.022796248437498612,"{3: 4, 23: 1, 28: 3, 15: 4, 8: 16}","[3, 8, 15, 23, 28]",34816154231283,Li4V1Ni3P4O16
Li4MnV3(PO4)4,mp-757477,0.7046000000000001,5.69030333,0.005918405178572783,"{3: 4, 25: 1, 23: 3, 15: 4, 8: 16}","[3, 8, 15, 23, 25]",34816154233251,Li4Mn1V3P4O16
Li4V3Co(PO4)4,mp-765840,0.6162999999999998,4.59169748,0.04700276834524075,"{3: 4, 23: 3, 27: 1, 15: 4, 8: 16}","[3, 8, 15, 23, 27]",34816154233271,Li4V3Co1P4O16
Li4V3Ni(PO4)4,mp-1177236,1.8040000000000003,4.40772332,0.04872532325594836,"{3: 4, 23: 3, 28: 1, 15: 4, 8: 16}","[3, 8, 15, 23, 28]",34816154233281,Li4V3Ni1P4O16
Li4Mn3Cr(PO4)4,mp-756806,2.1329,3.73868458,0.003249876941964658,"{3: 4, 25: 3, 24: 1, 15: 4, 8: 16}","[3, 8, 15, 24, 25]",34816154241253,Li4Mn3Cr1P4O16
Li4CrCo3(PO4)4,mp-757257,0.8765000000000001,4.13416871,0.03934258500000265,"{3: 4, 24: 1, 27: 3, 15: 4, 8: 16}","[3, 8, 15, 24, 27]",34816154241273,Li4Cr1Co3P4O16
Li4CrNi3(PO4)4,mp-757068,1.2002999999999995,4.86951055,0.021278391116083206,"{3: 4, 24: 1, 28: 3, 15: 4, 8: 16}","[3, 8, 15, 24, 28]",34816154241283,Li4Cr1Ni3P4O16
Li4MnCr3(PO4)4,mp-768041,1.9097999999999997,4.04468726,0.004848581540182195,"{3: 4, 25: 1, 24: 3, 15: 4, 8: 16}","[3, 8, 15, 24, 25]",34816154243251,Li4Mn1Cr3P4O16
Li4Cr3Co(PO4)4,mp-757602,0.21789999999999932,4.22890905,0.037345471249995654,"{3: 4, 24: 3, 27: 1, 15: 4, 8: 16}","[3, 8, 15, 24, 27]",34816154243271,Li4Cr3Co1P4O16
Li4Cr3Ni(PO4)4,mp-757193,1.1917,4.43537261,0.04156365366071402,"{3: 4, 24: 3, 28: 1, 15: 4, 8: 16}","[3, 8, 15, 24, 28]",34816154243281,Li4Cr3Ni1P4O16
Li4MnCo3(PO4)4,mp-757104,2.3728000000000002,2.88381234,0.026012322053572845,"{3: 4, 25: 1, 27: 3, 15: 4, 8: 16}","[3, 8, 15, 25, 27]",34816154251273,Li4Mn1Co3P4O16
Li4MnNi3(PO4)4,mp-757099,2.9959,3.47823292,0.0050765069642730865,"{3: 4, 25: 1, 28: 3, 15: 4, 8: 16}","[3, 8, 15, 25, 28]",34816154251283,Li4Mn1Ni3P4O16
Li4MnSn3(PO4)4,mp-772661,2.5541,3.5050799,0.06204489196429375,"{3: 4, 25: 1, 50: 3, 15: 4, 8: 16}","[3, 8, 15, 25, 50]",34816154251503,Li4Mn1Sn3P4O16
Li4Mn3(PO4)4,mp-758852,0.13809999999999967,2.29391226,0.02225144861110806,"{3: 4, 25: 3, 15: 4, 8: 16}","[3, 8, 15, 25]",34816154253,Li4Mn3P4O16
Li4Mn3Co(PO4)4,mp-758017,1.9345000000000003,2.98322753,0.014558424017857341,"{3: 4, 25: 3, 27: 1, 15: 4, 8: 16}","[3, 8, 15, 25, 27]",34816154253271,Li4Mn3Co1P4O16
Li4Mn3Ni(PO4)4,mp-757417,2.7518,3.04056089,0.0054782673214281985,"{3: 4, 25: 3, 28: 1, 15: 4, 8: 16}","[3, 8, 15, 25, 28]",34816154253281,Li4Mn3Ni1P4O16
Li4Mn3Nb(PO4)4,mp-861478,0.32259999999999955,5.86051131,0.11387258285863489,"{3: 4, 25: 3, 41: 1, 15: 4, 8: 16}","[3, 8, 15, 25, 41]",34816154253411,Li4Mn3Nb1P4O16
Li4Mn3Sn(PO4)4,mp-757170,3.2141,3.3922259,0.032501567380953666,"{3: 4, 25: 3, 50: 1, 15: 4, 8: 16}","[3, 8, 15, 25, 50]",34816154253501,Li4Mn3Sn1P4O16
Li4Mn3Sb(PO4)4,mp-753896,0.27280000000000015,5.46958629,0.08853284455357269,"{3: 4, 25: 3, 51: 1, 15: 4, 8: 16}","[3, 8, 15, 25, 51]",34816154253511,Li4Mn3Sb1P4O16
Li4CoNi3(PO4)4,mp-850408,2.4087000000000005,3.16903807,0.012443338839285722,"{3: 4, 27: 1, 28: 3, 15: 4, 8: 16}","[3, 8, 15, 27, 28]",34816154271283,Li4Co1Ni3P4O16
Li4CoSn3(PO4)4,mp-758057,1.8892999999999995,3.55432847,0.07755140919643466,"{3: 4, 27: 1, 50: 3, 15: 4, 8: 16}","[3, 8, 15, 27, 50]",34816154271503,Li4Co1Sn3P4O16
Li4Co3Ni(PO4)4,mp-770952,2.5693,2.9889725,0.030601925803574126,"{3: 4, 27: 3, 28: 1, 15: 4, 8: 16}","[3, 8, 15, 27, 28]",34816154273281,Li4Co3Ni1P4O16
Li4Co3Sn(PO4)4,mp-757004,1.529,3.62030479,0.12003501425595253,"{3: 4, 27: 3, 50: 1, 15: 4, 8: 16}","[3, 8, 15, 27, 50]",34816154273501,Li4Co3Sn1P4O16
Li4NiSn3(PO4)4,mp-776070,1.7584,3.67782478,0.07599176821429232,"{3: 4, 28: 1, 50: 3, 15: 4, 8: 16}","[3, 8, 15, 28, 50]",34816154281503,Li4Ni1Sn3P4O16
Li4Ni3Sn(PO4)4,mp-753100,1.5015999999999998,4.34550634,0.04888206202380996,"{3: 4, 28: 3, 50: 1, 15: 4, 8: 16}","[3, 8, 15, 28, 50]",34816154283501,Li4Ni3Sn1P4O16
Li4Ni3Sb(PO4)4,mp-756181,0.8942000000000005,5.44151312,0.10145971760713923,"{3: 4, 28: 3, 51: 1, 15: 4, 8: 16}","[3, 8, 15, 28, 51]",34816154283511,Li4Ni3Sb1P4O16
Li4Ti2V3Cr3O16,mp-772990,0.6752000000000002,4.1455219,0.030051971763391805,"{3: 4, 22: 2, 23: 3, 24: 3, 8: 16}","[3, 8, 22, 23, 24]",34816222233243,Li4Ti2V3Cr3O16
Li4Ti2Mn3V3O16,mp-770623,0.4748000000000001,3.74283181,0.07492767910715514,"{3: 4, 22: 2, 25: 3, 23: 3, 8: 16}","[3, 8, 22, 23, 25]",34816222233253,Li4Ti2Mn3V3O16
Li4Ti2V3Co3O16,mp-1177275,1.3546,3.79976995,0.10739116152473382,"{3: 4, 22: 2, 23: 3, 27: 3, 8: 16}","[3, 8, 22, 23, 27]",34816222233273,Li4Ti2V3Co3O16
Li4Ti2V3Ni3O16,mp-768714,0.9159000000000002,3.99789023,0.06886906785713176,"{3: 4, 22: 2, 23: 3, 28: 3, 8: 16}","[3, 8, 22, 23, 28]",34816222233283,Li4Ti2V3Ni3O16
Li4Ti2Nb3V3O16,mp-757958,0.0,4.54813118,0.0756058283928649,"{3: 4, 22: 2, 41: 3, 23: 3, 8: 16}","[3, 8, 22, 23, 41]",34816222233413,Li4Ti2Nb3V3O16
Li4Ti2V3Sn3O16,mp-757929,0.0,5.25452568,0.06247172125000411,"{3: 4, 22: 2, 23: 3, 50: 3, 8: 16}","[3, 8, 22, 23, 50]",34816222233503,Li4Ti2V3Sn3O16
Li4Ti2Mn3Cr3O16,mp-770152,0.6166999999999998,3.10252182,0.14708639017856306,"{3: 4, 22: 2, 25: 3, 24: 3, 8: 16}","[3, 8, 22, 24, 25]",34816222243253,Li4Ti2Mn3Cr3O16
Li4Ti2Cr3Co3O16,mp-754733,0.41049999999999986,3.05722821,0.0633124214880958,"{3: 4, 22: 2, 24: 3, 27: 3, 8: 16}","[3, 8, 22, 24, 27]",34816222243273,Li4Ti2Cr3Co3O16
Li4Ti2Cr3Ni3O16,mp-770552,0.0,2.71169544,0.0867340573384432,"{3: 4, 22: 2, 24: 3, 28: 3, 8: 16}","[3, 8, 22, 24, 28]",34816222243283,Li4Ti2Cr3Ni3O16
Li4Ti2Nb3Cr3O16,mp-757702,0.0,4.63929507,0.09688280982142139,"{3: 4, 22: 2, 41: 3, 24: 3, 8: 16}","[3, 8, 22, 24, 41]",34816222243413,Li4Ti2Nb3Cr3O16
Li4Ti2Cr3Sn3O16,mp-776772,0.0,5.92439963,0.07570881203124902,"{3: 4, 22: 2, 24: 3, 50: 3, 8: 16}","[3, 8, 22, 24, 50]",34816222243503,Li4Ti2Cr3Sn3O16
Li4Ti2Mn3Co3O16,mp-861729,0.7902,2.67799786,0.06428857624999296,"{3: 4, 22: 2, 25: 3, 27: 3, 8: 16}","[3, 8, 22, 25, 27]",34816222253273,Li4Ti2Mn3Co3O16
Li4Ti2Mn3Ni3O16,mp-767719,0.014699999999999935,2.77102701,0.04553596570317353,"{3: 4, 22: 2, 25: 3, 28: 3, 8: 16}","[3, 8, 22, 25, 28]",34816222253283,Li4Ti2Mn3Ni3O16
Li4Ti2Mn3Nb3O16,mp-758756,0.0,3.84663115,0.08469288834821853,"{3: 4, 22: 2, 25: 3, 41: 3, 8: 16}","[3, 8, 22, 25, 41]",34816222253413,Li4Ti2Mn3Nb3O16
Li4Ti2Mn3Sn3O16,mp-772989,0.0,4.30537254,0.07068154357142031,"{3: 4, 22: 2, 25: 3, 50: 3, 8: 16}","[3, 8, 22, 25, 50]",34816222253503,Li4Ti2Mn3Sn3O16
Li4Ti2Mn3Sb3O16,mp-1177278,0.0,5.33920094,0.0914302770758928,"{3: 4, 22: 2, 25: 3, 51: 3, 8: 16}","[3, 8, 22, 25, 51]",34816222253513,Li4Ti2Mn3Sb3O16
Li4Ti2Co3Ni3O16,mp-759505,0.0,2.91284722,0.04699333016040885,"{3: 4, 22: 2, 27: 3, 28: 3, 8: 16}","[3, 8, 22, 27, 28]",34816222273283,Li4Ti2Co3Ni3O16
Li4Ti2Nb3Co3O16,mp-767657,0.8127,2.9636151,0.0870483350000022,"{3: 4, 22: 2, 41: 3, 27: 3, 8: 16}","[3, 8, 22, 27, 41]",34816222273413,Li4Ti2Nb3Co3O16
Li4Ti2Co3Sn3O16,mp-774845,0.4466999999999999,4.03401071,0.08058441861607424,"{3: 4, 22: 2, 27: 3, 50: 3, 8: 16}","[3, 8, 22, 27, 50]",34816222273503,Li4Ti2Co3Sn3O16
Li4Ti2Co3Sb3O16,mp-774789,0.0,5.47624949,0.0752171029017843,"{3: 4, 22: 2, 27: 3, 51: 3, 8: 16}","[3, 8, 22, 27, 51]",34816222273513,Li4Ti2Co3Sb3O16
Li4Ti2Nb3Ni3O16,mp-774751,0.0,4.18033011,0.08257144375000358,"{3: 4, 22: 2, 41: 3, 28: 3, 8: 16}","[3, 8, 22, 28, 41]",34816222283413,Li4Ti2Nb3Ni3O16
Li4Ti2Ni3Sn3O16,mp-753972,0.0,3.75022832,0.04981154673077093,"{3: 4, 22: 2, 28: 3, 50: 3, 8: 16}","[3, 8, 22, 28, 50]",34816222283503,Li4Ti2Ni3Sn3O16
Li4Ti2Ni3Sb3O16,mp-850289,0.0,5.82230623,0.0657757276530635,"{3: 4, 22: 2, 28: 3, 51: 3, 8: 16}","[3, 8, 22, 28, 51]",34816222283513,Li4Ti2Ni3Sb3O16
Li4Ti3V2Cr3O16,mp-780134,0.8929999999999998,3.20388502,0.028126399464285967,"{3: 4, 22: 3, 23: 2, 24: 3, 8: 16}","[3, 8, 22, 23, 24]",34816223232243,Li4Ti3V2Cr3O16
Li4Ti3Mn3V2O16,mp-770420,0.0,3.76132127,0.08785455276786713,"{3: 4, 22: 3, 25: 3, 23: 2, 8: 16}","[3, 8, 22, 23, 25]",34816223232253,Li4Ti3Mn3V2O16
Li4Ti3V2Co3O16,mp-770621,0.0,3.31500745,0.09612539882555904,"{3: 4, 22: 3, 23: 2, 27: 3, 8: 16}","[3, 8, 22, 23, 27]",34816223232273,Li4Ti3V2Co3O16
Li4Ti3V2Ni3O16,mp-776519,1.2050999999999998,4.31444956,0.07055728580355236,"{3: 4, 22: 3, 23: 2, 28: 3, 8: 16}","[3, 8, 22, 23, 28]",34816223232283,Li4Ti3V2Ni3O16
Li4Ti3Nb3V2O16,mp-756025,0.0,4.21348517,0.08666516334822028,"{3: 4, 22: 3, 41: 3, 23: 2, 8: 16}","[3, 8, 22, 23, 41]",34816223232413,Li4Ti3Nb3V2O16
Li4Ti3V2Sn3O16,mp-776175,0.0,5.12019837,0.09909674825893156,"{3: 4, 22: 3, 23: 2, 50: 3, 8: 16}","[3, 8, 22, 23, 50]",34816223232503,Li4Ti3V2Sn3O16
Li4Ti3V3Cr2O16,mp-772715,0.6695000000000002,3.32488415,0.02993522964285411,"{3: 4, 22: 3, 23: 3, 24: 2, 8: 16}","[3, 8, 22, 23, 24]",34816223233242,Li4Ti3V3Cr2O16
Li4Ti3Mn2V3O16,mp-773707,0.9531000000000001,2.90336797,0.03843019821429117,"{3: 4, 22: 3, 25: 2, 23: 3, 8: 16}","[3, 8, 22, 23, 25]",34816223233252,Li4Ti3Mn2V3O16
Li4Ti3V3(CoO8)2,mp-777010,1.202,2.61609226,0.09970976714285662,"{3: 4, 22: 3, 23: 3, 27: 2, 8: 16}","[3, 8, 22, 23, 27]",34816223233272,Li4Ti3V3Co2O16
Li4Ti3V3(NiO8)2,mp-1177257,1.13,2.75803796,0.05401817014880628,"{3: 4, 22: 3, 23: 3, 28: 2, 8: 16}","[3, 8, 22, 23, 28]",34816223233282,Li4Ti3V3Ni2O16
Li4Ti3Nb2V3O16,mp-774881,0.0,4.68337274,0.03850681633927344,"{3: 4, 22: 3, 41: 2, 23: 3, 8: 16}","[3, 8, 22, 23, 41]",34816223233412,Li4Ti3Nb2V3O16
Li4Ti3V3(SnO8)2,mp-754570,0.5294999999999996,4.92345653,0.030304224598217466,"{3: 4, 22: 3, 23: 3, 50: 2, 8: 16}","[3, 8, 22, 23, 50]",34816223233502,Li4Ti3V3Sn2O16
Li4Ti3V3(SbO8)2,mp-762067,0.8550999999999997,3.86283892,0.044887989761904556,"{3: 4, 22: 3, 23: 3, 51: 2, 8: 16}","[3, 8, 22, 23, 51]",34816223233512,Li4Ti3V3Sb2O16
Li4Ti3V3(TeO8)2,mp-754525,0.6124999999999998,4.69655914,0.07179709812499979,"{3: 4, 22: 3, 23: 3, 52: 2, 8: 16}","[3, 8, 22, 23, 52]",34816223233522,Li4Ti3V3Te2O16
Li4Ti3V3(WO8)2,mp-768668,0.13140000000000018,4.43279852,0.04657886526785937,"{3: 4, 22: 3, 23: 3, 74: 2, 8: 16}","[3, 8, 22, 23, 74]",34816223233742,Li4Ti3V3W2O16
Li4Ti3V5O16,mp-777694,0.8680000000000003,4.38698522,0.07532802446428732,"{3: 4, 22: 3, 23: 5, 8: 16}","[3, 8, 22, 23]",34816223235,Li4Ti3V5O16
Li4Ti3Mn3Cr2O16,mp-771394,0.07730000000000015,3.38074969,0.1291171652380978,"{3: 4, 22: 3, 25: 3, 24: 2, 8: 16}","[3, 8, 22, 24, 25]",34816223242253,Li4Ti3Mn3Cr2O16
Li4Ti3Cr2Co3O16,mp-770505,0.0,2.54355287,0.07927980088860664,"{3: 4, 22: 3, 24: 2, 27: 3, 8: 16}","[3, 8, 22, 24, 27]",34816223242273,Li4Ti3Cr2Co3O16
Li4Ti3Nb3Cr2O16,mp-763490,0.0,4.5451252,0.0943552199107085,"{3: 4, 22: 3, 41: 3, 24: 2, 8: 16}","[3, 8, 22, 24, 41]",34816223242413,Li4Ti3Nb3Cr2O16
Li4Ti3Mn2Cr3O16,mp-778223,0.4196,2.77538049,0.11526191716070677,"{3: 4, 22: 3, 25: 2, 24: 3, 8: 16}","[3, 8, 22, 24, 25]",34816223243252,Li4Ti3Mn2Cr3O16
Li4Ti3Cr3(CoO8)2,mp-756278,0.2543000000000002,2.95611724,0.0914514904634327,"{3: 4, 22: 3, 24: 3, 27: 2, 8: 16}","[3, 8, 22, 24, 27]",34816223243272,Li4Ti3Cr3Co2O16
Li4Ti3Cr3(NiO8)2,mp-782652,0.9182999999999999,2.41550113,0.06375720590675105,"{3: 4, 22: 3, 24: 3, 28: 2, 8: 16}","[3, 8, 22, 24, 28]",34816223243282,Li4Ti3Cr3Ni2O16
Li4Ti3Nb2Cr3O16,mp-774924,0.0,4.84312061,0.05093666598213353,"{3: 4, 22: 3, 41: 2, 24: 3, 8: 16}","[3, 8, 22, 24, 41]",34816223243412,Li4Ti3Nb2Cr3O16
Li4Ti3Cr3(SnO8)2,mp-776780,0.0,5.6721528,0.029405409441967123,"{3: 4, 22: 3, 24: 3, 50: 2, 8: 16}","[3, 8, 22, 24, 50]",34816223243502,Li4Ti3Cr3Sn2O16
Li4Ti3Cr3(SbO8)2,mp-758653,0.0,4.65571319,0.05201872252231521,"{3: 4, 22: 3, 24: 3, 51: 2, 8: 16}","[3, 8, 22, 24, 51]",34816223243512,Li4Ti3Cr3Sb2O16
Li4Ti3Cr3(TeO8)2,mp-761028,0.31730000000000036,5.32293175,0.07319170259672259,"{3: 4, 22: 3, 24: 3, 52: 2, 8: 16}","[3, 8, 22, 24, 52]",34816223243522,Li4Ti3Cr3Te2O16
Li4Ti3Cr3(WO8)2,mp-754340,0.0,4.99421748,0.04098608816071447,"{3: 4, 22: 3, 24: 3, 74: 2, 8: 16}","[3, 8, 22, 24, 74]",34816223243742,Li4Ti3Cr3W2O16
Li4Ti3Cr5O16,mp-771120,0.16530000000000022,2.65410908,0.035043585347221295,"{3: 4, 22: 3, 24: 5, 8: 16}","[3, 8, 22, 24]",34816223245,Li4Ti3Cr5O16
Li4Ti3Mn2Co3O16,mp-757980,0.23399999999999999,3.47446659,0.0658574244642729,"{3: 4, 22: 3, 25: 2, 27: 3, 8: 16}","[3, 8, 22, 25, 27]",34816223252273,Li4Ti3Mn2Co3O16
Li4Ti3Mn2Ni3O16,mp-771397,0.0,2.700658,0.2897849321755288,"{3: 4, 22: 3, 25: 2, 28: 3, 8: 16}","[3, 8, 22, 25, 28]",34816223252283,Li4Ti3Mn2Ni3O16
Li4Ti3Mn2Nb3O16,mp-760948,0.0,4.03872716,0.07189226330356924,"{3: 4, 22: 3, 25: 2, 41: 3, 8: 16}","[3, 8, 22, 25, 41]",34816223252413,Li4Ti3Mn2Nb3O16
Li4Ti3Mn2Sn3O16,mp-755012,1.3479999999999999,3.54872981,0.0637836103571523,"{3: 4, 22: 3, 25: 2, 50: 3, 8: 16}","[3, 8, 22, 25, 50]",34816223252503,Li4Ti3Mn2Sn3O16
Li4Ti3Mn3(CoO8)2,mp-770518,0.5007000000000001,3.14768438,0.06173707357142888,"{3: 4, 22: 3, 25: 3, 27: 2, 8: 16}","[3, 8, 22, 25, 27]",34816223253272,Li4Ti3Mn3Co2O16
Li4Ti3Mn3(NiO8)2,mp-770507,0.6036999999999999,3.51510806,0.058639935982143676,"{3: 4, 22: 3, 25: 3, 28: 2, 8: 16}","[3, 8, 22, 25, 28]",34816223253282,Li4Ti3Mn3Ni2O16
Li4Ti3Mn3Nb2O16,mp-776061,0.6972,4.10984897,0.041419297410701716,"{3: 4, 22: 3, 25: 3, 41: 2, 8: 16}","[3, 8, 22, 25, 41]",34816223253412,Li4Ti3Mn3Nb2O16
Li4Ti3Mn3(SnO8)2,mp-1177280,0.4062999999999999,4.01264791,0.031066647890634513,"{3: 4, 22: 3, 25: 3, 50: 2, 8: 16}","[3, 8, 22, 25, 50]",34816223253502,Li4Ti3Mn3Sn2O16
Li4Ti3Mn3(SbO8)2,mp-758701,0.025100000000000122,4.32080376,0.07039798232143202,"{3: 4, 22: 3, 25: 3, 51: 2, 8: 16}","[3, 8, 22, 25, 51]",34816223253512,Li4Ti3Mn3Sb2O16
Li4Ti3Mn3(TeO8)2,mp-758152,0.0,4.118255,0.056313268696427166,"{3: 4, 22: 3, 25: 3, 52: 2, 8: 16}","[3, 8, 22, 25, 52]",34816223253522,Li4Ti3Mn3Te2O16
Li4Ti3Mn3(WO8)2,mp-756380,0.23819999999999997,4.15615903,0.05810366119047572,"{3: 4, 22: 3, 25: 3, 74: 2, 8: 16}","[3, 8, 22, 25, 74]",34816223253742,Li4Ti3Mn3W2O16
Li4Ti3Mn5O16,mp-772971,0.0,3.22462737,0.042891875000016455,"{3: 4, 22: 3, 25: 5, 8: 16}","[3, 8, 22, 25]",34816223255,Li4Ti3Mn5O16
Li4Ti3Co2Sn3O16,mp-1661766,1.9390999999999998,3.17349943,0.07809213584821251,"{3: 4, 22: 3, 27: 2, 50: 3, 8: 16}","[3, 8, 22, 27, 50]",34816223272503,Li4Ti3Co2Sn3O16
Li4Ti3Co3(NiO8)2,mp-763517,0.7469000000000001,2.31808049,0.054682868160014664,"{3: 4, 22: 3, 27: 3, 28: 2, 8: 16}","[3, 8, 22, 27, 28]",34816223273282,Li4Ti3Co3Ni2O16
Li4Ti3Nb2Co3O16,mp-776073,1.298,4.0626317,0.020826237857134444,"{3: 4, 22: 3, 41: 2, 27: 3, 8: 16}","[3, 8, 22, 27, 41]",34816223273412,Li4Ti3Nb2Co3O16
Li4Ti3Co3(SnO8)2,mp-777668,0.21860000000000035,4.51515915,0.05760333714285526,"{3: 4, 22: 3, 27: 3, 50: 2, 8: 16}","[3, 8, 22, 27, 50]",34816223273502,Li4Ti3Co3Sn2O16
Li4Ti3Co3(SbO8)2,mp-773002,0.42710000000000026,4.19288572,0.038368303571431284,"{3: 4, 22: 3, 27: 3, 51: 2, 8: 16}","[3, 8, 22, 27, 51]",34816223273512,Li4Ti3Co3Sb2O16
Li4Ti3Co3(TeO8)2,mp-753426,1.0941999999999998,4.6780848,0.03880675205358042,"{3: 4, 22: 3, 27: 3, 52: 2, 8: 16}","[3, 8, 22, 27, 52]",34816223273522,Li4Ti3Co3Te2O16
Li4Ti3Co3(WO8)2,mp-779751,0.0398000000000005,4.63226386,0.0701919494642862,"{3: 4, 22: 3, 27: 3, 74: 2, 8: 16}","[3, 8, 22, 27, 74]",34816223273742,Li4Ti3Co3W2O16
Li4Ti3Co5O16,mp-756331,0.0,3.19233142,0.1624525382589308,"{3: 4, 22: 3, 27: 5, 8: 16}","[3, 8, 22, 27]",34816223275,Li4Ti3Co5O16
Li4Ti3Ni2Sn3O16,mp-753836,1.7728000000000002,5.285002,0.0832197189285715,"{3: 4, 22: 3, 28: 2, 50: 3, 8: 16}","[3, 8, 22, 28, 50]",34816223282503,Li4Ti3Ni2Sn3O16
Li4Ti3Nb2Ni3O16,mp-771129,1.4810000000000003,4.57016659,0.012143422500000334,"{3: 4, 22: 3, 41: 2, 28: 3, 8: 16}","[3, 8, 22, 28, 41]",34816223283412,Li4Ti3Nb2Ni3O16
Li4Ti3Ni3(SnO8)2,mp-851029,0.30989999999999984,3.43666233,0.03241876422739498,"{3: 4, 22: 3, 28: 3, 50: 2, 8: 16}","[3, 8, 22, 28, 50]",34816223283502,Li4Ti3Ni3Sn2O16
Li4Ti3Ni3(SbO8)2,mp-775755,1.0106000000000002,4.2441172,0.030520622232143246,"{3: 4, 22: 3, 28: 3, 51: 2, 8: 16}","[3, 8, 22, 28, 51]",34816223283512,Li4Ti3Ni3Sb2O16
Li4Ti3Ni3(TeO8)2,mp-763178,1.3917000000000002,3.92350073,0.030531211874996522,"{3: 4, 22: 3, 28: 3, 52: 2, 8: 16}","[3, 8, 22, 28, 52]",34816223283522,Li4Ti3Ni3Te2O16
Li4Ti3Ni3(WO8)2,mp-769613,0.6039000000000003,4.53684914,0.04772127401785209,"{3: 4, 22: 3, 28: 3, 74: 2, 8: 16}","[3, 8, 22, 28, 74]",34816223283742,Li4Ti3Ni3W2O16
Li4Ti3Nb5O16,mp-770800,0.0,4.89165676,0.11825614688186725,"{3: 4, 22: 3, 41: 5, 8: 16}","[3, 8, 22, 41]",34816223415,Li4Ti3Nb5O16
Li4Ti3Sn5O16,mp-754822,0.21199999999999974,4.81888823,0.10159024660714433,"{3: 4, 22: 3, 50: 5, 8: 16}","[3, 8, 22, 50]",34816223505,Li4Ti3Sn5O16
Li4Ti5V3O16,mp-774230,0.4286000000000003,4.32551065,0.023476110267861117,"{3: 4, 22: 5, 23: 3, 8: 16}","[3, 8, 22, 23]",34816225233,Li4Ti5V3O16
Li4Ti5Cr3O16,mp-777464,0.0,4.91534689,0.026406340699413278,"{3: 4, 22: 5, 24: 3, 8: 16}","[3, 8, 22, 24]",34816225243,Li4Ti5Cr3O16
Li4Ti5Mn3O16,mp-777417,0.39970000000000017,3.38710947,0.0402351992857195,"{3: 4, 22: 5, 25: 3, 8: 16}","[3, 8, 22, 25]",34816225253,Li4Ti5Mn3O16
Li4Ti5Co3O16,mp-1177251,0.0,3.08721916,0.059127310178562986,"{3: 4, 22: 5, 27: 3, 8: 16}","[3, 8, 22, 27]",34816225273,Li4Ti5Co3O16
Li4Ti5Ni3O16,mp-771000,0.3708,2.63023903,0.039808969405943806,"{3: 4, 22: 5, 28: 3, 8: 16}","[3, 8, 22, 28]",34816225283,Li4Ti5Ni3O16
Li4Ti5Nb3O16,mp-772157,0.0,4.94678594,0.11368873508927813,"{3: 4, 22: 5, 41: 3, 8: 16}","[3, 8, 22, 41]",34816225413,Li4Ti5Nb3O16
Li4Ti7O16,mp-531820,2.8296,1.34739888,0.012034039166666233,"{3: 4, 22: 7, 8: 16}","[3, 8, 22]",34816227,Li4Ti7O16
Li4Mn3V2Cr3O16,mp-770036,0.6577999999999999,2.79464182,0.15220903750000048,"{3: 4, 25: 3, 23: 2, 24: 3, 8: 16}","[3, 8, 23, 24, 25]",34816232243253,Li4Mn3V2Cr3O16
Li4V2Cr3Co3O16,mp-753635,0.0,3.15701501,0.13133783420918643,"{3: 4, 23: 2, 24: 3, 27: 3, 8: 16}","[3, 8, 23, 24, 27]",34816232243273,Li4V2Cr3Co3O16