formula,material_id,band_gap,efermi,energy_above_hull,comp_atoms,sorted_keys_comp_atoms,comp_number,new_formula
Li2CoO2,mp-755297,2.5492,2.07485341,0.02695916062499837,"{3: 2, 27: 1, 8: 2}","[3, 8, 27]",3282271,Li2Co1O2
Li2NiO2,mp-19308,0.9116000000000004,3.66334302,0.002541691000001123,"{3: 2, 28: 1, 8: 2}","[3, 8, 28]",3282281,Li2Ni1O2
Li2MgCr3Se3(SO8)3,mp-773018,0.6478000000000002,1.98438034,0.04050328685185178,"{3: 2, 12: 1, 24: 3, 34: 3, 16: 3, 8: 24}","[3, 8, 12, 16, 24, 34]",32824121163243343,Li2Mg1Cr3Se3S3O24
Li2MgCr3(SO4)6,mp-772868,0.03279999999999994,2.76307655,0.022582782946431124,"{3: 2, 12: 1, 24: 3, 16: 6, 8: 24}","[3, 8, 12, 16, 24]",32824121166243,Li2Mg1Cr3S6O24
K3Li2Nb6(PO8)3,mp-773089,0.0,3.1411944,0.03265348226873144,"{19: 3, 3: 2, 41: 6, 15: 3, 8: 24}","[3, 8, 15, 19, 41]",32824153193416,K3Li2Nb6P3O24
K3Li2Ta6(PO8)3,mp-773101,0.0,4.19933575,0.05340005037613693,"{19: 3, 3: 2, 73: 6, 15: 3, 8: 24}","[3, 8, 15, 19, 73]",32824153193736,K3Li2Ta6P3O24
Li2Zr4As3(PO8)3,mp-1223743,3.9866,3.81326185,0.008812332222223773,"{3: 2, 40: 4, 33: 3, 15: 3, 8: 24}","[3, 8, 15, 33, 40]",32824153333404,Li2Zr4As3P3O24
Li2TiCo3(PO4)6,mp-770585,0.0,0.57061929,0.07755789329860985,"{3: 2, 22: 1, 27: 3, 15: 6, 8: 24}","[3, 8, 15, 22, 27]",32824156221273,Li2Ti1Co3P6O24
Li2TiSn3(PO4)6,mp-769380,2.3922,1.56655548,0.006984568402779168,"{3: 2, 22: 1, 50: 3, 15: 6, 8: 24}","[3, 8, 15, 22, 50]",32824156221503,Li2Ti1Sn3P6O24
Li2Ti2MnCr2(PO4)6,mp-720669,2.1315,1.55022083,0.012822904324325535,"{3: 2, 22: 2, 25: 1, 24: 2, 15: 6, 8: 24}","[3, 8, 15, 22, 24, 25]",32824156222242251,Li2Ti2Mn1Cr2P6O24
Li2Ti3Co(PO4)6,mp-758323,0.0,0.99621642,0.031237596469909867,"{3: 2, 22: 3, 27: 1, 15: 6, 8: 24}","[3, 8, 15, 22, 27]",32824156223271,Li2Ti3Co1P6O24
Li2Ti3Ni(PO4)6,mp-757337,0.013399999999999967,0.59455953,0.04250946453703808,"{3: 2, 22: 3, 28: 1, 15: 6, 8: 24}","[3, 8, 15, 22, 28]",32824156223281,Li2Ti3Ni1P6O24
Li2Ti3Sn(PO4)6,mp-772416,2.5061,1.30282814,0.002175978819444424,"{3: 2, 22: 3, 50: 1, 15: 6, 8: 24}","[3, 8, 15, 22, 50]",32824156223501,Li2Ti3Sn1P6O24
Li2CoSn3(PO4)6,mp-770199,0.0,1.38271431,0.04230816881944399,"{3: 2, 27: 1, 50: 3, 15: 6, 8: 24}","[3, 8, 15, 27, 50]",32824156271503,Li2Co1Sn3P6O24
Li2NiSn3(PO4)6,mp-770658,0.0,1.40355182,0.05022743590277834,"{3: 2, 28: 1, 50: 3, 15: 6, 8: 24}","[3, 8, 15, 28, 50]",32824156281503,Li2Ni1Sn3P6O24
Li2Cr(PO3)8,mp-540219,0.0,0.25033913,0.08044057913094971,"{3: 2, 24: 1, 15: 8, 8: 24}","[3, 8, 15, 24]",32824158241,Li2Cr1P8O24
Li2Mo(PO3)8,mp-687229,0.045499999999999985,0.82166336,0.07203408295238045,"{3: 2, 42: 1, 15: 8, 8: 24}","[3, 8, 15, 42]",32824158421,Li2Mo1P8O24
Li2Cr3Ni(SO4)6,mp-772134,0.5190999999999999,2.83614587,0.02795090034722314,"{3: 2, 24: 3, 28: 1, 16: 6, 8: 24}","[3, 8, 16, 24, 28]",32824166243281,Li2Cr3Ni1S6O24
Li2ZnCr3(SO4)6,mp-772839,0.7164000000000001,2.14428639,0.02696430972222963,"{3: 2, 30: 1, 24: 3, 16: 6, 8: 24}","[3, 8, 16, 24, 30]",32824166243301,Li2Zn1Cr3S6O24
Li2PdO2,mp-7608,1.1973000000000003,2.73987329,0.0,"{3: 2, 46: 1, 8: 2}","[3, 8, 46]",3282461,Li2Pd1O2
Li2U4W4O25,mp-557893,1.6320000000000001,3.22903012,0.0166302191071388,"{3: 2, 92: 4, 74: 4, 8: 25}","[3, 8, 74, 92]",32825744924,Li2U4W4O25
Li2PtO2,mp-1177862,1.5326,4.34328276,0.029056208222222324,"{3: 2, 78: 1, 8: 2}","[3, 8, 78]",3282781,Li2Pt1O2
Li2HgO2,mp-1206880,1.1767,2.15678336,0.0,"{3: 2, 80: 1, 8: 2}","[3, 8, 80]",3282801,Li2Hg1O2
Li2MgCo13O28,mp-760219,0.7121,0.52796175,0.028245045965909377,"{3: 2, 12: 1, 27: 13, 8: 28}","[3, 8, 12, 27]",328281212713,Li2Mg1Co13O28
Li2Mn7(P2O7)4,mp-780778,3.529,2.6777707,0.014602463444456149,"{3: 2, 25: 7, 15: 8, 8: 28}","[3, 8, 15, 25]",32828158257,Li2Mn7P8O28
Li2Ti3P9O28,mp-758037,0.006699999999999928,3.67828598,0.10103758407255992,"{3: 2, 22: 3, 15: 9, 8: 28}","[3, 8, 15, 22]",32828159223,Li2Ti3P9O28
Li2V3P9O28,mp-757786,1.9376000000000002,2.55511135,0.05342723297619045,"{3: 2, 23: 3, 15: 9, 8: 28}","[3, 8, 15, 23]",32828159233,Li2V3P9O28
Li2Cr3P9O28,mp-778498,2.6542999999999997,1.82714944,0.061121464623016486,"{3: 2, 24: 3, 15: 9, 8: 28}","[3, 8, 15, 24]",32828159243,Li2Cr3P9O28
Li2Mn3P9O28,mp-758207,0.7298,2.1040708,0.048978279404757075,"{3: 2, 25: 3, 15: 9, 8: 28}","[3, 8, 15, 25]",32828159253,Li2Mn3P9O28
Li2Ni3P9O28,mp-867594,0.0,1.70224852,0.09129837398810281,"{3: 2, 28: 3, 15: 9, 8: 28}","[3, 8, 15, 28]",32828159283,Li2Ni3P9O28
Li2Bi3P9O28,mp-759696,3.9590999999999994,1.69254712,0.08083693476190579,"{3: 2, 83: 3, 15: 9, 8: 28}","[3, 8, 15, 83]",32828159833,Li2Bi3P9O28
Li2BiO2,mp-755691,0.0,4.214053,0.072687173666667,"{3: 2, 83: 1, 8: 2}","[3, 8, 83]",3282831,Li2Bi1O2
Li2VO2F,mp-763051,1.408,2.99231632,0.004510747916667945,"{3: 2, 23: 1, 8: 2, 9: 1}","[3, 8, 9, 23]",328291231,Li2V1O2F1
Li2MnO2F,mp-1280554,1.4026999999999998,2.34647818,0.006955457916669516,"{3: 2, 25: 1, 8: 2, 9: 1}","[3, 8, 9, 25]",328291251,Li2Mn1O2F1
Li2CoO2F,mp-764063,0.47619999999999996,3.03978444,0.002338541666667915,"{3: 2, 27: 1, 8: 2, 9: 1}","[3, 8, 9, 27]",328291271,Li2Co1O2F1
Li2NiO2F,mp-1272313,0.4748999999999999,2.6833365,0.0008443655555581131,"{3: 2, 28: 1, 8: 2, 9: 1}","[3, 8, 9, 28]",328291281,Li2Ni1O2F1
Li2P8W3O29,mp-776995,2.1807,-0.16978398,0.025524795158703206,"{3: 2, 15: 8, 74: 3, 8: 29}","[3, 8, 15, 74]",32829158743,Li2P8W3O29
Li2V(OF)2,mp-753161,0.0,1.86273958,0.05284643035714165,"{3: 2, 23: 1, 8: 2, 9: 2}","[3, 8, 9, 23]",328292231,Li2V1O2F2
Li2V12O29,mp-773021,0.011499999999999844,1.79843486,0.05588968034883379,"{3: 2, 23: 12, 8: 29}","[3, 8, 23]",328292312,Li2V12O29
Li2VO2F3,mp-772563,2.2520000000000002,-0.61070185,0.09169883249999788,"{3: 2, 23: 1, 8: 2, 9: 3}","[3, 8, 9, 23]",328293231,Li2V1O2F3
Li2W(OF2)2,mp-772400,3.7916000000000003,-0.80204699,0.0034376092361103616,"{3: 2, 74: 1, 8: 2, 9: 4}","[3, 8, 9, 74]",328294741,Li2W1O2F4
Li2SbP(OF3)2,mp-776357,3.7559,-0.29665522,0.08631388998842482,"{3: 2, 51: 1, 15: 1, 8: 2, 9: 6}","[3, 8, 9, 15, 51]",328296151511,Li2Sb1P1O2F6
Li2Ti(OF3)2,mp-726110,0.7093,-2.18908938,0.44647798454545207,"{3: 2, 22: 1, 8: 2, 9: 6}","[3, 8, 9, 22]",328296221,Li2Ti1O2F6
Li2Sn(OF3)2,mp-725456,0.684,-1.46765308,0.4469811568181816,"{3: 2, 50: 1, 8: 2, 9: 6}","[3, 8, 9, 50]",328296501,Li2Sn1O2F6
Li2Cr5(Si2O5)6,mp-765349,1.6612,3.91085514,0.10138316312925078,"{3: 2, 24: 5, 14: 12, 8: 30}","[3, 8, 14, 24]",328301412245,Li2Cr5Si12O30
Li2Mn5(Si2O5)6,mp-850291,3.8963,2.03181038,0.05919810923468738,"{3: 2, 25: 5, 14: 12, 8: 30}","[3, 8, 14, 25]",328301412255,Li2Mn5Si12O30
Li2Si12(NiO6)5,mp-772287,4.3937,1.68153344,0.09090518102040601,"{3: 2, 14: 12, 28: 5, 8: 30}","[3, 8, 14, 28]",328301412285,Li2Si12Ni5O30
Li2Ti7Nb6O30,mp-759382,2.2723,1.1526607,0.057548883499997316,"{3: 2, 22: 7, 41: 6, 8: 30}","[3, 8, 22, 41]",32830227416,Li2Ti7Nb6O30
Li2SiO3,mp-5012,5.0766,1.28537734,0.0,"{3: 2, 14: 1, 8: 3}","[3, 8, 14]",3283141,Li2Si1O3
KLi2O3,mp-1103121,0.0007999999999999952,0.06105033,0.2161375516666686,"{19: 1, 3: 2, 8: 3}","[3, 8, 19]",3283191,K1Li2O3
Li2CaV12O32,mp-1223290,1.7944,0.09161935,0.011596433404253759,"{3: 2, 20: 1, 23: 12, 8: 32}","[3, 8, 20, 23]",328322012312,Li2Ca1V12O32
Li2TiO3,mp-2931,3.0338000000000003,1.94520889,0.0,"{3: 2, 22: 1, 8: 3}","[3, 8, 22]",3283221,Li2Ti1O3
Li2Mn15O32,mp-34891,0.0,1.05731988,0.11238897621598998,"{3: 2, 25: 15, 8: 32}","[3, 8, 25]",328322515,Li2Mn15O32
Li2VO3,mp-774192,1.3261000000000003,2.62968463,0.022451055833339062,"{3: 2, 23: 1, 8: 3}","[3, 8, 23]",3283231,Li2V1O3
Li2CrO3,mp-755795,1.7417,1.51497735,0.0073436145833341016,"{3: 2, 24: 1, 8: 3}","[3, 8, 24]",3283241,Li2Cr1O3
Li2MnO3,mp-18988,1.3683999999999998,2.45687681,0.0,"{3: 2, 25: 1, 8: 3}","[3, 8, 25]",3283251,Li2Mn1O3
Li2Mn2O3,mp-756298,0.2481,2.67586152,0.08767134857142889,"{3: 2, 25: 2, 8: 3}","[3, 8, 25]",3283252,Li2Mn2O3
Li2CoO3,mp-1173879,0.0,1.4379543,0.0,"{3: 2, 27: 1, 8: 3}","[3, 8, 27]",3283271,Li2Co1O3
Li2NiO3,mp-556550,1.1037,2.36381262,0.0,"{3: 2, 28: 1, 8: 3}","[3, 8, 28]",3283281,Li2Ni1O3
Li2GeO3,mp-15349,3.568,-0.10069169,0.0,"{3: 2, 32: 1, 8: 3}","[3, 8, 32]",3283321,Li2Ge1O3
RbLi2O3,mp-1095542,0.0,-1.58043266,0.3282330016666668,"{37: 1, 3: 2, 8: 3}","[3, 8, 37]",3283371,Rb1Li2O3
Li2ZrO3,mp-4156,3.7336,1.16496928,0.0,"{3: 2, 40: 1, 8: 3}","[3, 8, 40]",3283401,Li2Zr1O3
Li2NbO3,mp-781626,0.0,4.77611602,0.09995097145833487,"{3: 2, 41: 1, 8: 3}","[3, 8, 41]",3283411,Li2Nb1O3
Li2MoO3,mp-694855,1.3636,3.53464081,0.0,"{3: 2, 42: 1, 8: 3}","[3, 8, 42]",3283421,Li2Mo1O3
Li2TcO3,mp-1210877,0.4090000000000007,5.04050279,0.0,"{3: 2, 43: 1, 8: 3}","[3, 8, 43]",3283431,Li2Tc1O3
Li2RuO3,mp-4630,0.0,3.6679149,0.0,"{3: 2, 44: 1, 8: 3}","[3, 8, 44]",3283441,Li2Ru1O3
Li2RhO3,mp-754870,0.0,2.9147241,0.0,"{3: 2, 45: 1, 8: 3}","[3, 8, 45]",3283451,Li2Rh1O3
Li2PdO3,mp-760483,1.0970000000000004,1.97650238,0.0,"{3: 2, 46: 1, 8: 3}","[3, 8, 46]",3283461,Li2Pd1O3
Li2SnO3,mp-3540,3.1283000000000003,3.21578022,0.0,"{3: 2, 50: 1, 8: 3}","[3, 8, 50]",3283501,Li2Sn1O3
Li2TeO3,mp-27231,3.5802,0.99783234,0.0,"{3: 2, 52: 1, 8: 3}","[3, 8, 52]",3283521,Li2Te1O3
Li2CeO3,mp-754534,1.9756999999999998,1.9371709,0.0,"{3: 2, 58: 1, 8: 3}","[3, 8, 58]",3283581,Li2Ce1O3
Li2PrO3,mp-5446,0.0,0.55497847,0.16379066572916567,"{3: 2, 59: 1, 8: 3}","[3, 8, 59]",3283591,Li2Pr1O3
Li2HfO3,mp-2724101,4.0573,1.10975881,0.0,"{3: 2, 72: 1, 8: 3}","[3, 8, 72]",3283721,Li2Hf1O3
Li2Ta2O3,mp-675379,0.0,3.80794749,0.5313615940999972,"{3: 2, 73: 2, 8: 3}","[3, 8, 73]",3283732,Li2Ta2O3
Li2ReO3,mp-556288,0.0,5.15675402,0.2080325054166705,"{3: 2, 75: 1, 8: 3}","[3, 8, 75]",3283751,Li2Re1O3
Li2IrO3,mp-532085,0.0,4.09005955,0.0,"{3: 2, 77: 1, 8: 3}","[3, 8, 77]",3283771,Li2Ir1O3
Li2PtO3,mp-531826,1.734,2.92706407,0.0,"{3: 2, 78: 1, 8: 3}","[3, 8, 78]",3283781,Li2Pt1O3
Li2PbO3,mp-22450,1.044,2.87739626,0.0,"{3: 2, 82: 1, 8: 3}","[3, 8, 82]",3283821,Li2Pb1O3
Li2BiO3,mp-753162,0.0,3.25601178,0.02030143208333879,"{3: 2, 83: 1, 8: 3}","[3, 8, 83]",3283831,Li2Bi1O3
Li2VO3F,mp-759788,2.2236000000000002,0.54534614,0.08394023714285748,"{3: 2, 23: 1, 8: 3, 9: 1}","[3, 8, 9, 23]",328391231,Li2V1O3F1
Li2Ni3O3F2,mp-753499,2.2039999999999997,4.25082679,0.05377621550000011,"{3: 2, 28: 3, 8: 3, 9: 2}","[3, 8, 9, 28]",328392283,Li2Ni3O3F2
Li2V18O39,mp-704734,0.3714999999999997,2.31885929,0.0703779360169623,"{3: 2, 23: 18, 8: 39}","[3, 8, 23]",328392318,Li2V18O39
Li2V3O3F5,mp-764201,1.6107999999999998,1.68633491,0.07723955187498799,"{3: 2, 23: 3, 8: 3, 9: 5}","[3, 8, 9, 23]",328395233,Li2V3O3F5
Li2Ta2(OF2)3,mp-561011,3.8335999999999997,-2.20104353,0.0,"{3: 2, 73: 2, 8: 3, 9: 6}","[3, 8, 9, 73]",328396732,Li2Ta2O3F6
Li2V4O3F8,mp-753231,1.0068,2.48110605,0.06600361492646556,"{3: 2, 23: 4, 8: 3, 9: 8}","[3, 8, 9, 23]",328398234,Li2V4O3F8
Li2Mn4O3F8,mp-753394,0.06819999999999998,0.24428789,0.07137920963235267,"{3: 2, 25: 4, 8: 3, 9: 8}","[3, 8, 9, 25]",328398254,Li2Mn4O3F8
Li2Co4O3F8,mp-755735,0.13839999999999997,-0.71282136,0.12828363955882338,"{3: 2, 27: 4, 8: 3, 9: 8}","[3, 8, 9, 27]",328398274,Li2Co4O3F8
NaLi2PO4,mp-558045,5.1689,0.77077281,0.0,"{11: 1, 3: 2, 15: 1, 8: 4}","[3, 8, 11, 15]",3284111151,Na1Li2P1O4
NaLi2AsO4,mp-9066,3.8891,0.00401885,0.0,"{11: 1, 3: 2, 33: 1, 8: 4}","[3, 8, 11, 33]",3284111331,Na1Li2As1O4
Na2Li2CoO4,mp-861533,0.6293,0.71961728,0.05587900722221839,"{11: 2, 3: 2, 27: 1, 8: 4}","[3, 8, 11, 27]",3284112271,Na2Li2Co1O4
Li2MgSiO4,mp-11189,4.9405,1.11954444,0.0,"{3: 2, 12: 1, 14: 1, 8: 4}","[3, 8, 12, 14]",3284121141,Li2Mg1Si1O4
Li2MgGeO4,mp-1210797,3.7673,4.11127788,0.0,"{3: 2, 12: 1, 32: 1, 8: 4}","[3, 8, 12, 32]",3284121321,Li2Mg1Ge1O4
Li2MgZrO4,mp-1222626,2.9598000000000004,2.12841676,0.016150631874997323,"{3: 2, 12: 1, 40: 1, 8: 4}","[3, 8, 12, 40]",3284121401,Li2Mg1Zr1O4
Li2AlVO4,mp-755460,1.3213999999999997,4.59040855,0.03162964927083234,"{3: 2, 13: 1, 23: 1, 8: 4}","[3, 8, 13, 23]",3284131231,Li2Al1V1O4
Li2MnAlO4,mp-770551,0.7265000000000001,2.53951954,0.056835135312500284,"{3: 2, 25: 1, 13: 1, 8: 4}","[3, 8, 13, 25]",3284131251,Li2Mn1Al1O4
Li2AlCoO4,mp-1222767,0.7431000000000005,4.44346056,0.03410739593749934,"{3: 2, 13: 1, 27: 1, 8: 4}","[3, 8, 13, 27]",3284131271,Li2Al1Co1O4
Li2AlNiO4,mp-756603,1.5284,1.39046322,0.08403076572916657,"{3: 2, 13: 1, 28: 1, 8: 4}","[3, 8, 13, 28]",3284131281,Li2Al1Ni1O4
Li2CaSiO4,mp-7610,5.189699999999999,2.02386337,0.0,"{3: 2, 20: 1, 14: 1, 8: 4}","[3, 8, 14, 20]",3284141201,Li2Ca1Si1O4
Li2VSiO4,mp-753346,1.75,3.70125943,0.07506453076923503,"{3: 2, 23: 1, 14: 1, 8: 4}","[3, 8, 14, 23]",3284141231,Li2V1Si1O4
Li2CrSiO4,mp-752766,3.0789,2.58067999,0.04141505354166952,"{3: 2, 24: 1, 14: 1, 8: 4}","[3, 8, 14, 24]",3284141241,Li2Cr1Si1O4
Li2MnSiO4,mp-559240,3.0521000000000003,2.02819493,0.0,"{3: 2, 25: 1, 14: 1, 8: 4}","[3, 8, 14, 25]",3284141251,Li2Mn1Si1O4
Li2CoSiO4,mp-753732,2.6410000000000005,2.17916453,0.0,"{3: 2, 27: 1, 14: 1, 8: 4}","[3, 8, 14, 27]",3284141271,Li2Co1Si1O4
Li2SiNiO4,mp-756200,3.0164999999999997,1.98572153,0.015719058437501765,"{3: 2, 14: 1, 28: 1, 8: 4}","[3, 8, 14, 28]",3284141281,Li2Si1Ni1O4
Li2ZnSiO4,mp-17288,3.6329999999999996,0.84741641,0.0,"{3: 2, 30: 1, 14: 1, 8: 4}","[3, 8, 14, 30]",3284141301,Li2Zn1Si1O4
Rb2Li2SiO4,mp-8449,3.8516,0.85861212,0.0,"{37: 2, 3: 2, 14: 1, 8: 4}","[3, 8, 14, 37]",3284141372,Rb2Li2Si1O4
SrLi2SiO4,mp-1191141,4.6377,1.33067714,0.0,"{38: 1, 3: 2, 14: 1, 8: 4}","[3, 8, 14, 38]",3284141381,Sr1Li2Si1O4
Li2CdSiO4,mp-557293,2.8338,0.7488881,0.0,"{3: 2, 48: 1, 14: 1, 8: 4}","[3, 8, 14, 48]",3284141481,Li2Cd1Si1O4
Cs2Li2SiO4,mp-504849,3.8531000000000004,1.65742082,0.0,"{55: 2, 3: 2, 14: 1, 8: 4}","[3, 8, 14, 55]",3284141552,Cs2Li2Si1O4
Li2EuSiO4,mp-14629,0.04330000000000034,5.54152359,0.0,"{3: 2, 63: 1, 14: 1, 8: 4}","[3, 8, 14, 63]",3284141631,Li2Eu1Si1O4
Li2SO4,mp-4556,6.1674,-0.57835903,0.0,"{3: 2, 16: 1, 8: 4}","[3, 8, 16]",3284161,Li2S1O4
KLi2Mn2O4,mp-780874,0.7206999999999999,2.14222972,0.09559439824073124,"{19: 1, 3: 2, 25: 2, 8: 4}","[3, 8, 19, 25]",3284191252,K1Li2Mn2O4
K2Li2TiO4,mp-762240,4.2118,-0.0829896,0.01996280999999822,"{19: 2, 3: 2, 22: 1, 8: 4}","[3, 8, 19, 22]",3284192221,K2Li2Ti1O4
K2Li2CoO4,mp-761245,1.0448,1.45880166,0.019667674537036106,"{19: 2, 3: 2, 27: 1, 8: 4}","[3, 8, 19, 27]",3284192271,K2Li2Co1O4
K2Li2NiO4,mp-773004,0.012699999999999989,0.1826819,0.07464850629629449,"{19: 2, 3: 2, 28: 1, 8: 4}","[3, 8, 19, 28]",3284192281,K2Li2Ni1O4
Li2CaGeO4,mp-7611,4.1135,0.91971225,0.0,"{3: 2, 20: 1, 32: 1, 8: 4}","[3, 8, 20, 32]",3284201321,Li2Ca1Ge1O4
Li2TiVO4,mp-757075,0.21769999999999978,4.82940617,0.022321525364585426,"{3: 2, 22: 1, 23: 1, 8: 4}","[3, 8, 22, 23]",3284221231,Li2Ti1V1O4
Li2TiCrO4,mp-1302453,0.3064,5.22353992,0.07442001395833042,"{3: 2, 22: 1, 24: 1, 8: 4}","[3, 8, 22, 24]",3284221241,Li2Ti1Cr1O4
Li2TiMnO4,mp-754547,0.0,4.15180905,0.07258463093750755,"{3: 2, 22: 1, 25: 1, 8: 4}","[3, 8, 22, 25]",3284221251,Li2Ti1Mn1O4
Li2TiCoO4,mp-1177858,1.0566,3.60002434,0.03780289406249704,"{3: 2, 22: 1, 27: 1, 8: 4}","[3, 8, 22, 27]",3284221271,Li2Ti1Co1O4
Li2TiNiO4,mp-755096,1.6432999999999995,3.67324325,0.03476921312499037,"{3: 2, 22: 1, 28: 1, 8: 4}","[3, 8, 22, 28]",3284221281,Li2Ti1Ni1O4
Cs2Li2TiO4,mp-8294,3.9553999999999996,0.7541609,0.0,"{55: 2, 3: 2, 22: 1, 8: 4}","[3, 8, 22, 55]",3284221552,Cs2Li2Ti1O4
Li2(NiO2)21,mp-685529,0.0,2.21306026,0.4191261606923087,"{3: 2, 28: 21, 8: 42}","[3, 8, 28]",328422821,Li2Ni21O42
Li2VCrO4,mp-755540,0.6746999999999996,3.82309976,0.0020487643749991236,"{3: 2, 23: 1, 24: 1, 8: 4}","[3, 8, 23, 24]",3284231241,Li2V1Cr1O4
Li2MnVO4,mp-754402,0.0,4.29202761,0.07059931281250087,"{3: 2, 25: 1, 23: 1, 8: 4}","[3, 8, 23, 25]",3284231251,Li2Mn1V1O4
Li2VCoO4,mp-755830,1.4746000000000006,3.08071275,0.06583380839285713,"{3: 2, 23: 1, 27: 1, 8: 4}","[3, 8, 23, 27]",3284231271,Li2V1Co1O4
Li2VNiO4,mp-753337,1.2391000000000005,3.40296004,0.04175627312499941,"{3: 2, 23: 1, 28: 1, 8: 4}","[3, 8, 23, 28]",3284231281,Li2V1Ni1O4
Li2VGaO4,mp-755369,1.3508999999999998,3.33308872,0.04292887156249492,"{3: 2, 23: 1, 31: 1, 8: 4}","[3, 8, 23, 31]",3284231311,Li2V1Ga1O4
Li2NbVO4,mp-755466,0.0,5.1129807,0.10946031750000085,"{3: 2, 41: 1, 23: 1, 8: 4}","[3, 8, 23, 41]",3284231411,Li2Nb1V1O4
Li2CrO4,mp-17159,2.6021,-1.55661831,0.0,"{3: 2, 24: 1, 8: 4}","[3, 8, 24]",3284241,Li2Cr1O4
Li2MnCrO4,mp-755443,0.7585999999999995,3.39911112,0.041937341749995305,"{3: 2, 25: 1, 24: 1, 8: 4}","[3, 8, 24, 25]",3284241251,Li2Mn1Cr1O4
Li2CrCoO4,mp-1275616,0.665,3.00583813,0.048755468750000475,"{3: 2, 24: 1, 27: 1, 8: 4}","[3, 8, 24, 27]",3284241271,Li2Cr1Co1O4
Li2CrNiO4,mp-1178023,0.0,3.18143049,0.03495283218750078,"{3: 2, 24: 1, 28: 1, 8: 4}","[3, 8, 24, 28]",3284241281,Li2Cr1Ni1O4
Li2MnCoO4,mp-1173910,0.5258000000000003,3.34437187,0.021526390312490484,"{3: 2, 25: 1, 27: 1, 8: 4}","[3, 8, 25, 27]",3284251271,Li2Mn1Co1O4
Li2MnNiO4,mp-753347,0.0,3.82152611,0.03084247812500074,"{3: 2, 25: 1, 28: 1, 8: 4}","[3, 8, 25, 28]",3284251281,Li2Mn1Ni1O4
Li2MnGeO4,mp-1210796,2.0368,1.53247792,0.0,"{3: 2, 25: 1, 32: 1, 8: 4}","[3, 8, 25, 32]",3284251321,Li2Mn1Ge1O4
Li2MnNbO4,mp-754724,0.0,4.76899013,0.11916997234375071,"{3: 2, 25: 1, 41: 1, 8: 4}","[3, 8, 25, 41]",3284251411,Li2Mn1Nb1O4
Li2MnSnO4,mp-754330,0.0,5.22127502,0.03664749718750038,"{3: 2, 25: 1, 50: 1, 8: 4}","[3, 8, 25, 50]",3284251501,Li2Mn1Sn1O4
Li2CoNiO4,mp-753536,0.0,3.5532284,0.017019385624997163,"{3: 2, 27: 1, 28: 1, 8: 4}","[3, 8, 27, 28]",3284271281,Li2Co1Ni1O4
Li2CoGeO4,mp-756582,2.6323,1.3016909,0.0,"{3: 2, 27: 1, 32: 1, 8: 4}","[3, 8, 27, 32]",3284271321,Li2Co1Ge1O4
Li2CoSnO4,mp-755501,1.7113999999999994,4.26321354,0.01797061187499782,"{3: 2, 27: 1, 50: 1, 8: 4}","[3, 8, 27, 50]",3284271501,Li2Co1Sn1O4
Li2NiGeO4,mp-1210913,2.9925,3.84704786,0.02016135687499876,"{3: 2, 28: 1, 32: 1, 8: 4}","[3, 8, 28, 32]",3284281321,Li2Ni1Ge1O4
Sr2Li2NiO4,mp-753817,2.3334,1.94669135,0.09083695805555525,"{38: 2, 3: 2, 28: 1, 8: 4}","[3, 8, 28, 38]",3284281382,Sr2Li2Ni1O4
Li2NiSnO4,mp-755249,1.9165999999999999,4.55407283,0.012322317812502703,"{3: 2, 28: 1, 50: 1, 8: 4}","[3, 8, 28, 50]",3284281501,Li2Ni1Sn1O4
Li2NiBiO4,mp-755002,0.0,4.63949559,0.04228748406249938,"{3: 2, 28: 1, 83: 1, 8: 4}","[3, 8, 28, 83]",3284281831,Li2Ni1Bi1O4
Li2ZnGeO4,mp-8184,3.1053,0.07629145,0.0,"{3: 2, 30: 1, 32: 1, 8: 4}","[3, 8, 30, 32]",3284301321,Li2Zn1Ge1O4
Rb2Li2GeO4,mp-8450,3.3651,0.16483644,0.0,"{37: 2, 3: 2, 32: 1, 8: 4}","[3, 8, 32, 37]",3284321372,Rb2Li2Ge1O4
Li2CdGeO4,mp-7688,2.455,-0.03482247,0.0,"{3: 2, 48: 1, 32: 1, 8: 4}","[3, 8, 32, 48]",3284321481,Li2Cd1Ge1O4
Cs2Li2GeO4,mp-8313,3.4743999999999997,0.77759562,0.0,"{55: 2, 3: 2, 32: 1, 8: 4}","[3, 8, 32, 55]",3284321552,Cs2Li2Ge1O4
Li2SeO4,mp-4855,3.8324,-0.94785075,0.0,"{3: 2, 34: 1, 8: 4}","[3, 8, 34]",3284341,Li2Se1O4
Li2MoO4,mp-18050,3.8713,-1.32687895,0.0,"{3: 2, 42: 1, 8: 4}","[3, 8, 42]",3284421,Li2Mo1O4
Li2SnO4,mp-1222981,2.2752999999999997,5.12774121,0.08331775538095343,"{3: 2, 50: 1, 8: 4}","[3, 8, 50]",3284501,Li2Sn1O4
Li2TeO4,mp-13843,2.2670999999999997,2.15253876,0.0,"{3: 2, 52: 1, 8: 4}","[3, 8, 52]",3284521,Li2Te1O4
Li2WO4,mp-19260,3.7185000000000006,0.74231694,0.0,"{3: 2, 74: 1, 8: 4}","[3, 8, 74]",3284741,Li2W1O4
Li2Mg11(WO4)12,mp-764817,3.4156,4.20288768,0.1001499728082198,"{3: 2, 12: 11, 74: 12, 8: 48}","[3, 8, 12, 74]",3284812117412,Li2Mg11W12O48
Li2TiPO4F,mp-25401,0.009700000000000486,5.67951532,0.2707814386269858,"{3: 2, 22: 1, 15: 1, 8: 4, 9: 1}","[3, 8, 9, 15, 22]",328491151221,Li2Ti1P1O4F1
Li2VPO4F,mp-776064,2.4164000000000003,3.7293807,0.017004511764408647,"{3: 2, 23: 1, 15: 1, 8: 4, 9: 1}","[3, 8, 9, 15, 23]",328491151231,Li2V1P1O4F1
Li2CrPO4F,mp-770894,1.9863999999999997,3.21220661,0.013983521736107285,"{3: 2, 24: 1, 15: 1, 8: 4, 9: 1}","[3, 8, 9, 15, 24]",328491151241,Li2Cr1P1O4F1
Li2MnPO4F,mp-776063,3.0801,5.70576708,0.027158774722219725,"{3: 2, 25: 1, 15: 1, 8: 4, 9: 1}","[3, 8, 9, 15, 25]",328491151251,Li2Mn1P1O4F1
Li2CoPO4F,mp-770853,2.6148000000000002,2.23086017,0.035994524583332854,"{3: 2, 27: 1, 15: 1, 8: 4, 9: 1}","[3, 8, 9, 15, 27]",328491151271,Li2Co1P1O4F1