formula,material_id,band_gap,efermi,energy_above_hull,comp_atoms,sorted_keys_comp_atoms,comp_number,new_formula
Ti3NiS6,mp-13993,0.0,6.2277002,0.0,"{22: 3, 28: 1, 16: 6}","[16, 22, 28]",166223281,Ti3Ni1S6
V3NiS6,mp-676058,0.0,6.59176692,0.05140036633333178,"{23: 3, 28: 1, 16: 6}","[16, 23, 28]",166233281,V3Ni1S6
NiH6C2(NO2)2,mp-1194435,2.8621,-0.60499234,0.030944086444444352,"{28: 1, 1: 6, 6: 2, 7: 2, 8: 4}","[1, 6, 7, 8, 28]",16627284281,Ni1H6C2N2O4
NiH6C2(SN2)2,mp-41012,0.5680999999999998,1.46629342,0.12735270613889416,"{28: 1, 1: 6, 6: 2, 16: 2, 7: 4}","[1, 6, 7, 16, 28]",166274162281,Ni1H6C2S2N4
Nb3NiS6,mp-1173526,0.0,5.91423451,0.0,"{41: 3, 28: 1, 16: 6}","[16, 28, 41]",166281413,Nb3Ni1S6
Ta9(NiS3)2,mp-3824,0.0,6.07136862,0.0,"{73: 9, 28: 2, 16: 6}","[16, 28, 73]",166282739,Ta9Ni2S6
NiH6(CO3)2,mp-1195478,4.0189,0.29622566,0.06813683911111212,"{28: 1, 1: 6, 6: 2, 8: 6}","[1, 6, 8, 28]",166286281,Ni1H6C2O6
Na2NiH6C4N4O3,mp-728713,3.4164000000000003,-1.57057832,0.23213070658333468,"{11: 2, 28: 1, 1: 6, 6: 4, 7: 4, 8: 3}","[1, 6, 7, 8, 11, 28]",16647483112281,Na2Ni1H6C4N4O3
NiPH6NO5,mp-735535,3.6025,1.29424693,0.0,"{28: 1, 15: 1, 1: 6, 7: 1, 8: 5}","[1, 7, 8, 15, 28]",167185151281,Ni1P1H6N1O5
NiH6(NCl)2,mp-1220093,0.7874000000000001,1.54353704,0.03054286125000072,"{28: 1, 1: 6, 7: 2, 17: 2}","[1, 7, 17, 28]",1672172281,Ni1H6N2Cl2
NiH6(BrN)2,mp-1220108,0.5768000000000001,1.35004292,0.030348403977271232,"{28: 1, 1: 6, 35: 2, 7: 2}","[1, 7, 28, 35]",1672281352,Ni1H6Br2N2
La3FeNiS7,mp-1191594,0.0,6.13610007,0.12109336451190789,"{57: 3, 26: 1, 28: 1, 16: 7}","[16, 26, 28, 57]",167261281573,La3Fe1Ni1S7
Cu4NiGe2S7,mp-1104755,0.0,4.67450453,0.013510673690474206,"{29: 4, 28: 1, 32: 2, 16: 7}","[16, 28, 29, 32]",167281294322,Cu4Ni1Ge2S7
Nd3GaNiS7,mp-1191831,0.0,4.62196766,0.017867326263891314,"{60: 3, 31: 1, 28: 1, 16: 7}","[16, 28, 31, 60]",167281311603,Nd3Ga1Ni1S7
Sm3GaNiS7,mp-1192232,0.0,4.57061117,0.03552215919416213,"{62: 3, 31: 1, 28: 1, 16: 7}","[16, 28, 31, 62]",167281311623,Sm3Ga1Ni1S7
Dy3GaNiS7,mp-1191163,0.0,4.9056294,0.04267537013888845,"{66: 3, 31: 1, 28: 1, 16: 7}","[16, 28, 31, 66]",167281311663,Dy3Ga1Ni1S7
Er3GaNiS7,mp-1191780,0.0,4.90641052,0.04675693305555839,"{68: 3, 31: 1, 28: 1, 16: 7}","[16, 28, 31, 68]",167281311683,Er3Ga1Ni1S7
La3InNiS7,mp-1191485,0.0,6.28241914,0.03905454305555711,"{57: 3, 49: 1, 28: 1, 16: 7}","[16, 28, 49, 57]",167281491573,La3In1Ni1S7
La4NiS7,mp-1191491,0.0,5.84869467,0.1542347726388904,"{57: 4, 28: 1, 16: 7}","[16, 28, 57]",167281574,La4Ni1S7
Pr4NiS7,mp-1209934,0.5918000000000005,3.66116582,0.16713209513888838,"{59: 4, 28: 1, 16: 7}","[16, 28, 59]",167281594,Pr4Ni1S7
Nd4NiS7,mp-1210765,0.6435,3.64159526,0.15292336513888838,"{60: 4, 28: 1, 16: 7}","[16, 28, 60]",167281604,Nd4Ni1S7
Sm4NiS7,mp-1191745,0.0,4.19517563,0.17474568040178173,"{62: 4, 28: 1, 16: 7}","[16, 28, 62]",167281624,Sm4Ni1S7
V2NiH6(NO3)2,mp-758378,2.206,-0.51092419,0.07579537823529492,"{23: 2, 28: 1, 1: 6, 7: 2, 8: 6}","[1, 7, 8, 23, 28]",167286232281,V2Ni1H6N2O6
NiH6(NO3)2,mp-1210459,1.8616,-1.56309905,0.7073893266999969,"{28: 1, 1: 6, 7: 2, 8: 6}","[1, 7, 8, 28]",167286281,Ni1H6N2O6
NiH6S2(NO4)2,mp-1211120,0.257,-0.93425402,0.8134142636988377,"{28: 1, 1: 6, 16: 2, 7: 2, 8: 8}","[1, 7, 8, 16, 28]",167288162281,Ni1H6S2N2O8
NiH6(SO6)2,mp-746820,0.0,-2.36439067,0.3636660705952295,"{28: 1, 1: 6, 16: 2, 8: 12}","[1, 8, 16, 28]",16812162281,Ni1H6S2O12
V2NiP2H6O13,mp-1179562,1.9135000000000002,3.21643292,0.009833239375001135,"{23: 2, 28: 1, 15: 2, 1: 6, 8: 13}","[1, 8, 15, 23, 28]",16813152232281,V2Ni1P2H6O13
NiAg4P6(HO3)6,mp-1210391,0.0,0.43675166,0.2831676832969219,"{28: 1, 47: 4, 15: 6, 1: 6, 8: 18}","[1, 8, 15, 28, 47]",16818156281474,Ni1Ag4P6H6O18
Ca(NiS2)4,mp-1395611,0.0,4.6398673,0.11664803153845682,"{20: 1, 28: 4, 16: 8}","[16, 20, 28]",168201284,Ca1Ni4S8
Ti3Cu2NiS8,mp-1217153,0.0,5.34971766,0.01792442624338797,"{22: 3, 29: 2, 28: 1, 16: 8}","[16, 22, 28, 29]",168223281292,Ti3Cu2Ni1S8
Ti4NiS8,mp-1104366,0.0,5.54706135,0.0,"{22: 4, 28: 1, 16: 8}","[16, 22, 28]",168224281,Ti4Ni1S8
V4NiS8,mp-696867,0.0,6.16755655,0.0376270079487151,"{23: 4, 28: 1, 16: 8}","[16, 23, 28]",168234281,V4Ni1S8
CrGa3(NiS4)2,mp-1226319,0.0,4.61381626,0.12163334166666573,"{24: 1, 31: 3, 28: 2, 16: 8}","[16, 24, 28, 31]",168241282313,Cr1Ga3Ni2S8
Cr4FeNiS8,mp-1226289,0.0,5.30283067,0.05057373279591992,"{24: 4, 26: 1, 28: 1, 16: 8}","[16, 24, 26, 28]",168244261281,Cr4Fe1Ni1S8
Cr4CoNiS8,mp-1226342,0.0,5.39954325,0.0,"{24: 4, 27: 1, 28: 1, 16: 8}","[16, 24, 27, 28]",168244271281,Cr4Co1Ni1S8
Cr5NiS8,mp-1226130,0.0,6.09095241,0.020007029285713962,"{24: 5, 28: 1, 16: 8}","[16, 24, 28]",168245281,Cr5Ni1S8
FeCo(NiS2)4,mp-1224992,0.0,6.65830553,0.09722274710713652,"{26: 1, 27: 1, 28: 4, 16: 8}","[16, 26, 27, 28]",168261271284,Fe1Co1Ni4S8
Fe4Ni4PdS8,mp-1225147,0.0,6.23851765,0.07996462401750648,"{26: 4, 28: 4, 46: 1, 16: 8}","[16, 26, 28, 46]",168264284461,Fe4Ni4Pd1S8
Ba4CoNi3S8,mp-1228155,0.0,4.22311003,0.06937277333333203,"{56: 4, 27: 1, 28: 3, 16: 8}","[16, 27, 28, 56]",168271283564,Ba4Co1Ni3S8
CoNi5S8,mp-1226065,0.0,6.66194425,0.02651230678570382,"{27: 1, 28: 5, 16: 8}","[16, 27, 28]",168271285,Co1Ni5S8
Co3Ni3S8,mp-1226465,0.0,6.54848061,0.04759596857142956,"{27: 3, 28: 3, 16: 8}","[16, 27, 28]",168273283,Co3Ni3S8
Co3(Ni3S4)2,mp-1226487,0.0,6.84136664,0.011935684621853682,"{27: 3, 28: 6, 16: 8}","[16, 27, 28]",168273286,Co3Ni6S8
Co4CuNiS8,mp-1226044,0.0,6.06414794,0.005878849285713805,"{27: 4, 29: 1, 28: 1, 16: 8}","[16, 27, 28, 29]",168274281291,Co4Cu1Ni1S8
Co5NiS8,mp-1226019,0.0,6.24684005,0.0,"{27: 5, 28: 1, 16: 8}","[16, 27, 28]",168275281,Co5Ni1S8
Cu2NiSn3S8,mp-1225853,0.0,6.17446869,0.02396294767857121,"{29: 2, 28: 1, 50: 3, 16: 8}","[16, 28, 29, 50]",168281292503,Cu2Ni1Sn3S8
Nb4NiS8,mp-1192540,0.0,5.52114032,0.0,"{41: 4, 28: 1, 16: 8}","[16, 28, 41]",168281414,Nb4Ni1S8
Re2Ni(MoS4)2,mp-1219138,0.0,6.2552218,0.0769859506153816,"{75: 2, 28: 1, 42: 2, 16: 8}","[16, 28, 42, 75]",168281422752,Re2Ni1Mo2S8
NiAg2Sn3S8,mp-1220114,0.25569999999999915,4.96735636,0.002198831111116739,"{28: 1, 47: 2, 50: 3, 16: 8}","[16, 28, 47, 50]",168281472503,Ni1Ag2Sn3S8
Ta4NiS8,mp-1218136,0.0,5.36411464,0.04150513771091369,"{73: 4, 28: 1, 16: 8}","[16, 28, 73]",168281734,Ta4Ni1S8
CuNi3S8,mp-1225702,0.0,7.32675778,0.009049472500000988,"{29: 1, 28: 3, 16: 8}","[16, 28, 29]",168283291,Cu1Ni3S8
CuNi3(SnS4)2,mp-1225814,0.0,6.17432099,0.058039556875001175,"{29: 1, 28: 3, 50: 2, 16: 8}","[16, 28, 29, 50]",168283291502,Cu1Ni3Sn2S8
Ta2Ni3S8,mp-562537,0.5263999999999998,4.50787165,0.0,"{73: 2, 28: 3, 16: 8}","[16, 28, 73]",168283732,Ta2Ni3S8
Zn(NiS2)4,mp-1390608,0.0,5.08982279,0.11136382923076482,"{30: 1, 28: 4, 16: 8}","[16, 28, 30]",168284301,Zn1Ni4S8
Eu(Ni3S4)2,mp-695771,0.0,6.33771981,0.07913443366666328,"{63: 1, 28: 6, 16: 8}","[16, 28, 63]",168286631,Eu1Ni6S8
Ni9S8,mp-976920,0.0,7.19232496,0.0,"{28: 9, 16: 8}","[16, 28]",168289,Ni9S8
Ni9BiTeS8,mp-1189904,0.0,7.81455544,0.028540655394734493,"{28: 9, 83: 1, 52: 1, 16: 8}","[16, 28, 52, 83]",168289521831,Ni9Bi1Te1S8
Ni3H6SO3,mp-1237012,0.9577,0.25119171,0.7477198594230776,"{28: 3, 1: 6, 16: 1, 8: 3}","[1, 8, 16, 28]",1683161283,Ni3H6S1O3
Cu3NiH6(ClO3)2,mp-557210,0.0,2.14559423,0.0,"{29: 3, 28: 1, 1: 6, 17: 2, 8: 6}","[1, 8, 17, 28, 29]",1686172281293,Cu3Ni1H6Cl2O6
NdMgNi4H7,mp-1104718,0.0,5.68601369,0.013025245544872277,"{60: 1, 12: 1, 28: 4, 1: 7}","[1, 12, 28, 60]",17121284601,Nd1Mg1Ni4H7
LaMg2NiH7,mp-697905,0.9506000000000006,5.09265856,0.0049315818181803195,"{57: 1, 12: 2, 28: 1, 1: 7}","[1, 12, 28, 57]",17122281571,La1Mg2Ni1H7
NiCl,mp-1186339,0.0,5.16234124,0.41593463000000064,"{28: 1, 17: 1}","[17, 28]",171281,Ni1Cl1
Er3Al2Ni6H7,mp-1201730,0.0,5.94610178,0.09525929138888412,"{68: 3, 13: 2, 28: 6, 1: 7}","[1, 13, 28, 68]",17132286683,Er3Al2Ni6H7
Zr6NiCl15,mp-653981,0.0,3.31852499,0.005399877196968106,"{40: 6, 28: 1, 17: 15}","[17, 28, 40]",1715281406,Zr6Ni1Cl15
Ni15Cl16,mp-1094137,0.0,6.71918382,0.47709731290322566,"{28: 15, 17: 16}","[17, 28]",17162815,Ni15Cl16
NiCl2,mp-27396,0.0,2.32413053,0.0,"{28: 1, 17: 2}","[17, 28]",172281,Ni1Cl2
LaNi5H7,mp-23671,0.0,7.12627586,0.0,"{57: 1, 28: 5, 1: 7}","[1, 28, 57]",17285571,La1Ni5H7
KNiCl3,mp-27366,0.7022999999999999,1.44222778,0.0,"{19: 1, 28: 1, 17: 3}","[17, 19, 28]",173191281,K1Ni1Cl3
RbNiCl3,mp-23486,0.7089000000000001,1.42430059,0.0,"{37: 1, 28: 1, 17: 3}","[17, 28, 37]",173281371,Rb1Ni1Cl3
CsNiCl3,mp-22950,0.8049000000000002,1.51774018,0.0,"{55: 1, 28: 1, 17: 3}","[17, 28, 55]",173281551,Cs1Ni1Cl3
BaNiCl3,mp-1096852,0.0,5.23680561,0.29026104600000213,"{56: 1, 28: 1, 17: 3}","[17, 28, 56]",173281561,Ba1Ni1Cl3
TlNiCl3,mp-1205652,0.5372000000000003,2.52647395,0.004469158999997891,"{81: 1, 28: 1, 17: 3}","[17, 28, 81]",173281811,Tl1Ni1Cl3
Ni3Cl4,mp-1096770,0.0,5.23560394,0.2650046742857146,"{28: 3, 17: 4}","[17, 28]",174283,Ni3Cl4
Cs3NiCl5,mp-1189297,0.0871,0.05797104,0.021631132777779172,"{55: 3, 28: 1, 17: 5}","[17, 28, 55]",175281553,Cs3Ni1Cl5
NiCl6,mp-1207348,0.0,-7.37037081,0.2650708057142861,"{28: 1, 17: 6}","[17, 28]",176281,Ni1Cl6
Ni5Cl6,mp-1094110,0.0,5.51529431,0.33173895545454535,"{28: 5, 17: 6}","[17, 28]",176285,Ni5Cl6
NiH7C3NO6,mp-1220171,4.4328,-0.76236693,0.09933167060185166,"{28: 1, 1: 7, 6: 3, 7: 1, 8: 6}","[1, 6, 7, 8, 28]",17637186281,Ni1H7C3N1O6
NiH7C3NO7,mp-1201597,4.3251,3.64908845,0.1945569410526291,"{28: 1, 1: 7, 6: 3, 7: 1, 8: 7}","[1, 6, 7, 8, 28]",17637187281,Ni1H7C3N1O7
Ni6Cl7,mp-1022720,0.0,5.94099079,0.37579872692307603,"{28: 6, 17: 7}","[17, 28]",177286,Ni6Cl7
Ga2NiCl8,mp-580999,0.4607,-0.07957947,0.0,"{31: 2, 28: 1, 17: 8}","[17, 28, 31]",178281312,Ga2Ni1Cl8
La2Mg(NiH4)2,mp-866666,0.8984000000000005,6.22162453,0.0,"{57: 2, 12: 1, 28: 2, 1: 8}","[1, 12, 28, 57]",18121282572,La2Mg1Ni2H8
Ho3Al2(Ni3H4)2,mp-1224531,0.0,6.1872214,0.11106449754386283,"{67: 3, 13: 2, 28: 6, 1: 8}","[1, 13, 28, 67]",18132286673,Ho3Al2Ni6H8
Ca3Ni2H8C10(S4O13)2,mp-698271,0.0,0.26806951,0.6129701192491597,"{20: 3, 28: 2, 1: 8, 6: 10, 16: 8, 8: 26}","[1, 6, 8, 16, 20, 28]",18610826168203282,Ca3Ni2H8C10S8O26
K2NiH8(CO5)2,mp-24573,4.3339,-0.13541191,0.0,"{19: 2, 28: 1, 1: 8, 6: 2, 8: 10}","[1, 6, 8, 19, 28]",1862810192281,K2Ni1H8C2O10
NiH8(CO5)2,mp-772564,5.5795,-1.38963397,0.0861357527380946,"{28: 1, 1: 8, 6: 2, 8: 10}","[1, 6, 8, 28]",1862810281,Ni1H8C2O10
Rb2NiH8(CO5)2,mp-24623,2.9004000000000003,-0.36885047,0.016856932771742272,"{37: 2, 28: 1, 1: 8, 6: 2, 8: 10}","[1, 6, 8, 28, 37]",1862810281372,Rb2Ni1H8C2O10
NiH8C4(NO3)2,mp-1195088,3.1113999999999997,1.01789176,0.3297001816666647,"{28: 1, 1: 8, 6: 4, 7: 2, 8: 6}","[1, 6, 7, 8, 28]",18647286281,Ni1H8C4N2O6
NiH8C4(NO2)3,mp-1220880,0.5109,-0.09163346,0.19383075068181732,"{28: 1, 1: 8, 6: 4, 7: 3, 8: 6}","[1, 6, 7, 8, 28]",18647386281,Ni1H8C4N3O6
Ga2NiP3H8NO14,mp-23783,3.8142000000000005,0.74035566,0.007733471160912941,"{31: 2, 28: 1, 15: 3, 1: 8, 7: 1, 8: 14}","[1, 7, 8, 15, 28, 31]",1871814153281312,Ga2Ni1P3H8N1O14
NaNi3P4H8NO16,mp-757387,1.0008000000000004,2.6972757,0.0,"{11: 1, 28: 3, 15: 4, 1: 8, 7: 1, 8: 16}","[1, 7, 8, 11, 15, 28]",1871816111154283,Na1Ni3P4H8N1O16
NiH8(NO5)2,mp-1205168,2.7816,-0.18170736,0.00960361797619047,"{28: 1, 1: 8, 7: 2, 8: 10}","[1, 7, 8, 28]",1872810281,Ni1H8N2O10
NiH8S2(NO2)4,mp-1220589,0.7790000000000001,1.68647853,0.20914037328372004,"{28: 1, 1: 8, 16: 2, 7: 4, 8: 8}","[1, 7, 8, 16, 28]",187488162281,Ni1H8S2N4O8
NiP2(H4O5)2,mp-510650,4.1723,0.2890793,0.0,"{28: 1, 15: 2, 1: 8, 8: 10}","[1, 8, 15, 28]",18810152281,Ni1P2H8O10
V2Ni(H4O5)2,mp-1179599,2.8013,1.77085674,0.032524167619047084,"{23: 2, 28: 1, 1: 8, 8: 10}","[1, 8, 23, 28]",18810232281,V2Ni1H8O10
NiH8(IO5)2,mp-540626,3.6538,0.87850197,0.009748314404758318,"{28: 1, 1: 8, 53: 2, 8: 10}","[1, 8, 28, 53]",18810281532,Ni1H8I2O10
Na2NiH8(SO6)2,mp-510526,1.0139999999999998,1.46845707,0.0,"{11: 2, 28: 1, 1: 8, 16: 2, 8: 12}","[1, 8, 11, 16, 28]",18812112162281,Na2Ni1H8S2O12
Zn2NiP2(H2O3)4,mp-1205204,3.7775,-0.1124882,0.02520324653333006,"{30: 2, 28: 1, 15: 2, 1: 8, 8: 12}","[1, 8, 15, 28, 30]",18812152281302,Zn2Ni1P2H8O12
Re2Ni(H2O3)4,mp-24635,3.2235,-1.94928287,0.0022588153260869603,"{75: 2, 28: 1, 1: 8, 8: 12}","[1, 8, 28, 75]",18812281752,Re2Ni1H8O12
V2NiP2(H4O7)2,mp-23983,0.9891000000000001,0.67594377,0.007460436666690384,"{23: 2, 28: 1, 15: 2, 1: 8, 8: 14}","[1, 8, 15, 23, 28]",18814152232281,V2Ni1P2H8O14
K2NiP4(HO2)8,mp-761179,4.5444,-0.12450257,0.0,"{19: 2, 28: 1, 15: 4, 1: 8, 8: 16}","[1, 8, 15, 19, 28]",18816154192281,K2Ni1P4H8O16
Rb2NiP4(HO2)8,mp-1198723,5.172599999999999,-0.44563639,0.0,"{37: 2, 28: 1, 15: 4, 1: 8, 8: 16}","[1, 8, 15, 28, 37]",18816154281372,Rb2Ni1P4H8O16
Tl2NiP4(HO2)8,mp-1203479,4.8709,5.04199283,0.0,"{81: 2, 28: 1, 15: 4, 1: 8, 8: 16}","[1, 8, 15, 28, 81]",18816154281812,Tl2Ni1P4H8O16
NiH8(ClO2)2,mp-1220246,4.3162,3.69764921,5.542549999759672e-05,"{28: 1, 1: 8, 17: 2, 8: 4}","[1, 8, 17, 28]",1884172281,Ni1H8Cl2O4
NiSb2H8(O3F4)2,mp-1180862,0.0,-0.85374786,0.31119439748571764,"{28: 1, 51: 2, 1: 8, 8: 6, 9: 8}","[1, 8, 9, 28, 51]",188698281512,Ni1Sb2H8O6F8
KCaNi2,mp-631619,0.0,2.91928064,0.7845156869375001,"{19: 1, 20: 1, 28: 2}","[19, 20, 28]",191201282,K1Ca1Ni2
KCu3NiSe4,mp-1180817,0.0,2.24310523,0.17679905833333276,"{19: 1, 29: 3, 28: 1, 34: 4}","[19, 28, 29, 34]",191281293344,K1Cu3Ni1Se4
KHfNi,mp-631296,0.0,3.2266061,2.3322295289999992,"{19: 1, 72: 1, 28: 1}","[19, 28, 72]",191281721,K1Hf1Ni1
K(NiSe)2,mp-568747,0.0,4.08902442,0.05111994800000108,"{19: 1, 28: 2, 34: 2}","[19, 28, 34]",191282342,K1Ni2Se2
KIn9Ni2,mp-569886,0.0,6.86587889,0.023438626203703183,"{19: 1, 49: 9, 28: 2}","[19, 28, 49]",191282499,K1In9Ni2
Y3Al2(Ni2H3)3,mp-1202694,0.0,6.1339064,0.14511227200000043,"{39: 3, 13: 2, 28: 6, 1: 9}","[1, 13, 28, 39]",19132286393,Y3Al2Ni6H9
Sm3Al2(Ni2H3)3,mp-1204639,0.0,5.69610137,0.4681511735043866,"{62: 3, 13: 2, 28: 6, 1: 9}","[1, 13, 28, 62]",19132286623,Sm3Al2Ni6H9
Gd3Al2(Ni2H3)3,mp-1199765,0.0,5.73606388,0.14056975175000108,"{64: 3, 13: 2, 28: 6, 1: 9}","[1, 13, 28, 64]",19132286643,Gd3Al2Ni6H9
Dy3Al2(Ni2H3)3,mp-1196242,0.0,6.09651618,0.14115997150000048,"{66: 3, 13: 2, 28: 6, 1: 9}","[1, 13, 28, 66]",19132286663,Dy3Al2Ni6H9
K2Ni12As7,mp-541810,0.0,6.73710958,0.03439822423941674,"{19: 2, 28: 12, 33: 7}","[19, 28, 33]",1922812337,K2Ni12As7
K2NiAs2,mp-9673,0.08029999999999982,2.79258577,0.0,"{19: 2, 28: 1, 33: 2}","[19, 28, 33]",192281332,K2Ni1As2
K2Ni3Se4,mp-1188089,0.4373,3.03408375,0.0,"{19: 2, 28: 3, 34: 4}","[19, 28, 34]",192283344,K2Ni3Se4
Zr4Ni2H9,mp-1178617,0.0,5.078037,0.04292915553332577,"{40: 4, 28: 2, 1: 9}","[1, 28, 40]",19282404,Zr4Ni2H9
KNiH9(CO5)2,mp-697458,0.0,0.17211259,0.008504666521742088,"{19: 1, 28: 1, 1: 9, 6: 2, 8: 10}","[1, 6, 8, 19, 28]",1962810191281,K1Ni1H9C2O10
NaNi4H9(CO5)3,mp-761175,3.3525,1.43938803,0.010991963828129947,"{11: 1, 28: 4, 1: 9, 6: 3, 8: 15}","[1, 6, 8, 11, 28]",1963815111284,Na1Ni4H9C3O15
NiH9C4(NO2)3,mp-1198045,4.3023,3.64840492,0.0820904334782595,"{28: 1, 1: 9, 6: 4, 7: 3, 8: 6}","[1, 6, 7, 8, 28]",19647386281,Ni1H9C4N3O6
CaNi,mp-1059707,0.0,4.12316716,0.16564980624999937,"{20: 1, 28: 1}","[20, 28]",201281,Ca1Ni1
CaCu3NiSe4,mp-1181967,0.0,3.17974967,0.19256181527777816,"{20: 1, 29: 3, 28: 1, 34: 4}","[20, 28, 29, 34]",201281293344,Ca1Cu3Ni1Se4
CaGa2Ni,mp-1080561,0.0,4.2223063,0.0,"{20: 1, 31: 2, 28: 1}","[20, 28, 31]",201281312,Ca1Ga2Ni1
CaNiGe,mp-1077470,0.0,5.12537378,0.0,"{20: 1, 28: 1, 32: 1}","[20, 28, 32]",201281321,Ca1Ni1Ge1
CaNiGe2,mp-13512,0.0,5.67838549,0.0,"{20: 1, 28: 1, 32: 2}","[20, 28, 32]",201281322,Ca1Ni1Ge2
CaIn2Ni,mp-1080611,0.0,6.68593359,0.0,"{20: 1, 49: 2, 28: 1}","[20, 28, 49]",201281492,Ca1In2Ni1
CaIn4Ni,mp-672194,0.0,7.05540848,0.01006665249999994,"{20: 1, 49: 4, 28: 1}","[20, 28, 49]",201281494,Ca1In4Ni1
CaNiTe,mp-961667,0.0,5.47958208,0.7333377599999995,"{20: 1, 28: 1, 52: 1}","[20, 28, 52]",201281521,Ca1Ni1Te1
CaNi2,mp-2295,0.0,5.83747408,0.0,"{20: 1, 28: 2}","[20, 28]",201282,Ca1Ni2
CaZn3Ni2,mp-542953,0.0,4.00484797,0.0,"{20: 1, 30: 3, 28: 2}","[20, 28, 30]",201282303,Ca1Zn3Ni2
CaGa3Ni2,mp-11431,0.0,4.83740138,0.0,"{20: 1, 31: 3, 28: 2}","[20, 28, 31]",201282313,Ca1Ga3Ni2
Ca(NiGe)2,mp-2949,0.0,5.9319642,0.0,"{20: 1, 28: 2, 32: 2}","[20, 28, 32]",201282322,Ca1Ni2Ge2
Ca(NiAs)2,mp-4744,0.0,6.43835578,0.0,"{20: 1, 28: 2, 33: 2}","[20, 28, 33]",201282332,Ca1Ni2As2
CaNi3,mp-1102167,0.0,5.92995422,2.671666666742567e-05,"{20: 1, 28: 3}","[20, 28]",201283,Ca1Ni3
Ca(Ni2Sn)2,mp-510484,0.0,7.57890195,0.0,"{20: 1, 28: 4, 50: 2}","[20, 28, 50]",201284502,Ca1Ni4Sn2
CaNi5,mp-774,0.0,5.9714397,0.0004997670833333245,"{20: 1, 28: 5}","[20, 28]",201285,Ca1Ni5
SrCa(Ni2Sn)4,mp-1218470,0.0,7.46440432,0.0012239425000002413,"{38: 1, 20: 1, 28: 8, 50: 4}","[20, 28, 38, 50]",201288381504,Sr1Ca1Ni8Sn4
Ca21(Zn18Ni)2,mp-570883,0.0,2.81320224,0.007699869632767253,"{20: 21, 30: 36, 28: 2}","[20, 28, 30]",20212823036,Ca21Zn36Ni2
Ca2Ni12As7,mp-1191589,0.0,7.59663785,0.0,"{20: 2, 28: 12, 33: 7}","[20, 28, 33]",2022812337,Ca2Ni12As7
Ca2Ni3Ge2,mp-1104825,0.0,4.68343653,0.0,"{20: 2, 28: 3, 32: 2}","[20, 28, 32]",202283322,Ca2Ni3Ge2
Ca2Eu(Zn3Ni2)3,mp-1227643,0.0,3.72429041,0.0,"{20: 2, 63: 1, 30: 9, 28: 6}","[20, 28, 30, 63]",202286309631,Ca2Eu1Zn9Ni6
Ca2Ni7,mp-1105997,0.0,5.79756755,0.0,"{20: 2, 28: 7}","[20, 28]",202287,Ca2Ni7
Ca3(GaNi)4,mp-11285,0.0,4.27946999,0.0,"{20: 3, 31: 4, 28: 4}","[20, 28, 31]",203284314,Ca3Ga4Ni4
Ca3(InNi2)4,mp-21677,0.0,6.62558984,0.0,"{20: 3, 49: 4, 28: 8}","[20, 28, 49]",203288494,Ca3In4Ni8
Ca4Ni,mp-1214129,0.0,2.04512879,0.2740815175,"{20: 4, 28: 1}","[20, 28]",204281,Ca4Ni1
Ca4Ni4Ge3,mp-1192309,0.0,5.14279542,0.0,"{20: 4, 28: 4, 32: 3}","[20, 28, 32]",204284323,Ca4Ni4Ge3
Ca5Ni17Ge8,mp-1193893,0.0,6.47537418,0.0,"{20: 5, 28: 17, 32: 8}","[20, 28, 32]",2052817328,Ca5Ni17Ge8
Ca5Ni9As7,mp-1214157,0.0,6.12734269,0.009245649751083995,"{20: 5, 28: 9, 33: 7}","[20, 28, 33]",205289337,Ca5Ni9As7
Ca7Ni4Sn13,mp-31158,0.0,6.50284401,0.0,"{20: 7, 28: 4, 50: 13}","[20, 28, 50]",2072845013,Ca7Ni4Sn13
ScTi(NiSn)2,mp-1219264,0.0,7.14452673,0.01468313500000118,"{21: 1, 22: 1, 28: 2, 50: 2}","[21, 22, 28, 50]",211221282502,Sc1Ti1Ni2Sn2
ScTi4(NiSn)5,mp-1219331,0.0,7.10427479,0.0073486426666660165,"{21: 1, 22: 4, 28: 5, 50: 5}","[21, 22, 28, 50]",211224285505,Sc1Ti4Ni5Sn5
ZrScVNi3,mp-1215264,0.0,6.29005451,0.08053023916666824,"{40: 1, 21: 1, 23: 1, 28: 3}","[21, 23, 28, 40]",211231283401,Zr1Sc1V1Ni3
ZrScMnNi3,mp-1215226,0.0,6.35968349,0.03200524562500373,"{40: 1, 21: 1, 25: 1, 28: 3}","[21, 25, 28, 40]",211251283401,Zr1Sc1Mn1Ni3
ScCoNiSn,mp-1219300,0.0,7.94928634,0.036147650000001974,"{21: 1, 27: 1, 28: 1, 50: 1}","[21, 27, 28, 50]",211271281501,Sc1Co1Ni1Sn1
ScNi,mp-11521,0.0,5.36657594,0.0,"{21: 1, 28: 1}","[21, 28]",211281,Sc1Ni1
ScGaNi,mp-1219310,0.0,5.20925731,0.0,"{21: 1, 31: 1, 28: 1}","[21, 28, 31]",211281311,Sc1Ga1Ni1
ScGa2Ni,mp-11401,0.0,5.27129321,0.0,"{21: 1, 31: 2, 28: 1}","[21, 28, 31]",211281312,Sc1Ga2Ni1
ScGa5Ni,mp-1025191,0.0,4.74026435,0.0,"{21: 1, 31: 5, 28: 1}","[21, 28, 31]",211281315,Sc1Ga5Ni1
ScNiGe,mp-7066,0.0,6.6789647,0.0,"{21: 1, 28: 1, 32: 1}","[21, 28, 32]",211281321,Sc1Ni1Ge1
ScNiSn,mp-1078355,0.0,7.89163602,0.0,"{21: 1, 28: 1, 50: 1}","[21, 28, 50]",211281501,Sc1Ni1Sn1
ScNiSb,mp-3432,0.2679,7.3709767,0.0,"{21: 1, 28: 1, 51: 1}","[21, 28, 51]",211281511,Sc1Ni1Sb1
ScNiBi,mp-30459,0.1869000000000005,6.80145107,0.0,"{21: 1, 28: 1, 83: 1}","[21, 28, 83]",211281831,Sc1Ni1Bi1
ScNi2,mp-850,0.0,6.85009494,0.0,"{21: 1, 28: 2}","[21, 28]",211282,Sc1Ni2
ScZnNi2,mp-972935,0.0,5.55433423,0.006988724136905766,"{21: 1, 30: 1, 28: 2}","[21, 28, 30]",211282301,Sc1Zn1Ni2
ScGaNi2,mp-11400,0.0,6.35651851,0.0,"{21: 1, 31: 1, 28: 2}","[21, 28, 31]",211282311,Sc1Ga1Ni2
ZrSc(NiSn)2,mp-1215239,0.0,6.61197134,0.017091691666667685,"{40: 1, 21: 1, 28: 2, 50: 2}","[21, 28, 40, 50]",211282401502,Zr1Sc1Ni2Sn2
ScNb(NiSn)2,mp-1219274,0.42459999999999987,7.16946295,0.0,"{21: 1, 41: 1, 28: 2, 50: 2}","[21, 28, 41, 50]",211282411502,Sc1Nb1Ni2Sn2
ScInNi2,mp-21301,0.0,7.81085038,0.0,"{21: 1, 49: 1, 28: 2}","[21, 28, 49]",211282491,Sc1In1Ni2