formula,material_id,band_gap,efermi,energy_above_hull,comp_atoms,sorted_keys_comp_atoms,comp_number,new_formula
Pr2NiIr,mp-975656,0.0,5.02226633,0.08262049187499887,"{59: 2, 28: 1, 77: 1}","[28, 59, 77]",281592771,Pr2Ni1Ir1
Pr3Ni,mp-1106122,0.0,4.08915163,0.0,"{59: 3, 28: 1}","[28, 59]",281593,Pr3Ni1
Pr5NiPb3,mp-641069,0.0,5.16077554,0.01511141133333549,"{59: 5, 28: 1, 82: 3}","[28, 59, 82]",281595823,Pr5Ni1Pb3
NdNi,mp-999339,0.0,5.08380412,0.0,"{60: 1, 28: 1}","[28, 60]",281601,Nd1Ni1
NdNiBi,mp-1206719,0.5118999999999998,5.95675443,0.0,"{60: 1, 28: 1, 83: 1}","[28, 60, 83]",281601831,Nd1Ni1Bi1
Nd2NiIr,mp-864659,0.0,5.01295337,0.07498997500000115,"{60: 2, 28: 1, 77: 1}","[28, 60, 77]",281602771,Nd2Ni1Ir1
Nd3Ni,mp-1188200,0.0,3.84677816,0.0,"{60: 3, 28: 1}","[28, 60]",281603,Nd3Ni1
Nd4Ni,mp-1210201,0.0,3.1479312,0.3540586920000006,"{60: 4, 28: 1}","[28, 60]",281604,Nd4Ni1
Pm2NiIr,mp-863713,0.0,5.00715447,0.0,"{61: 2, 28: 1, 77: 1}","[28, 61, 77]",281612771,Pm2Ni1Ir1
Pm2NiPt,mp-1186482,0.0,4.75970305,0.0,"{61: 2, 28: 1, 78: 1}","[28, 61, 78]",281612781,Pm2Ni1Pt1
SmNi,mp-999145,0.0,4.51065513,0.0,"{62: 1, 28: 1}","[28, 62]",281621,Sm1Ni1
SmNiPb,mp-1209474,0.0,6.37443274,0.6049302740259748,"{62: 1, 28: 1, 82: 1}","[28, 62, 82]",281621821,Sm1Ni1Pb1
SmNiBi,mp-1206682,0.24929999999999986,5.66301287,0.5130654735714311,"{62: 1, 28: 1, 83: 1}","[28, 62, 83]",281621831,Sm1Ni1Bi1
Sm2NiIr,mp-867852,0.0,4.8395923,0.5054974353571424,"{62: 2, 28: 1, 77: 1}","[28, 62, 77]",281622771,Sm2Ni1Ir1
Sm3Ni,mp-1105945,0.0,3.78800493,0.0,"{62: 3, 28: 1}","[28, 62]",281623,Sm3Ni1
Zn53Ni16,mp-581951,0.0,4.01673685,0.0,"{30: 53, 28: 16}","[28, 30]",28163053,Zn53Ni16
Zr6Ni16Ge7,mp-672651,0.0,7.48845914,0.0,"{40: 6, 28: 16, 32: 7}","[28, 32, 40]",2816327406,Zr6Ni16Ge7
Nb6Ni16Ge7,mp-672653,0.0,8.04724234,0.01350603746551915,"{41: 6, 28: 16, 32: 7}","[28, 32, 41]",2816327416,Nb6Ni16Ge7
Hf6Ni16Ge7,mp-580092,0.0,7.87384466,0.0,"{72: 6, 28: 16, 32: 7}","[28, 32, 72]",2816327726,Hf6Ni16Ge7
Ta6Ni16Ge7,mp-582719,0.0,8.2553474,0.001536001606584847,"{73: 6, 28: 16, 32: 7}","[28, 32, 73]",2816327736,Ta6Ni16Ge7
Y5Zr3(Ni4As3)4,mp-1203300,0.0,6.98356499,0.0,"{39: 5, 40: 3, 28: 16, 33: 12}","[28, 33, 39, 40]",28163312395403,Y5Zr3Ni16As12
Pr5Zr3(Ni4As3)4,mp-1196188,0.0,7.08310334,0.0,"{59: 5, 40: 3, 28: 16, 33: 12}","[28, 33, 40, 59]",28163312403595,Pr5Zr3Ni16As12
Nd5Zr3(Ni4As3)4,mp-1202368,0.0,7.00681201,0.0,"{60: 5, 40: 3, 28: 16, 33: 12}","[28, 33, 40, 60]",28163312403605,Nd5Zr3Ni16As12
Sm5Zr3(Ni4As3)4,mp-1200970,0.0,6.72707023,0.4110395773015876,"{62: 5, 40: 3, 28: 16, 33: 12}","[28, 33, 40, 62]",28163312403625,Sm5Zr3Ni16As12
Tb5Zr3(Ni4As3)4,mp-1201911,0.0,6.97178959,0.0,"{65: 5, 40: 3, 28: 16, 33: 12}","[28, 33, 40, 65]",28163312403655,Tb5Zr3Ni16As12
Dy5Zr3(Ni4As3)4,mp-1198172,0.0,7.2174591,0.0,"{66: 5, 40: 3, 28: 16, 33: 12}","[28, 33, 40, 66]",28163312403665,Dy5Zr3Ni16As12
Ho5Zr3(Ni4As3)4,mp-1205128,0.0,7.06112117,0.0,"{67: 5, 40: 3, 28: 16, 33: 12}","[28, 33, 40, 67]",28163312403675,Ho5Zr3Ni16As12
Er5Zr3(Ni4As3)4,mp-569804,0.0,7.11289445,0.0,"{68: 5, 40: 3, 28: 16, 33: 12}","[28, 33, 40, 68]",28163312403685,Er5Zr3Ni16As12
Tm5Zr3(Ni4As3)4,mp-1195749,0.0,7.13262322,0.0,"{69: 5, 40: 3, 28: 16, 33: 12}","[28, 33, 40, 69]",28163312403695,Tm5Zr3Ni16As12
Lu5Zr3(Ni4As3)4,mp-1196994,0.0,7.08538775,0.0,"{71: 5, 40: 3, 28: 16, 33: 12}","[28, 33, 40, 71]",28163312403715,Lu5Zr3Ni16As12
GdNi,mp-542632,0.0,4.41516007,0.0,"{64: 1, 28: 1}","[28, 64]",281641,Gd1Ni1
GdNiPb,mp-1212834,0.0,6.10469884,0.0,"{64: 1, 28: 1, 82: 1}","[28, 64, 82]",281641821,Gd1Ni1Pb1
GdNiBi,mp-567422,0.0,5.06653996,0.0,"{64: 1, 28: 1, 83: 1}","[28, 64, 83]",281641831,Gd1Ni1Bi1
Gd2NiIr,mp-1232425,0.0,4.70167466,0.0,"{64: 2, 28: 1, 77: 1}","[28, 64, 77]",281642771,Gd2Ni1Ir1
TbNi,mp-672240,0.0,4.85488819,0.0,"{65: 1, 28: 1}","[28, 65]",281651,Tb1Ni1
TbNiBi,mp-1206686,0.2301000000000002,6.06942499,0.0,"{65: 1, 28: 1, 83: 1}","[28, 65, 83]",281651831,Tb1Ni1Bi1
Tb2NiIr,mp-1187264,0.0,5.10800632,0.03273292624999069,"{65: 2, 28: 1, 77: 1}","[28, 65, 77]",281652771,Tb2Ni1Ir1
Tb3Ni,mp-623751,0.0,3.90428188,0.0,"{65: 3, 28: 1}","[28, 65]",281653,Tb3Ni1
Tb5NiPb3,mp-640444,0.0,5.22901744,0.0,"{65: 5, 28: 1, 82: 3}","[28, 65, 82]",281655823,Tb5Ni1Pb3
La7Ni16,mp-582055,0.0,8.87572979,0.0,"{57: 7, 28: 16}","[28, 57]",2816577,La7Ni16
DyNi,mp-2738,0.0,4.83623982,0.0,"{66: 1, 28: 1}","[28, 66]",281661,Dy1Ni1
DyNiBi,mp-30452,0.20840000000000014,6.06016806,0.0,"{66: 1, 28: 1, 83: 1}","[28, 66, 83]",281661831,Dy1Ni1Bi1
Dy2NiIr,mp-864886,0.0,5.04521434,0.02530189590277132,"{66: 2, 28: 1, 77: 1}","[28, 66, 77]",281662771,Dy2Ni1Ir1
Dy4Ni,mp-1213233,0.0,3.08798683,0.4285081071666692,"{66: 4, 28: 1}","[28, 66]",281664,Dy4Ni1
Dy5NiPb3,mp-640372,0.0,5.19967051,0.0,"{66: 5, 28: 1, 82: 3}","[28, 66, 82]",281665823,Dy5Ni1Pb3
HoNi,mp-11871,0.0,4.74656506,0.0,"{67: 1, 28: 1}","[28, 67]",281671,Ho1Ni1
HoNiPb,mp-1212092,0.0,6.43858603,0.028500565833331493,"{67: 1, 28: 1, 82: 1}","[28, 67, 82]",281671821,Ho1Ni1Pb1
HoNiBi,mp-1018139,0.1941000000000006,6.09030628,0.0,"{67: 1, 28: 1, 83: 1}","[28, 67, 83]",281671831,Ho1Ni1Bi1
Ho2NiIr,mp-977379,0.0,4.98009604,0.02117195203124922,"{67: 2, 28: 1, 77: 1}","[28, 67, 77]",281672771,Ho2Ni1Ir1
Ho3Ni,mp-1189188,0.0,3.6527351,0.0,"{67: 3, 28: 1}","[28, 67]",281673,Ho3Ni1
Ho4Ni,mp-1212334,0.0,2.9522149,0.4517763740000005,"{67: 4, 28: 1}","[28, 67]",281674,Ho4Ni1
Ho5NiPb3,mp-568340,0.0,5.17599102,0.004598806055556182,"{67: 5, 28: 1, 82: 3}","[28, 67, 82]",281675823,Ho5Ni1Pb3
Ho5NiBi2,mp-1212503,0.0,4.72421082,0.0,"{67: 5, 28: 1, 83: 2}","[28, 67, 83]",281675832,Ho5Ni1Bi2
ErNi,mp-567314,0.0,4.81056313,0.0,"{68: 1, 28: 1}","[28, 68]",281681,Er1Ni1
ErNiPb,mp-1213066,0.0,6.73054678,0.004670636877108336,"{68: 1, 28: 1, 82: 1}","[28, 68, 82]",281681821,Er1Ni1Pb1
ErNiBi,mp-1206712,0.16999999999999993,6.05514116,0.0,"{68: 1, 28: 1, 83: 1}","[28, 68, 83]",281681831,Er1Ni1Bi1
Er2NiOs,mp-867344,0.0,4.61372829,0.047857004125002156,"{68: 2, 28: 1, 76: 1}","[28, 68, 76]",281682761,Er2Ni1Os1
Er2NiIr,mp-862992,0.0,5.06191064,0.016456293750001905,"{68: 2, 28: 1, 77: 1}","[28, 68, 77]",281682771,Er2Ni1Ir1
Er3Ni,mp-1105907,0.0,3.65427075,0.0,"{68: 3, 28: 1}","[28, 68]",281683,Er3Ni1
Er4Ni,mp-1213096,0.0,2.91013816,0.4484308325000015,"{68: 4, 28: 1}","[28, 68]",281684,Er4Ni1
Er5NiPb3,mp-570864,0.0,5.24159002,0.0,"{68: 5, 28: 1, 82: 3}","[28, 68, 82]",281685823,Er5Ni1Pb3
TmNi,mp-11525,0.0,4.70491014,0.0,"{69: 1, 28: 1}","[28, 69]",281691,Tm1Ni1
TmNiPb,mp-1208118,0.0,6.58035725,0.053704012500001674,"{69: 1, 28: 1, 82: 1}","[28, 69, 82]",281691821,Tm1Ni1Pb1
TmNiBi,mp-568269,0.1490999999999998,6.11758858,0.0,"{69: 1, 28: 1, 83: 1}","[28, 69, 83]",281691831,Tm1Ni1Bi1
U11Ni16,mp-567950,0.0,11.68280112,0.0,"{92: 11, 28: 16}","[28, 92]",28169211,U11Ni16
Tm2NiOs,mp-865368,0.0,4.60757414,0.036168254750002404,"{69: 2, 28: 1, 76: 1}","[28, 69, 76]",281692761,Tm2Ni1Os1
Tm2NiIr,mp-865365,0.0,5.00844283,0.010977292656249915,"{69: 2, 28: 1, 77: 1}","[28, 69, 77]",281692771,Tm2Ni1Ir1
Tm2NiPt,mp-1187625,0.0,4.89481779,0.04394956500000191,"{69: 2, 28: 1, 78: 1}","[28, 69, 78]",281692781,Tm2Ni1Pt1
Tm3Ni,mp-1208031,0.0,3.56170352,0.0,"{69: 3, 28: 1}","[28, 69]",281693,Tm3Ni1
Tm4Ni,mp-1209640,0.0,2.82428178,0.4657632889999972,"{69: 4, 28: 1}","[28, 69]",281694,Tm4Ni1
Tm5NiPb3,mp-640391,0.0,5.19941264,0.002718145138890904,"{69: 5, 28: 1, 82: 3}","[28, 69, 82]",281695823,Tm5Ni1Pb3
LuNi,mp-1078899,0.0,4.68115845,0.0,"{71: 1, 28: 1}","[28, 71]",281711,Lu1Ni1
LuNiPb,mp-13074,0.0,6.98152893,0.0,"{71: 1, 28: 1, 82: 1}","[28, 71, 82]",281711821,Lu1Ni1Pb1
LuNiBi,mp-30457,0.012699999999999712,6.14925575,0.0,"{71: 1, 28: 1, 83: 1}","[28, 71, 83]",281711831,Lu1Ni1Bi1
Lu2NiOs,mp-865334,0.0,4.53274345,0.013794996750000621,"{71: 2, 28: 1, 76: 1}","[28, 71, 76]",281712761,Lu2Ni1Os1
Lu2NiIr,mp-865337,0.0,5.03026982,0.0,"{71: 2, 28: 1, 77: 1}","[28, 71, 77]",281712771,Lu2Ni1Ir1
Lu4Ni,mp-1210828,0.0,2.66389917,0.4472839465000007,"{71: 4, 28: 1}","[28, 71]",281714,Lu4Ni1
Lu5NiPb3,mp-568942,0.0,5.30087151,0.0,"{71: 5, 28: 1, 82: 3}","[28, 71, 82]",281715823,Lu5Ni1Pb3
HfNi,mp-1018056,0.0,6.23989528,0.0,"{72: 1, 28: 1}","[28, 72]",281721,Hf1Ni1
HfNiPb,mp-961732,0.0,6.93593608,0.834327926666667,"{72: 1, 28: 1, 82: 1}","[28, 72, 82]",281721821,Hf1Ni1Pb1
Hf2Ni,mp-861,0.0,5.57000881,0.013278753333331395,"{72: 2, 28: 1}","[28, 72]",281722,Hf2Ni1
Hf2ReNi,mp-977544,0.0,5.83599959,0.02522836086206759,"{72: 2, 75: 1, 28: 1}","[28, 72, 75]",281722751,Hf2Re1Ni1
Hf2NiOs,mp-1096420,0.0,-2.97621975,3.946494172499996,"{72: 2, 28: 1, 76: 1}","[28, 72, 76]",281722761,Hf2Ni1Os1
Hf2NiIr,mp-1184611,0.0,6.94771319,0.020964980000000466,"{72: 2, 28: 1, 77: 1}","[28, 72, 77]",281722771,Hf2Ni1Ir1
Hf3Ni,mp-1184570,0.0,5.31543647,0.2956532150000015,"{72: 3, 28: 1}","[28, 72]",281723,Hf3Ni1
Hf6NiBi2,mp-1205957,0.0,6.20172382,0.0,"{72: 6, 28: 1, 83: 2}","[28, 72, 83]",281726832,Hf6Ni1Bi2
Hf9NiW4,mp-1192493,0.0,5.115638,0.0,"{72: 9, 28: 1, 74: 4}","[28, 72, 74]",281729744,Hf9Ni1W4
Hf9Re4Ni,mp-1193183,0.0,5.46193105,0.0,"{72: 9, 75: 4, 28: 1}","[28, 72, 75]",281729754,Hf9Re4Ni1
TaNi,mp-1217954,0.0,6.94940196,0.027389137076927028,"{73: 1, 28: 1}","[28, 73]",281731,Ta1Ni1
Ta2Ni,mp-1867,0.0,6.40373286,0.0,"{73: 2, 28: 1}","[28, 73]",281732,Ta2Ni1
Ni17(GeSe)4,mp-1220298,0.0,7.54155456,0.0,"{28: 17, 32: 4, 34: 4}","[28, 32, 34]",2817324344,Ni17Ge4Se4
Ta2ReNi,mp-1097051,0.0,-3.64671586,4.58153188,"{73: 2, 75: 1, 28: 1}","[28, 73, 75]",281732751,Ta2Re1Ni1
Ta2NiOs,mp-1096428,0.0,-3.35132543,4.528926546388888,"{73: 2, 28: 1, 76: 1}","[28, 73, 76]",281732761,Ta2Ni1Os1
Ta5Ni,mp-1191664,0.0,5.7716029,0.2255782362500014,"{73: 5, 28: 1}","[28, 73]",281735,Ta5Ni1
Y2Ni17,mp-1196175,0.0,6.96171006,0.007135290263158289,"{39: 2, 28: 17}","[28, 39]",2817392,Y2Ni17
Re3Ni,mp-862604,0.0,7.88179602,0.0,"{75: 3, 28: 1}","[28, 75]",281753,Re3Ni1
Nd2Ni17,mp-570596,0.0,6.802162,0.011812816842105889,"{60: 2, 28: 17}","[28, 60]",2817602,Nd2Ni17
Sm2Ni17,mp-1203310,0.0,6.68793191,0.6488032950000022,"{62: 2, 28: 17}","[28, 62]",2817622,Sm2Ni17
Eu2Ni17,mp-1201182,0.0,6.39479033,0.00510862789473876,"{63: 2, 28: 17}","[28, 63]",2817632,Eu2Ni17
Gd2Ni17,mp-580102,0.0,6.67035448,0.007283158157893155,"{64: 2, 28: 17}","[28, 64]",2817642,Gd2Ni17
Tb2Ni17,mp-569945,0.0,6.82287887,0.006023845526315519,"{65: 2, 28: 17}","[28, 65]",2817652,Tb2Ni17
Dy2Ni17,mp-1197654,0.0,6.94882271,0.0071565515789471235,"{66: 2, 28: 17}","[28, 66]",2817662,Dy2Ni17
Ho2Ni17,mp-1202187,0.0,6.83979897,0.00516136736842121,"{67: 2, 28: 17}","[28, 67]",2817672,Ho2Ni17
Er2Ni17,mp-30608,0.0,6.78249881,0.004864439473684534,"{68: 2, 28: 17}","[28, 68]",2817682,Er2Ni17
Tm2Ni17,mp-11527,0.0,6.77896242,0.00445595131578802,"{69: 2, 28: 17}","[28, 69]",2817692,Tm2Ni17
NiIr,mp-1220071,0.0,8.54892633,0.03506355500000069,"{28: 1, 77: 1}","[28, 77]",281771,Ni1Ir1
Lu2Ni17,mp-1202260,0.0,6.84728681,0.004874307631578034,"{71: 2, 28: 17}","[28, 71]",2817712,Lu2Ni17
Ac2NiIr,mp-862849,0.0,7.17864014,0.0,"{89: 2, 28: 1, 77: 1}","[28, 77, 89]",281771892,Ac2Ni1Ir1
NiIr3,mp-1186350,0.0,9.40758561,0.011985112499992567,"{28: 1, 77: 3}","[28, 77]",281773,Ni1Ir3
NiPt,mp-945,0.0,7.56642852,0.0,"{28: 1, 78: 1}","[28, 78]",281781,Ni1Pt1
NiPt3,mp-1186117,0.0,7.47869534,0.0,"{28: 1, 78: 3}","[28, 78]",281783,Ni1Pt3
Th2Ni17,mp-30810,0.0,8.01855437,0.005821127368419887,"{90: 2, 28: 17}","[28, 90]",2817902,Th2Ni17
NiAu3,mp-976806,0.0,5.48464182,0.08884928249999291,"{28: 1, 79: 3}","[28, 79]",281793,Ni1Au3
Pu2Ni17,mp-567327,0.0,8.72153047,0.040976884473684194,"{94: 2, 28: 17}","[28, 94]",2817942,Pu2Ni17
NiHg,mp-1008,0.0,5.29040965,0.21853056749999666,"{28: 1, 80: 1}","[28, 80]",281801,Ni1Hg1
NiHg4,mp-570835,0.0,2.47972197,0.01705295800000073,"{28: 1, 80: 4}","[28, 80]",281804,Ni1Hg4
TlNi,mp-11524,0.0,7.0164618,0.22804129333333378,"{81: 1, 28: 1}","[28, 81]",281811,Tl1Ni1
NiPb,mp-569446,0.0,7.99473913,0.0873680799999974,"{28: 1, 82: 1}","[28, 82]",281821,Ni1Pb1
NiBi,mp-999318,0.0,7.6428208,0.0,"{28: 1, 83: 1}","[28, 83]",281831,Ni1Bi1
NiBi3,mp-23179,0.0,6.68867037,0.0,"{28: 1, 83: 3}","[28, 83]",281833,Ni1Bi3
Ta19(Ni9Mo)2,mp-1217865,0.0,6.81237018,0.010175605948717248,"{73: 19, 28: 18, 42: 2}","[28, 42, 73]",28184227319,Ta19Ni18Mo2
ThNi,mp-623836,0.0,7.82087147,0.0,"{90: 1, 28: 1}","[28, 90]",281901,Th1Ni1
Th3Ni,mp-978965,0.0,7.64594255,0.4122592075000018,"{90: 3, 28: 1}","[28, 90]",281903,Th3Ni1
PaNi,mp-1186405,0.0,10.29525382,0.18167562249999492,"{91: 1, 28: 1}","[28, 91]",281911,Pa1Ni1
U6Ni,mp-636821,0.0,14.01070125,0.045752358526790715,"{92: 6, 28: 1}","[28, 92]",281926,U6Ni1
Ni19Ge12,mp-30082,0.0,8.38343179,0.00015263649193464346,"{28: 19, 32: 12}","[28, 32]",28193212,Ni19Ge12
Ni19Se20,mp-685124,0.0,6.60804933,0.04252002880341621,"{28: 19, 34: 20}","[28, 34]",28193420,Ni19Se20
PuNi,mp-12751,0.0,10.31393994,0.1848722306944488,"{94: 1, 28: 1}","[28, 94]",281941,Pu1Ni1
Pu4Ni,mp-1210171,0.0,9.72226884,0.8743637940277882,"{94: 4, 28: 1}","[28, 94]",281944,Pu4Ni1
Tb20In40Ni19,mp-1218321,0.0,7.22098426,0.008809396371313838,"{65: 20, 49: 40, 28: 19}","[28, 49, 65]",281949406520,Tb20In40Ni19
Pr5Ni19,mp-1199510,0.0,6.35349499,0.0,"{59: 5, 28: 19}","[28, 59]",2819595,Pr5Ni19
Nd5Ni19,mp-1192051,0.0,6.40485223,0.0,"{60: 5, 28: 19}","[28, 60]",2819605,Nd5Ni19
La6Ni20As13,mp-1212204,0.0,8.47144554,0.006322179583338361,"{57: 6, 28: 20, 33: 13}","[28, 33, 57]",28203313576,La6Ni20As13
Ce6Ni20As13,mp-1214373,0.0,8.26199422,0.0,"{58: 6, 28: 20, 33: 13}","[28, 33, 58]",28203313586,Ce6Ni20As13
Sm6Ni20As13,mp-1209077,0.0,6.90372622,0.0,"{62: 6, 28: 20, 33: 13}","[28, 33, 62]",28203313626,Sm6Ni20As13
Er6Ni20As13,mp-1213480,0.0,7.2487054,0.0,"{68: 6, 28: 20, 33: 13}","[28, 33, 68]",28203313686,Er6Ni20As13
Zr8Ni21,mp-30260,0.0,6.66624457,0.023987554051720927,"{40: 8, 28: 21}","[28, 40]",2821408,Zr8Ni21
Hf8Ni21,mp-27165,0.0,6.99451233,0.04098809458620778,"{72: 8, 28: 21}","[28, 72]",2821728,Hf8Ni21
ZnCuNi2,mp-971738,0.0,5.9050101,0.007258229999999699,"{30: 1, 29: 1, 28: 2}","[28, 29, 30]",282291301,Zn1Cu1Ni2
GaCuNi2,mp-1184005,0.0,6.93791732,0.008674284375000951,"{31: 1, 29: 1, 28: 2}","[28, 29, 31]",282291311,Ga1Cu1Ni2
CuNi2Ge,mp-1096594,0.0,-3.34279333,2.2771480340625008,"{29: 1, 28: 2, 32: 1}","[28, 29, 32]",282291321,Cu1Ni2Ge1
InCuNi2,mp-1095966,0.0,-3.56942938,2.1654909150000012,"{49: 1, 29: 1, 28: 2}","[28, 29, 49]",282291491,In1Cu1Ni2
CuNi2Sn,mp-30592,0.0,9.14167497,0.03483389854166674,"{29: 1, 28: 2, 50: 1}","[28, 29, 50]",282291501,Cu1Ni2Sn1
CuNi2Sb,mp-30069,0.0,10.07701749,0.052997280833332994,"{29: 1, 28: 2, 51: 1}","[28, 29, 51]",282291511,Cu1Ni2Sb1
LaCu3Ni2,mp-1222942,0.0,7.86916858,0.0,"{57: 1, 29: 3, 28: 2}","[28, 29, 57]",282293571,La1Cu3Ni2
Zn11Ni2,mp-11532,0.0,4.20391891,0.0,"{30: 11, 28: 2}","[28, 30]",2823011,Zn11Ni2
ZnGaNi2,mp-1187935,0.0,6.08413397,0.0,"{30: 1, 31: 1, 28: 2}","[28, 30, 31]",282301311,Zn1Ga1Ni2
ZnNi2Ge,mp-16358,0.0,7.78062571,0.04309003812500034,"{30: 1, 28: 2, 32: 1}","[28, 30, 32]",282301321,Zn1Ni2Ge1
ZrZnNi2,mp-1100781,0.0,5.48411538,0.009448021250000771,"{40: 1, 30: 1, 28: 2}","[28, 30, 40]",282301401,Zr1Zn1Ni2
NbZnNi2,mp-1095804,0.0,-2.85873965,2.856157665833335,"{41: 1, 30: 1, 28: 2}","[28, 30, 41]",282301411,Nb1Zn1Ni2
LaZnNi2,mp-1212250,0.0,7.84504933,0.030884820507246502,"{57: 1, 30: 1, 28: 2}","[28, 30, 57]",282301571,La1Zn1Ni2
La2ZnNi2,mp-13532,0.0,7.88632031,0.00717628366666645,"{57: 2, 30: 1, 28: 2}","[28, 30, 57]",282301572,La2Zn1Ni2
La7ZnNi2,mp-1189728,0.0,7.66885639,0.0,"{57: 7, 30: 1, 28: 2}","[28, 30, 57]",282301577,La7Zn1Ni2
CeZnNi2,mp-1193027,0.0,7.02350515,0.0343739736111095,"{58: 1, 30: 1, 28: 2}","[28, 30, 58]",282301581,Ce1Zn1Ni2
Ce2ZnNi2,mp-574021,0.0,7.57100307,0.011978185666666086,"{58: 2, 30: 1, 28: 2}","[28, 30, 58]",282301582,Ce2Zn1Ni2
Tb2ZnNi2,mp-13535,0.0,4.83690485,0.0,"{65: 2, 30: 1, 28: 2}","[28, 30, 65]",282301652,Tb2Zn1Ni2
HfZnNi2,mp-864807,0.0,5.94399523,0.0,"{72: 1, 30: 1, 28: 2}","[28, 30, 72]",282301721,Hf1Zn1Ni2
TaZnNi2,mp-1097078,0.2450000000000001,-2.64882183,2.9802899518844344,"{73: 1, 30: 1, 28: 2}","[28, 30, 73]",282301731,Ta1Zn1Ni2
PaZnNi2,mp-1186422,0.0,8.68476323,0.03237206708333318,"{91: 1, 30: 1, 28: 2}","[28, 30, 91]",282301911,Pa1Zn1Ni2
Zr(Zn10Ni)2,mp-1195444,0.0,3.46785137,0.0,"{40: 1, 30: 20, 28: 2}","[28, 30, 40]",2823020401,Zr1Zn20Ni2
Zn3Ni2Ge,mp-16227,0.0,5.6690475,0.0018794742117118624,"{30: 3, 28: 2, 32: 1}","[28, 30, 32]",282303321,Zn3Ni2Ge1
LaZn3Ni2,mp-1222765,0.0,5.97692796,0.0,"{57: 1, 30: 3, 28: 2}","[28, 30, 57]",282303571,La1Zn3Ni2
GaNi2,mp-570904,0.0,6.66577232,0.0321389691666667,"{31: 1, 28: 2}","[28, 31]",282311,Ga1Ni2
GaNi2Ge3,mp-1224885,0.0,7.24191657,0.020133470277778898,"{31: 1, 28: 2, 32: 3}","[28, 31, 32]",282311323,Ga1Ni2Ge3
Y2GaNi2,mp-1070755,0.0,4.80041388,0.0,"{39: 2, 31: 1, 28: 2}","[28, 31, 39]",282311392,Y2Ga1Ni2
ZrGaNi2,mp-22580,0.0,6.0933038,0.016642819502688866,"{40: 1, 31: 1, 28: 2}","[28, 31, 40]",282311401,Zr1Ga1Ni2
NbGaNi2,mp-3539,0.0,6.43227344,0.011909727114487012,"{41: 1, 31: 1, 28: 2}","[28, 31, 41]",282311411,Nb1Ga1Ni2
Pr2GaNi2,mp-1207239,0.0,5.12959629,0.0,"{59: 2, 31: 1, 28: 2}","[28, 31, 59]",282311592,Pr2Ga1Ni2
Nd2GaNi2,mp-1206785,0.0,4.95653614,0.0,"{60: 2, 31: 1, 28: 2}","[28, 31, 60]",282311602,Nd2Ga1Ni2
Sm2GaNi2,mp-1206871,0.0,4.75823823,0.0,"{62: 2, 31: 1, 28: 2}","[28, 31, 62]",282311622,Sm2Ga1Ni2
Tb2GaNi2,mp-1207034,0.0,5.00262916,0.0,"{65: 2, 31: 1, 28: 2}","[28, 31, 65]",282311652,Tb2Ga1Ni2
Tb6GaNi2,mp-1188114,0.0,3.96382788,0.009070189166665799,"{65: 6, 31: 1, 28: 2}","[28, 31, 65]",282311656,Tb6Ga1Ni2
Dy2GaNi2,mp-1206933,0.0,4.78568822,0.0,"{66: 2, 31: 1, 28: 2}","[28, 31, 66]",282311662,Dy2Ga1Ni2
Dy6GaNi2,mp-1189487,0.0,4.02846263,0.0,"{66: 6, 31: 1, 28: 2}","[28, 31, 66]",282311666,Dy6Ga1Ni2
Ho2GaNi2,mp-1207237,0.0,4.78329723,0.0,"{67: 2, 31: 1, 28: 2}","[28, 31, 67]",282311672,Ho2Ga1Ni2
Ho6GaNi2,mp-1189374,0.0,3.91279016,0.0030814416666675726,"{67: 6, 31: 1, 28: 2}","[28, 31, 67]",282311676,Ho6Ga1Ni2
Er2GaNi2,mp-1207042,0.0,4.85586462,0.0,"{68: 2, 31: 1, 28: 2}","[28, 31, 68]",282311682,Er2Ga1Ni2
Er6GaNi2,mp-1189112,0.0,3.8848984,0.0004599181249993478,"{68: 6, 31: 1, 28: 2}","[28, 31, 68]",282311686,Er6Ga1Ni2
TmGaNi2,mp-1187602,0.0,5.60498725,0.11014197614583487,"{69: 1, 31: 1, 28: 2}","[28, 31, 69]",282311691,Tm1Ga1Ni2
Tm2GaNi2,mp-1207025,0.0,4.71196556,0.0,"{69: 2, 31: 1, 28: 2}","[28, 31, 69]",282311692,Tm2Ga1Ni2
Tm6GaNi2,mp-1188961,0.0,3.72386889,0.0,"{69: 6, 31: 1, 28: 2}","[28, 31, 69]",282311696,Tm6Ga1Ni2
LuGaNi2,mp-1210999,0.0,5.61553393,0.0,"{71: 1, 31: 1, 28: 2}","[28, 31, 71]",282311711,Lu1Ga1Ni2
Lu6GaNi2,mp-1105906,0.0,3.71625335,0.0,"{71: 6, 31: 1, 28: 2}","[28, 31, 71]",282311716,Lu6Ga1Ni2
HfGaNi2,mp-3498,0.0,6.44091187,0.008806291032259495,"{72: 1, 31: 1, 28: 2}","[28, 31, 72]",282311721,Hf1Ga1Ni2
TaGaNi2,mp-21175,0.0,6.77216023,0.0024405581048370095,"{73: 1, 31: 1, 28: 2}","[28, 31, 73]",282311731,Ta1Ga1Ni2
Nd4Ga17Ni2,mp-1220632,0.0,4.35897542,0.09457655395652065,"{60: 4, 31: 17, 28: 2}","[28, 31, 60]",2823117604,Nd4Ga17Ni2
GaNi2Pt,mp-1224791,0.0,6.98750453,0.0,"{31: 1, 28: 2, 78: 1}","[28, 31, 78]",282311781,Ga1Ni2Pt1
PaGaNi2,mp-861977,0.0,8.62099452,0.012214362499996412,"{91: 1, 31: 1, 28: 2}","[28, 31, 91]",282311911,Pa1Ga1Ni2
La3(GaNi)2,mp-21529,0.0,7.49055295,0.0,"{57: 3, 31: 2, 28: 2}","[28, 31, 57]",282312573,La3Ga2Ni2
Ce(GaNi)2,mp-1206862,0.0,6.25462209,0.04761243649999969,"{58: 1, 31: 2, 28: 2}","[28, 31, 58]",282312581,Ce1Ga2Ni2
Ce3(GaNi)2,mp-1194147,0.0,7.22088319,0.045671701190474145,"{58: 3, 31: 2, 28: 2}","[28, 31, 58]",282312583,Ce3Ga2Ni2
Pr3(GaNi)2,mp-1193804,0.0,4.50587305,0.004004786428569496,"{59: 3, 31: 2, 28: 2}","[28, 31, 59]",282312593,Pr3Ga2Ni2
Ga3Ni2,mp-11397,0.0,5.98296901,0.0,"{31: 3, 28: 2}","[28, 31]",282313,Ga3Ni2
YGa3Ni2,mp-1188481,0.0,5.10826122,0.09433823956348864,"{39: 1, 31: 3, 28: 2}","[28, 31, 39]",282313391,Y1Ga3Ni2
EuGa3Ni2,mp-1102481,0.0,4.69177564,0.0,"{63: 1, 31: 3, 28: 2}","[28, 31, 63]",282313631,Eu1Ga3Ni2