formula,material_id,band_gap,efermi,energy_above_hull,comp_atoms,sorted_keys_comp_atoms,comp_number,new_formula
Tb2Si5Ni3,mp-15204,0.0,8.06672013,0.0,"{65: 2, 14: 5, 28: 3}","[14, 28, 65]",145283652,Tb2Si5Ni3
Dy2Si5Ni3,mp-15205,0.0,8.07977941,0.006176872750002005,"{66: 2, 14: 5, 28: 3}","[14, 28, 66]",145283662,Dy2Si5Ni3
Ho2Si5Ni3,mp-15206,0.0,8.06526376,0.006652810250002972,"{67: 2, 14: 5, 28: 3}","[14, 28, 67]",145283672,Ho2Si5Ni3
Er2Si5Ni3,mp-1188596,0.0,8.08041922,0.008333664500002058,"{68: 2, 14: 5, 28: 3}","[14, 28, 68]",145283682,Er2Si5Ni3
Tm2Si5Ni3,mp-1189601,0.0,8.09110909,0.00995602750000213,"{69: 2, 14: 5, 28: 3}","[14, 28, 69]",145283692,Tm2Si5Ni3
Lu2Si5Ni3,mp-1105977,0.0,8.11754267,0.011899270750001634,"{71: 2, 14: 5, 28: 3}","[14, 28, 71]",145283712,Lu2Si5Ni3
NiH4C2(S2N)2,mp-1202956,1.3208000000000002,3.16563297,0.08487098668144633,"{28: 1, 1: 4, 6: 2, 16: 4, 7: 2}","[1, 6, 7, 16, 28]",146272164281,Ni1H4C2S4N2
Si6NiMo9,mp-1219304,0.0,9.62182675,0.028150637712055726,"{14: 6, 28: 1, 42: 9}","[14, 28, 42]",146281429,Si6Ni1Mo9
Si6Ni3Au,mp-1078240,0.0,9.23477223,0.0,"{14: 6, 28: 3, 79: 1}","[14, 28, 79]",146283791,Si6Ni3Au1
U2(Si2Ni)3,mp-1207979,0.0,10.46912439,0.0,"{92: 2, 14: 6, 28: 3}","[14, 28, 92]",146283922,U2Si6Ni3
Sc4Si7Ni,mp-1219409,0.0,7.23581642,0.20347414250000107,"{21: 4, 14: 7, 28: 1}","[14, 21, 28]",147214281,Sc4Si7Ni1
Sc4Si7Ni12,mp-567443,0.0,8.44006987,0.03944273336956705,"{21: 4, 14: 7, 28: 12}","[14, 21, 28]",1472142812,Sc4Si7Ni12
Sc6Si7Ni16,mp-5382,0.0,8.10710714,0.0,"{21: 6, 14: 7, 28: 16}","[14, 21, 28]",1472162816,Sc6Si7Ni16
Ti4Si7Ni4,mp-18583,0.0,9.30216964,0.0,"{22: 4, 14: 7, 28: 4}","[14, 22, 28]",147224284,Ti4Si7Ni4
Ti6Si7Ni16,mp-3337,0.0,8.79196502,0.0,"{22: 6, 14: 7, 28: 16}","[14, 22, 28]",1472262816,Ti6Si7Ni16
Ni(H2N)2,mp-28686,1.1221999999999999,1.3413508,0.024373755396825736,"{28: 1, 1: 4, 7: 2}","[1, 7, 28]",1472281,Ni1H4N2
V6Si7Ni16,mp-636953,0.0,8.77187202,0.012681357327577913,"{23: 6, 14: 7, 28: 16}","[14, 23, 28]",1472362816,V6Si7Ni16
Mn3Cr3Si7Ni16,mp-1221908,0.0,8.28031421,0.0410383777298815,"{25: 3, 24: 3, 14: 7, 28: 16}","[14, 24, 25, 28]",1472432532816,Mn3Cr3Si7Ni16
Cr6Si7Ni16,mp-541940,0.0,8.46154316,0.07829247683908136,"{24: 6, 14: 7, 28: 16}","[14, 24, 28]",1472462816,Cr6Si7Ni16
Mn6Si7Ni16,mp-22290,0.0,8.30192291,0.0,"{25: 6, 14: 7, 28: 16}","[14, 25, 28]",1472562816,Mn6Si7Ni16
Y6Si7Ni16,mp-1207874,0.0,7.49033998,0.01506844706897148,"{39: 6, 14: 7, 28: 16}","[14, 28, 39]",1472816396,Y6Si7Ni16
Zr6Si7Ni16,mp-570166,0.0,8.06516894,0.0,"{40: 6, 14: 7, 28: 16}","[14, 28, 40]",1472816406,Zr6Si7Ni16
Nb6Si7Ni16,mp-3640,0.0,8.59809582,0.0,"{41: 6, 14: 7, 28: 16}","[14, 28, 41]",1472816416,Nb6Si7Ni16
Hf6Si7Ni16,mp-580744,0.0,8.40297004,0.0,"{72: 6, 14: 7, 28: 16}","[14, 28, 72]",1472816726,Hf6Si7Ni16
Ta6Si7Ni16,mp-4502,0.0,8.97037165,0.0,"{73: 6, 14: 7, 28: 16}","[14, 28, 73]",1472816736,Ta6Si7Ni16
Nd15Si7Ni2,mp-1221118,0.0,4.57820618,0.0096664020160242,"{60: 15, 14: 7, 28: 2}","[14, 28, 60]",1472826015,Nd15Si7Ni2
U2Si7Ni2,mp-1216948,0.0,10.68258919,0.16180311272728165,"{92: 2, 14: 7, 28: 2}","[14, 28, 92]",147282922,U2Si7Ni2
Zr2Si7Ni3,mp-1215654,0.0,8.48594037,0.19813857687500036,"{40: 2, 14: 7, 28: 3}","[14, 28, 40]",147283402,Zr2Si7Ni3
La3Si7Ni3,mp-1223126,0.0,9.22529762,0.01454606423076843,"{57: 3, 14: 7, 28: 3}","[14, 28, 57]",147283573,La3Si7Ni3
Nb4Si7Ni4,mp-1193423,0.0,9.11145426,0.0,"{41: 4, 14: 7, 28: 4}","[14, 28, 41]",147284414,Nb4Si7Ni4
Hf4Si7Ni4,mp-1194182,0.0,8.8208776,0.013814591733336101,"{72: 4, 14: 7, 28: 4}","[14, 28, 72]",147284724,Hf4Si7Ni4
Si7(Ni2Au)2,mp-1103787,0.0,8.85989885,0.0,"{14: 7, 28: 4, 79: 2}","[14, 28, 79]",147284792,Si7Ni4Au2
NiH4(NO4)2,mp-1193552,3.2376,-0.59047424,0.0,"{28: 1, 1: 4, 7: 2, 8: 8}","[1, 7, 8, 28]",147288281,Ni1H4N2O8
NiP6H4(N2O9)2,mp-1211379,0.0484,0.0639645,0.8866537935858432,"{28: 1, 15: 6, 1: 4, 7: 4, 8: 18}","[1, 7, 8, 15, 28]",1474818156281,Ni1P6H4N4O18
Na2NiH4(SeO5)2,mp-1189952,3.1791,3.31908683,0.0,"{11: 2, 28: 1, 1: 4, 34: 2, 8: 10}","[1, 8, 11, 28, 34]",14810112281342,Na2Ni1H4Se2O10
SrNi2P2(H2O5)2,mp-863262,3.4774000000000003,2.74387715,0.006703066622808507,"{38: 1, 28: 2, 15: 2, 1: 4, 8: 10}","[1, 8, 15, 28, 38]",14810152282381,Sr1Ni2P2H4O10
KAl2NiP3(H2O7)2,mp-720723,4.3218,1.32535563,0.002222197566675632,"{19: 1, 13: 2, 28: 1, 15: 3, 1: 4, 8: 14}","[1, 8, 13, 15, 19, 28]",14814132153191281,K1Al2Ni1P3H4O14
KGa2NiP3(H2O7)2,mp-1197280,4.1711,0.55588961,0.0,"{19: 1, 31: 2, 28: 1, 15: 3, 1: 4, 8: 14}","[1, 8, 15, 19, 28, 31]",14814153191281312,K1Ga2Ni1P3H4O14
Fe2Ni3H4(Se3O10)2,mp-1212753,2.0918,1.29845321,0.0,"{26: 2, 28: 3, 1: 4, 34: 6, 8: 20}","[1, 8, 26, 28, 34]",14820262283346,Fe2Ni3H4Se6O20
Ce3(Si4Ni)2,mp-504613,0.0,9.32042185,0.04418826576923074,"{58: 3, 14: 8, 28: 2}","[14, 28, 58]",148282583,Ce3Si8Ni2
NiPH4ClO3,mp-728203,3.9714,0.28161494,0.12578093993233885,"{28: 1, 15: 1, 1: 4, 17: 1, 8: 3}","[1, 8, 15, 17, 28]",1483151171281,Ni1P1H4Cl1O3
NiH4SeO5,mp-24544,3.5547999999999997,0.88755606,0.0055404657575790495,"{28: 1, 1: 4, 34: 1, 8: 5}","[1, 8, 28, 34]",1485281341,Ni1H4Se1O5
NiH48C16S8(NO7)2,mp-729907,3.3798,-0.40585282,0.34131807365503075,"{28: 1, 1: 48, 6: 16, 16: 8, 7: 2, 8: 14}","[1, 6, 7, 8, 16, 28]",14861672814168281,Ni1H48C16S8N2O14
NiH48C18S6(N7O3)2,mp-1199814,2.7413,-0.39881428,0.2599787134973104,"{28: 1, 1: 48, 6: 18, 16: 6, 7: 14, 8: 6}","[1, 6, 7, 8, 16, 28]",14861871486166281,Ni1H48C18S6N14O6
NaNiH4SO6F,mp-1194067,4.6315,4.91192126,0.0,"{11: 1, 28: 1, 1: 4, 16: 1, 8: 6, 9: 1}","[1, 8, 9, 11, 16, 28]",148691111161281,Na1Ni1H4S1O6F1
Na2V2NiH4(OF)6,mp-1198199,2.7460999999999998,-0.55489495,0.011983701666670399,"{11: 2, 23: 2, 28: 1, 1: 4, 8: 6, 9: 6}","[1, 8, 9, 11, 23, 28]",148696112232281,Na2V2Ni1H4O6F6
Ni3P4H48(NO15)2,mp-1203628,5.0466999999999995,-1.05125352,0.04890157814176277,"{28: 3, 15: 4, 1: 48, 7: 2, 8: 30}","[1, 7, 8, 15, 28]",14872830154283,Ni3P4H48N2O30
V2Ni(HO2)4,mp-542027,0.8917999999999999,0.34693651,0.010475406000001186,"{23: 2, 28: 1, 1: 4, 8: 8}","[1, 8, 23, 28]",1488232281,V2Ni1H4O8
NiH4(IO4)2,mp-540624,2.5950999999999995,0.99838135,0.004365450000001658,"{28: 1, 1: 4, 53: 2, 8: 8}","[1, 8, 28, 53]",1488281532,Ni1H4I2O8
V3NiH48(SO10)4,mp-1217614,2.0718,3.29781039,0.03047596989584367,"{23: 3, 28: 1, 1: 48, 16: 4, 8: 40}","[1, 8, 16, 23, 28]",148840164233281,V3Ni1H48S4O40
Si2Ni3H4O9,mp-1105877,3.2016000000000004,2.31229661,0.0,"{14: 2, 28: 3, 1: 4, 8: 9}","[1, 8, 14, 28]",1489142283,Si2Ni3H4O9
Ce2Si9Ni17,mp-1227027,0.0,9.4180699,0.018004655558035765,"{58: 2, 14: 9, 28: 17}","[14, 28, 58]",1492817582,Ce2Si9Ni17
Si9Ni25,mp-1209041,0.0,9.33709681,0.011552343970588907,"{14: 9, 28: 25}","[14, 28]",1492825,Si9Ni25
Sm4Si9Ni7,mp-1219171,0.0,7.47874073,0.20805325024999988,"{62: 4, 14: 9, 28: 7}","[14, 28, 62]",149287624,Sm4Si9Ni7
Ce8Ni18P11,mp-571125,0.0,9.12400888,0.0,"{58: 8, 28: 18, 15: 11}","[15, 28, 58]",15112818588,Ce8Ni18P11
Pr8Ni18P11,mp-1211698,0.0,7.25299364,0.0,"{59: 8, 28: 18, 15: 11}","[15, 28, 59]",15112818598,Pr8Ni18P11
Nd8Ni18P11,mp-1212241,0.0,7.15771429,0.0,"{60: 8, 28: 18, 15: 11}","[15, 28, 60]",15112818608,Nd8Ni18P11
Sm8Ni18P11,mp-1210497,0.0,7.23294161,0.3870471370463271,"{62: 8, 28: 18, 15: 11}","[15, 28, 62]",15112818628,Sm8Ni18P11
Eu8Ni18P11,mp-1213676,0.0,6.5917026,0.007627963108107316,"{63: 8, 28: 18, 15: 11}","[15, 28, 63]",15112818638,Eu8Ni18P11
Tb8Ni18P11,mp-568617,0.0,7.42391121,0.0,"{65: 8, 28: 18, 15: 11}","[15, 28, 65]",15112818658,Tb8Ni18P11
Dy8Ni18P11,mp-1213609,0.0,7.43904758,0.0,"{66: 8, 28: 18, 15: 11}","[15, 28, 66]",15112818668,Dy8Ni18P11
Er8Ni18P11,mp-1213636,0.0,7.49902558,0.0,"{68: 8, 28: 18, 15: 11}","[15, 28, 68]",15112818688,Er8Ni18P11
NiPS,mp-505820,0.0,8.18964877,0.0,"{28: 1, 15: 1, 16: 1}","[15, 16, 28]",151161281,Ni1P1S1
NiPS3,mp-676040,0.0,4.92074218,0.051332499779999985,"{28: 1, 15: 1, 16: 3}","[15, 16, 28]",151163281,Ni1P1S3
KNiPS4,mp-662530,0.5294000000000003,1.91493644,0.0,"{19: 1, 28: 1, 15: 1, 16: 4}","[15, 16, 19, 28]",151164191281,K1Ni1P1S4
ScNiP,mp-10240,0.0,8.16308964,0.0,"{21: 1, 28: 1, 15: 1}","[15, 21, 28]",151211281,Sc1Ni1P1
TiNiP,mp-1102188,0.0,9.51456789,0.0,"{22: 1, 28: 1, 15: 1}","[15, 22, 28]",151221281,Ti1Ni1P1
Ni15Mo17P12,mp-1220216,0.0,9.76951849,0.018300636136363124,"{28: 15, 42: 17, 15: 12}","[15, 28, 42]",151228154217,Ni15Mo17P12
Ho5Ni19P12,mp-16375,0.0,8.4512847,0.004345824531272413,"{67: 5, 28: 19, 15: 12}","[15, 28, 67]",15122819675,Ho5Ni19P12
Ce9(Ni13P6)2,mp-649704,0.0,8.88762485,0.028436772284014644,"{58: 9, 28: 26, 15: 12}","[15, 28, 58]",15122826589,Ce9Ni26P12
Pr9(Ni13P6)2,mp-1210265,0.0,7.3492406,0.02743494845503225,"{59: 9, 28: 26, 15: 12}","[15, 28, 59]",15122826599,Pr9Ni26P12
Nd9(Ni13P6)2,mp-1210437,0.0,7.30050516,0.026705208690358972,"{60: 9, 28: 26, 15: 12}","[15, 28, 60]",15122826609,Nd9Ni26P12
Sm9(Ni13P6)2,mp-1209514,0.0,7.10416077,0.5476553018946255,"{62: 9, 28: 26, 15: 12}","[15, 28, 62]",15122826629,Sm9Ni26P12
Eu9(Ni13P6)2,mp-1213589,0.0,6.91168723,0.025372378617017688,"{63: 9, 28: 26, 15: 12}","[15, 28, 63]",15122826639,Eu9Ni26P12
VNiP,mp-1103470,0.0,9.66671879,0.0,"{23: 1, 28: 1, 15: 1}","[15, 23, 28]",151231281,V1Ni1P1
V2NiP,mp-1216521,0.0,8.81131915,0.2221940959375006,"{23: 2, 28: 1, 15: 1}","[15, 23, 28]",151232281,V2Ni1P1
CrNiP,mp-1101790,0.0,9.3900683,0.0,"{24: 1, 28: 1, 15: 1}","[15, 24, 28]",151241281,Cr1Ni1P1
MnNiP,mp-1102690,0.0,9.52120059,0.0,"{25: 1, 28: 1, 15: 1}","[15, 25, 28]",151251281,Mn1Ni1P1
FeNiP,mp-1080653,0.0,9.42369652,0.015153214771239654,"{26: 1, 28: 1, 15: 1}","[15, 26, 28]",151261281,Fe1Ni1P1
Fe2NiP,mp-571370,0.0,8.36372322,0.0,"{26: 2, 28: 1, 15: 1}","[15, 26, 28]",151262281,Fe2Ni1P1
CoNiP,mp-1226037,0.0,9.03434782,0.0,"{27: 1, 28: 1, 15: 1}","[15, 27, 28]",151271281,Co1Ni1P1
NiP,mp-27844,0.0,8.82718985,0.01609372979166679,"{28: 1, 15: 1}","[15, 28]",151281,Ni1P1
NiPSe3,mp-1079754,0.0,4.46054704,0.05372164899999987,"{28: 1, 15: 1, 34: 3}","[15, 28, 34]",151281343,Ni1P1Se3
YNiP,mp-1102854,0.0,6.67267884,0.0,"{39: 1, 28: 1, 15: 1}","[15, 28, 39]",151281391,Y1Ni1P1
ZrNiP,mp-21204,0.0,7.41239338,0.5009895152564141,"{40: 1, 28: 1, 15: 1}","[15, 28, 40]",151281401,Zr1Ni1P1
Zr2NiP,mp-29153,0.0,6.34496102,0.0,"{40: 2, 28: 1, 15: 1}","[15, 28, 40]",151281402,Zr2Ni1P1
Zr4NiP,mp-1103567,0.0,5.58639095,0.07420321125000129,"{40: 4, 28: 1, 15: 1}","[15, 28, 40]",151281404,Zr4Ni1P1
NbNiP,mp-20932,0.0,9.10611594,0.0,"{41: 1, 28: 1, 15: 1}","[15, 28, 41]",151281411,Nb1Ni1P1
Nb4NiP,mp-1103609,0.0,6.55176033,0.05789852119444738,"{41: 4, 28: 1, 15: 1}","[15, 28, 41]",151281414,Nb4Ni1P1
NiMoP,mp-7632,0.0,10.34358763,0.0,"{28: 1, 42: 1, 15: 1}","[15, 28, 42]",151281421,Ni1Mo1P1
NiMo2P,mp-1209867,0.0,9.76545079,0.022116724583334246,"{28: 1, 42: 2, 15: 1}","[15, 28, 42]",151281422,Ni1Mo2P1
NiPRh,mp-1018823,0.0,9.39988985,0.0,"{28: 1, 15: 1, 45: 1}","[15, 28, 45]",151281451,Ni1P1Rh1
NiPPd,mp-1087499,0.0,8.61427296,0.02257378071428562,"{28: 1, 15: 1, 46: 1}","[15, 28, 46]",151281461,Ni1P1Pd1
CdNiP,mp-631410,0.0,4.40879846,0.8657665468055562,"{48: 1, 28: 1, 15: 1}","[15, 28, 48]",151281481,Cd1Ni1P1
CsNiP,mp-1228875,0.0,1.64752778,0.381525160004788,"{55: 1, 28: 1, 15: 1}","[15, 28, 55]",151281551,Cs1Ni1P1
LaNiP,mp-1102069,0.0,9.14637269,0.0,"{57: 1, 28: 1, 15: 1}","[15, 28, 57]",151281571,La1Ni1P1
CeNiP,mp-1103629,0.0,8.65619249,0.0,"{58: 1, 28: 1, 15: 1}","[15, 28, 58]",151281581,Ce1Ni1P1
PrNiP,mp-1102807,0.0,6.52008472,0.0,"{59: 1, 28: 1, 15: 1}","[15, 28, 59]",151281591,Pr1Ni1P1
NdNiP,mp-1102901,0.0,6.38755017,0.0,"{60: 1, 28: 1, 15: 1}","[15, 28, 60]",151281601,Nd1Ni1P1
SmNiP,mp-1102777,0.0,6.34615116,0.0,"{62: 1, 28: 1, 15: 1}","[15, 28, 62]",151281621,Sm1Ni1P1
EuNiP,mp-1206697,0.0,5.70801664,0.0,"{63: 1, 28: 1, 15: 1}","[15, 28, 63]",151281631,Eu1Ni1P1
TbNiP,mp-1208320,0.0,6.41398963,0.0,"{65: 1, 28: 1, 15: 1}","[15, 28, 65]",151281651,Tb1Ni1P1
DyNiP,mp-1102152,0.0,6.67482802,0.0,"{66: 1, 28: 1, 15: 1}","[15, 28, 66]",151281661,Dy1Ni1P1
ErNiP,mp-1103423,0.0,6.68659159,0.0,"{68: 1, 28: 1, 15: 1}","[15, 28, 68]",151281681,Er1Ni1P1
TmNiP,mp-1102558,0.0,6.79016058,0.0,"{69: 1, 28: 1, 15: 1}","[15, 28, 69]",151281691,Tm1Ni1P1
LuNiP,mp-1103289,0.0,6.79180128,0.0,"{71: 1, 28: 1, 15: 1}","[15, 28, 71]",151281711,Lu1Ni1P1
HfNiP,mp-1102032,0.0,8.7386758,0.0,"{72: 1, 28: 1, 15: 1}","[15, 28, 72]",151281721,Hf1Ni1P1
Hf2NiP,mp-5918,0.0,6.89467442,0.0,"{72: 2, 28: 1, 15: 1}","[15, 28, 72]",151281722,Hf2Ni1P1
Hf4NiP,mp-1102542,0.0,6.14817222,0.057044614583332987,"{72: 4, 28: 1, 15: 1}","[15, 28, 72]",151281724,Hf4Ni1P1
TaNiP,mp-1102041,0.0,9.62632186,0.0,"{73: 1, 28: 1, 15: 1}","[15, 28, 73]",151281731,Ta1Ni1P1
Ta4NiP,mp-1103001,0.0,7.12512078,0.038939003833334596,"{73: 4, 28: 1, 15: 1}","[15, 28, 73]",151281734,Ta4Ni1P1
NiPW,mp-1079407,0.0,10.08302456,0.020637881578945638,"{28: 1, 15: 1, 74: 1}","[15, 28, 74]",151281741,Ni1P1W1
Ni2P,mp-21167,0.0,10.2335158,0.0022342603140081962,"{28: 2, 15: 1}","[15, 28]",151282,Ni2P1
Ni2GeP,mp-1179970,0.0,7.51907865,0.02114250734375034,"{28: 2, 32: 1, 15: 1}","[15, 28, 32]",151282321,Ni2Ge1P1
LaNi2GeP,mp-1223012,0.0,8.86512142,0.0,"{57: 1, 28: 2, 32: 1, 15: 1}","[15, 28, 32, 57]",151282321571,La1Ni2Ge1P1
Ni2PPd,mp-1209823,0.0,8.22859687,0.0,"{28: 2, 15: 1, 46: 1}","[15, 28, 46]",151282461,Ni2P1Pd1
Ni2SnP,mp-504909,0.0,9.4159943,0.0,"{28: 2, 50: 1, 15: 1}","[15, 28, 50]",151282501,Ni2Sn1P1
Ni3P,mp-2296,0.0,9.56118466,0.0,"{28: 3, 15: 1}","[15, 28]",151283,Ni3P1
Ni3Mo2P,mp-1220086,0.0,9.62767789,0.019049818333332524,"{28: 3, 42: 2, 15: 1}","[15, 28, 42]",151283422,Ni3Mo2P1
La2Ni4Ge3P,mp-1223467,0.0,8.41558498,0.0,"{57: 2, 28: 4, 32: 3, 15: 1}","[15, 28, 32, 57]",151284323572,La2Ni4Ge3P1
Ni6Ge2P,mp-1219800,0.0,9.33118255,0.0,"{28: 6, 32: 2, 15: 1}","[15, 28, 32]",151286322,Ni6Ge2P1
Y6Ni20P13,mp-541124,0.0,8.34996415,0.0,"{39: 6, 28: 20, 15: 13}","[15, 28, 39]",15132820396,Y6Ni20P13
Zr6Ni20P13,mp-14298,0.0,9.10132054,0.0,"{40: 6, 28: 20, 15: 13}","[15, 28, 40]",15132820406,Zr6Ni20P13
Ce6Ni20P13,mp-1214139,0.0,9.53560021,0.0,"{58: 6, 28: 20, 15: 13}","[15, 28, 58]",15132820586,Ce6Ni20P13
Pr6Ni20P13,mp-1210024,0.0,7.9907015,0.0,"{59: 6, 28: 20, 15: 13}","[15, 28, 59]",15132820596,Pr6Ni20P13
Nd6Ni20P13,mp-1210112,0.0,8.05477147,0.0,"{60: 6, 28: 20, 15: 13}","[15, 28, 60]",15132820606,Nd6Ni20P13
Sm6Ni20P13,mp-1208731,0.0,7.98540432,0.2822118244322347,"{62: 6, 28: 20, 15: 13}","[15, 28, 62]",15132820626,Sm6Ni20P13
Eu6Ni20P13,mp-1212839,0.0,7.81787613,0.018151337628206754,"{63: 6, 28: 20, 15: 13}","[15, 28, 63]",15132820636,Eu6Ni20P13
Ho6Ni20P13,mp-1212289,0.0,8.31838776,0.0,"{67: 6, 28: 20, 15: 13}","[15, 28, 67]",15132820676,Ho6Ni20P13
Er6Ni20P13,mp-1213358,0.0,8.28777127,0.0,"{68: 6, 28: 20, 15: 13}","[15, 28, 68]",15132820686,Er6Ni20P13
V(NiP4)4,mp-30540,0.0,8.93726434,0.008869782891156142,"{23: 1, 28: 4, 15: 16}","[15, 23, 28]",1516231284,V1Ni4P16
Nb(NiP4)4,mp-30541,0.0,8.59978088,0.011737422414966225,"{41: 1, 28: 4, 15: 16}","[15, 28, 41]",1516284411,Nb1Ni4P16
Ni4P16W,mp-30542,0.0,8.89782497,0.006753038015871127,"{28: 4, 15: 16, 74: 1}","[15, 28, 74]",1516284741,Ni4P16W1
La6Ni6P17,mp-17684,0.0,8.45403854,0.0,"{57: 6, 28: 6, 15: 17}","[15, 28, 57]",1517286576,La6Ni6P17
Ce6Ni6P17,mp-1193687,0.0,8.7855832,0.0015436723850568157,"{58: 6, 28: 6, 15: 17}","[15, 28, 58]",1517286586,Ce6Ni6P17
Y15(Ni4P3)7,mp-1208729,0.0,7.19241091,0.0,"{39: 15, 28: 28, 15: 21}","[15, 28, 39]",152128283915,Y15Ni28P21
Sm15(Ni4P3)7,mp-1211636,0.0,7.0908983,0.3038529120312461,"{62: 15, 28: 28, 15: 21}","[15, 28, 62]",152128286215,Sm15Ni28P21
Tb15(Ni4P3)7,mp-649833,0.0,7.28547006,0.0,"{65: 15, 28: 28, 15: 21}","[15, 28, 65]",152128286515,Tb15Ni28P21
Ni2P2(SeS)3,mp-1220140,0.0,4.53019758,0.09370458328846265,"{28: 2, 15: 2, 34: 3, 16: 3}","[15, 16, 28, 34]",152163282343,Ni2P2Se3S3
FeNi(PS3)2,mp-1225067,0.0,4.47770128,0.13531411142077765,"{26: 1, 28: 1, 15: 2, 16: 6}","[15, 16, 26, 28]",152166261281,Fe1Ni1P2S6
CoNi(PS3)2,mp-1226098,0.0,5.27496321,0.08792120131249348,"{27: 1, 28: 1, 15: 2, 16: 6}","[15, 16, 27, 28]",152166271281,Co1Ni1P2S6
Ni(PS3)2,mp-769218,0.0,3.09254344,0.09330738953701712,"{28: 1, 15: 2, 16: 6}","[15, 16, 28]",152166281,Ni1P2S6
Rb2Ni(PS3)2,mp-1209542,0.81,3.12530624,0.03249274282467596,"{37: 2, 28: 1, 15: 2, 16: 6}","[15, 16, 28, 37]",152166281372,Rb2Ni1P2S6
Cs2Ni(PS3)2,mp-553980,0.25219999999999976,3.02241959,0.022789703255130078,"{55: 2, 28: 1, 15: 2, 16: 6}","[15, 16, 28, 55]",152166281552,Cs2Ni1P2S6
K2NiP2,mp-9672,0.6445000000000003,3.51057219,0.0,"{19: 2, 28: 1, 15: 2}","[15, 19, 28]",152192281,K2Ni1P2
Ca(NiP)2,mp-4064,0.0,8.05160588,0.0,"{20: 1, 28: 2, 15: 2}","[15, 20, 28]",152201282,Ca1Ni2P2
V3NiP2,mp-1216512,0.0,9.15670668,0.008868196666666606,"{23: 3, 28: 1, 15: 2}","[15, 23, 28]",152233281,V3Ni1P2
MnNiP2,mp-1221342,0.0,9.63578653,0.006510670104167282,"{25: 1, 28: 1, 15: 2}","[15, 25, 28]",152251281,Mn1Ni1P2
Mn3NiP2,mp-1221804,0.0,8.76291562,0.0,"{25: 3, 28: 1, 15: 2}","[15, 25, 28]",152253281,Mn3Ni1P2
Fe3NiP2,mp-1224799,0.0,8.59405624,0.0,"{26: 3, 28: 1, 15: 2}","[15, 26, 28]",152263281,Fe3Ni1P2
Fe3Ni3P2,mp-1224865,0.0,8.60390446,0.009650900781243088,"{26: 3, 28: 3, 15: 2}","[15, 26, 28]",152263283,Fe3Ni3P2
NiP2,mp-22619,0.0,8.55551938,0.0,"{28: 1, 15: 2}","[15, 28]",152281,Ni1P2
Rb2NiP2,mp-1205511,0.6448,3.16842909,0.0,"{37: 2, 28: 1, 15: 2}","[15, 28, 37]",152281372,Rb2Ni1P2
ZrNiP2,mp-1078514,0.0,8.52312468,0.005288017589285765,"{40: 1, 28: 1, 15: 2}","[15, 28, 40]",152281401,Zr1Ni1P2
Zr2NiP2,mp-1079999,0.0,7.5354091,0.0,"{40: 2, 28: 1, 15: 2}","[15, 28, 40]",152281402,Zr2Ni1P2
NbNiP2,mp-20948,0.0,8.61015342,0.0,"{41: 1, 28: 1, 15: 2}","[15, 28, 41]",152281411,Nb1Ni1P2
NiMoP2,mp-10208,0.0,9.65331056,0.0,"{28: 1, 42: 1, 15: 2}","[15, 28, 42]",152281421,Ni1Mo1P2
TaNiP2,mp-1188762,0.0,9.00550998,0.009531478333332899,"{73: 1, 28: 1, 15: 2}","[15, 28, 73]",152281731,Ta1Ni1P2
NiP2W,mp-1086669,0.0,9.35370248,0.0,"{28: 1, 15: 2, 74: 1}","[15, 28, 74]",152281741,Ni1P2W1
UNiP2,mp-1216793,0.0,10.55429456,0.0,"{92: 1, 28: 1, 15: 2}","[15, 28, 92]",152281921,U1Ni1P2
Sr(NiP)2,mp-29167,0.0,6.69684895,0.007809731733347647,"{38: 1, 28: 2, 15: 2}","[15, 28, 38]",152282381,Sr1Ni2P2
Y(NiP)2,mp-568940,0.0,8.64631192,0.0,"{39: 1, 28: 2, 15: 2}","[15, 28, 39]",152282391,Y1Ni2P2
Zr(NiP)2,mp-10259,0.0,9.70630783,0.09232042051388856,"{40: 1, 28: 2, 15: 2}","[15, 28, 40]",152282401,Zr1Ni2P2
Ba(NiP)2,mp-9473,0.0,5.91791651,0.0,"{56: 1, 28: 2, 15: 2}","[15, 28, 56]",152282561,Ba1Ni2P2
La(NiP)2,mp-8250,0.0,10.0479759,0.0,"{57: 1, 28: 2, 15: 2}","[15, 28, 57]",152282571,La1Ni2P2
Ce(NiP)2,mp-569697,0.0,9.88080215,0.0,"{58: 1, 28: 2, 15: 2}","[15, 28, 58]",152282581,Ce1Ni2P2
Pr(NiP)2,mp-569931,0.0,8.35031178,0.0,"{59: 1, 28: 2, 15: 2}","[15, 28, 59]",152282591,Pr1Ni2P2
Nd(NiP)2,mp-569974,0.0,8.40179962,0.0,"{60: 1, 28: 2, 15: 2}","[15, 28, 60]",152282601,Nd1Ni2P2
Sm(NiP)2,mp-574199,0.0,8.37772413,0.0,"{62: 1, 28: 2, 15: 2}","[15, 28, 62]",152282621,Sm1Ni2P2
Eu(NiP)2,mp-3758,0.0,7.59946686,0.0,"{63: 1, 28: 2, 15: 2}","[15, 28, 63]",152282631,Eu1Ni2P2
Gd(NiP)2,mp-21473,0.0,8.31426636,0.0,"{64: 1, 28: 2, 15: 2}","[15, 28, 64]",152282641,Gd1Ni2P2
Tb(NiP)2,mp-5517,0.0,8.69173458,0.0,"{65: 1, 28: 2, 15: 2}","[15, 28, 65]",152282651,Tb1Ni2P2
Dy(NiP)2,mp-5227,0.0,8.6849219,0.0,"{66: 1, 28: 2, 15: 2}","[15, 28, 66]",152282661,Dy1Ni2P2
Ho(NiP)2,mp-2906,0.0,8.65293958,0.0,"{67: 1, 28: 2, 15: 2}","[15, 28, 67]",152282671,Ho1Ni2P2
Er(NiP)2,mp-3455,0.0,8.69012965,0.0,"{68: 1, 28: 2, 15: 2}","[15, 28, 68]",152282681,Er1Ni2P2
Tm(NiP)2,mp-570100,0.0,8.70784653,0.0,"{69: 1, 28: 2, 15: 2}","[15, 28, 69]",152282691,Tm1Ni2P2
Th(NiP)2,mp-18036,0.0,8.99531889,0.0,"{90: 1, 28: 2, 15: 2}","[15, 28, 90]",152282901,Th1Ni2P2
U(NiP)2,mp-22639,0.0,11.28383835,0.0,"{92: 1, 28: 2, 15: 2}","[15, 28, 92]",152282921,U1Ni2P2
NbNi3P2,mp-1220579,0.0,9.20895019,0.013508074722220265,"{41: 1, 28: 3, 15: 2}","[15, 28, 41]",152283411,Nb1Ni3P2
UNi3P2,mp-1217640,0.0,10.57466636,0.0,"{92: 1, 28: 3, 15: 2}","[15, 28, 92]",152283921,U1Ni3P2
Y(Ni2P)2,mp-1104054,0.0,8.38333928,0.0,"{39: 1, 28: 4, 15: 2}","[15, 28, 39]",152284391,Y1Ni4P2