formula,material_id,band_gap,efermi,energy_above_hull,comp_atoms,sorted_keys_comp_atoms,comp_number,new_formula
Hf3(NiGe)4,mp-10076,0.0,7.59619366,0.0,"{72: 3, 28: 4, 32: 4}","[28, 32, 72]",284324723,Hf3Ni4Ge4
La11(Ni2Ge3)2,mp-627405,0.0,6.90047458,0.0,"{57: 11, 28: 4, 32: 6}","[28, 32, 57]",2843265711,La11Ni4Ge6
Ce11(Ni2Ge3)2,mp-1213990,0.0,6.90695661,0.0,"{58: 11, 28: 4, 32: 6}","[28, 32, 58]",2843265811,Ce11Ni4Ge6
Y(Ni2As)2,mp-1104069,0.0,7.32902803,0.0,"{39: 1, 28: 4, 33: 2}","[28, 33, 39]",284332391,Y1Ni4As2
Zr(Ni2As)2,mp-1104853,0.0,7.89509163,0.0,"{40: 1, 28: 4, 33: 2}","[28, 33, 40]",284332401,Zr1Ni4As2
Tb(Ni2As)2,mp-1103784,0.0,7.32398404,0.0,"{65: 1, 28: 4, 33: 2}","[28, 33, 65]",284332651,Tb1Ni4As2
Dy(Ni2As)2,mp-11340,0.0,7.31991618,0.0,"{66: 1, 28: 4, 33: 2}","[28, 33, 66]",284332661,Dy1Ni4As2
Ho(Ni2As)2,mp-1103507,0.0,7.27763446,0.0,"{67: 1, 28: 4, 33: 2}","[28, 33, 67]",284332671,Ho1Ni4As2
Er(Ni2As)2,mp-510482,0.0,7.32986581,0.0,"{68: 1, 28: 4, 33: 2}","[28, 33, 68]",284332681,Er1Ni4As2
Tm(Ni2As)2,mp-1104519,0.0,7.31719168,0.0,"{69: 1, 28: 4, 33: 2}","[28, 33, 69]",284332691,Tm1Ni4As2
Lu(Ni2As)2,mp-1104964,0.0,7.34211716,0.0,"{71: 1, 28: 4, 33: 2}","[28, 33, 71]",284332711,Lu1Ni4As2
Hf(Ni2As)2,mp-1104089,0.0,8.15198504,0.0,"{72: 1, 28: 4, 33: 2}","[28, 33, 72]",284332721,Hf1Ni4As2
La8Ni4Br7,mp-582242,0.0,6.94542468,2.2437647629093522,"{57: 8, 28: 4, 35: 7}","[28, 35, 57]",284357578,La8Ni4Br7
Sr(Ni2Sn)2,mp-18127,0.0,7.23709601,0.0,"{38: 1, 28: 4, 50: 2}","[28, 38, 50]",284381502,Sr1Ni4Sn2
Y11In9Ni4,mp-865689,0.0,5.80175749,0.0,"{39: 11, 49: 9, 28: 4}","[28, 39, 49]",2843911499,Y11In9Ni4
CeYNi4,mp-1226560,0.0,7.66774876,0.025094633194440163,"{58: 1, 39: 1, 28: 4}","[28, 39, 58]",284391581,Ce1Y1Ni4
PrYNi4,mp-1219745,0.0,6.08952501,0.017749282777774766,"{59: 1, 39: 1, 28: 4}","[28, 39, 59]",284391591,Pr1Y1Ni4
ZrInNi4,mp-637771,0.0,8.45073211,0.0,"{40: 1, 49: 1, 28: 4}","[28, 40, 49]",284401491,Zr1In1Ni4
ZrNi4Sn,mp-30807,0.0,8.43172449,0.03278016317708499,"{40: 1, 28: 4, 50: 1}","[28, 40, 50]",284401501,Zr1Ni4Sn1
Ni4Mo,mp-11507,0.0,8.22663782,0.007206371000000544,"{28: 4, 42: 1}","[28, 42]",284421,Ni4Mo1
Ni4Ru,mp-1220081,0.0,7.87752174,0.10456930199999981,"{28: 4, 44: 1}","[28, 44]",284441,Ni4Ru1
LaNi4Rh,mp-1222858,0.0,8.02437108,0.0,"{57: 1, 28: 4, 45: 1}","[28, 45, 57]",284451571,La1Ni4Rh1
CeCdNi4,mp-12006,0.0,7.33436888,0.0,"{58: 1, 48: 1, 28: 4}","[28, 48, 58]",284481581,Ce1Cd1Ni4
PrCdNi4,mp-1077088,0.0,5.69292574,0.0,"{59: 1, 48: 1, 28: 4}","[28, 48, 59]",284481591,Pr1Cd1Ni4
NdCdNi4,mp-1077379,0.0,5.73578321,0.0,"{60: 1, 48: 1, 28: 4}","[28, 48, 60]",284481601,Nd1Cd1Ni4
SmCdNi4,mp-1072586,0.0,5.70703859,1.0029755370833318,"{62: 1, 48: 1, 28: 4}","[28, 48, 62]",284481621,Sm1Cd1Ni4
TbCdNi4,mp-1077082,0.0,5.89454036,0.0,"{65: 1, 48: 1, 28: 4}","[28, 48, 65]",284481651,Tb1Cd1Ni4
DyCdNi4,mp-1071811,0.0,5.91408045,0.0,"{66: 1, 48: 1, 28: 4}","[28, 48, 66]",284481661,Dy1Cd1Ni4
HoCdNi4,mp-1077332,0.0,5.83684179,0.0,"{67: 1, 48: 1, 28: 4}","[28, 48, 67]",284481671,Ho1Cd1Ni4
ErCdNi4,mp-1072598,0.0,5.86261565,0.0,"{68: 1, 48: 1, 28: 4}","[28, 48, 68]",284481681,Er1Cd1Ni4
TmCdNi4,mp-1072553,0.0,5.89200076,0.0,"{69: 1, 48: 1, 28: 4}","[28, 48, 69]",284481691,Tm1Cd1Ni4
LuCdNi4,mp-1077095,0.0,5.89098587,0.0,"{71: 1, 48: 1, 28: 4}","[28, 48, 71]",284481711,Lu1Cd1Ni4
Th3In13Ni4,mp-1210342,0.0,8.2763907,0.006470668318179662,"{90: 3, 49: 13, 28: 4}","[28, 49, 90]",2844913903,Th3In13Ni4
CeInNi4,mp-1206393,0.0,9.09962026,0.0,"{58: 1, 49: 1, 28: 4}","[28, 49, 58]",284491581,Ce1In1Ni4
NdInNi4,mp-1206218,0.0,7.44668371,0.0,"{60: 1, 49: 1, 28: 4}","[28, 49, 60]",284491601,Nd1In1Ni4
GdInNi4,mp-1206797,0.0,6.85085475,0.0,"{64: 1, 49: 1, 28: 4}","[28, 49, 64]",284491641,Gd1In1Ni4
HoInNi4,mp-1206024,0.0,7.63591233,0.0,"{67: 1, 49: 1, 28: 4}","[28, 49, 67]",284491671,Ho1In1Ni4
ErInNi4,mp-1024983,0.0,7.65234462,0.0,"{68: 1, 49: 1, 28: 4}","[28, 49, 68]",284491681,Er1In1Ni4
TmInNi4,mp-20896,0.0,7.68013244,0.0,"{69: 1, 49: 1, 28: 4}","[28, 49, 69]",284491691,Tm1In1Ni4
LuInNi4,mp-1206270,0.0,7.56937359,0.0,"{71: 1, 49: 1, 28: 4}","[28, 49, 71]",284491711,Lu1In1Ni4
UInNi4,mp-672702,0.0,10.21297422,0.01450406710622687,"{92: 1, 49: 1, 28: 4}","[28, 49, 92]",284491921,U1In1Ni4
La11In9Ni4,mp-974045,0.0,8.01352277,0.0,"{57: 11, 49: 9, 28: 4}","[28, 49, 57]",2844995711,La11In9Ni4
Ce11In9Ni4,mp-1192200,0.0,8.05789485,0.0,"{58: 11, 49: 9, 28: 4}","[28, 49, 58]",2844995811,Ce11In9Ni4
Pr11In9Ni4,mp-862840,0.0,5.54080106,0.0,"{59: 11, 49: 9, 28: 4}","[28, 49, 59]",2844995911,Pr11In9Ni4
Nd11In9Ni4,mp-985562,0.0,5.713078,0.0,"{60: 11, 49: 9, 28: 4}","[28, 49, 60]",2844996011,Nd11In9Ni4
Sm11In9Ni4,mp-1191859,0.0,5.07343002,0.0,"{62: 11, 49: 9, 28: 4}","[28, 49, 62]",2844996211,Sm11In9Ni4
Gd11In9Ni4,mp-1192974,0.0,5.50882571,0.0,"{64: 11, 49: 9, 28: 4}","[28, 49, 64]",2844996411,Gd11In9Ni4
Tb11In9Ni4,mp-1191293,0.0,5.86588499,0.0,"{65: 11, 49: 9, 28: 4}","[28, 49, 65]",2844996511,Tb11In9Ni4
Dy11In9Ni4,mp-1191751,0.0,5.94149423,0.0023200624999981656,"{66: 11, 49: 9, 28: 4}","[28, 49, 66]",2844996611,Dy11In9Ni4
DyNi4Sn,mp-1213139,0.0,7.37039488,0.03248668791666898,"{66: 1, 28: 4, 50: 1}","[28, 50, 66]",284501661,Dy1Ni4Sn1
LuNi4Sn,mp-568552,0.0,7.92901721,0.0014790053124995595,"{71: 1, 28: 4, 50: 1}","[28, 50, 71]",284501711,Lu1Ni4Sn1
UNi4Sn,mp-22197,0.0,10.49081628,0.04216000097756467,"{92: 1, 28: 4, 50: 1}","[28, 50, 92]",284501921,U1Ni4Sn1
La(Ni2Sn)2,mp-1104302,0.0,9.17634425,0.0,"{57: 1, 28: 4, 50: 2}","[28, 50, 57]",284502571,La1Ni4Sn2
Ce(Ni2Sn)2,mp-510125,0.0,9.15898472,0.0070425878571418465,"{58: 1, 28: 4, 50: 2}","[28, 50, 58]",284502581,Ce1Ni4Sn2
Pr(Ni2Sn)2,mp-1104946,0.0,8.10207132,0.0,"{59: 1, 28: 4, 50: 2}","[28, 50, 59]",284502591,Pr1Ni4Sn2
Nd(Ni2Sn)2,mp-1104209,0.0,7.71676588,0.0,"{60: 1, 28: 4, 50: 2}","[28, 50, 60]",284502601,Nd1Ni4Sn2
Sm(Ni2Sn)2,mp-1104730,0.0,7.88174216,0.7479326446428578,"{62: 1, 28: 4, 50: 2}","[28, 50, 62]",284502621,Sm1Ni4Sn2
Ni4Sn3,mp-1221030,0.0,8.97937167,0.0,"{28: 4, 50: 3}","[28, 50]",284503,Ni4Sn3
Ni4(SnSb3)3,mp-1220099,0.0,7.40235152,0.002955166874998305,"{28: 4, 50: 3, 51: 9}","[28, 50, 51]",284503519,Ni4Sn3Sb9
Ce4Ni4Bi3Sb5,mp-1227577,0.0,7.80405188,0.0,"{58: 4, 28: 4, 83: 3, 51: 5}","[28, 51, 58, 83]",284515584833,Ce4Ni4Bi3Sb5
Ni4(Bi4I)3,mp-541751,0.0,5.64305847,0.0,"{28: 4, 83: 12, 53: 3}","[28, 53, 83]",2845338312,Ni4Bi12I3
LaNi4Pt,mp-1222871,0.0,8.14620852,0.0,"{57: 1, 28: 4, 78: 1}","[28, 57, 78]",284571781,La1Ni4Pt1
Tb3SmNi4,mp-1217630,0.0,4.64451638,0.6255814473437491,"{65: 3, 62: 1, 28: 4}","[28, 62, 65]",284621653,Tb3Sm1Ni4
SmHo3Ni4,mp-1219116,0.0,4.59481534,0.6090102116666758,"{62: 1, 67: 3, 28: 4}","[28, 62, 67]",284621673,Sm1Ho3Ni4
GdDy3Ni4,mp-1224739,0.0,4.65367887,0.000858419999998361,"{64: 1, 66: 3, 28: 4}","[28, 64, 66]",284641663,Gd1Dy3Ni4
GdNi4Au,mp-1071438,0.0,5.96750055,0.8554350699999995,"{64: 1, 28: 4, 79: 1}","[28, 64, 79]",284641791,Gd1Ni4Au1
Gd3ErNi4,mp-1224942,0.0,4.51460277,0.0033913559375005065,"{64: 3, 68: 1, 28: 4}","[28, 64, 68]",284643681,Gd3Er1Ni4
TbNi4Au,mp-1077552,0.0,6.27750197,0.0,"{65: 1, 28: 4, 79: 1}","[28, 65, 79]",284651791,Tb1Ni4Au1
DyNi4Au,mp-1077279,0.0,6.29142509,0.0,"{66: 1, 28: 4, 79: 1}","[28, 66, 79]",284661791,Dy1Ni4Au1
HoNi4Au,mp-1077340,0.0,6.22863529,0.0,"{67: 1, 28: 4, 79: 1}","[28, 67, 79]",284671791,Ho1Ni4Au1
ErNi4,mp-1104276,0.0,6.32019363,0.006549951333332693,"{68: 1, 28: 4}","[28, 68]",284681,Er1Ni4
ErNi4Au,mp-1025001,0.0,6.28435022,0.0,"{68: 1, 28: 4, 79: 1}","[28, 68, 79]",284681791,Er1Ni4Au1
TmNi4Au,mp-1077547,0.0,6.29813772,0.0,"{69: 1, 28: 4, 79: 1}","[28, 69, 79]",284691791,Tm1Ni4Au1
LuNi4Au,mp-1072381,0.0,6.30032218,0.0,"{71: 1, 28: 4, 79: 1}","[28, 71, 79]",284711791,Lu1Ni4Au1
Ni4W,mp-30811,0.0,7.80024469,0.0,"{28: 4, 74: 1}","[28, 74]",284741,Ni4W1
PuNi4,mp-569318,0.0,9.44083987,0.009270505999999124,"{94: 1, 28: 4}","[28, 94]",284941,Pu1Ni4
Sm15(Ga11Ni13)4,mp-683971,0.0,5.42329503,0.7720342775289506,"{62: 15, 31: 44, 28: 52}","[28, 31, 62]",285231446215,Sm15Ga44Ni52
Y2(CuNi)5,mp-1216156,0.0,6.10658338,0.0,"{39: 2, 29: 5, 28: 5}","[28, 29, 39]",285295392,Y2Cu5Ni5
La2(CuNi)5,mp-1223292,0.0,7.93182909,0.00020041250000701893,"{57: 2, 29: 5, 28: 5}","[28, 29, 57]",285295572,La2Cu5Ni5
Ce2(CuNi)5,mp-1226995,0.0,7.78944679,0.011203067946427225,"{58: 2, 29: 5, 28: 5}","[28, 29, 58]",285295582,Ce2Cu5Ni5
Eu2(CuNi)5,mp-1225966,0.0,5.40979772,0.0,"{63: 2, 29: 5, 28: 5}","[28, 29, 63]",285295632,Eu2Cu5Ni5
U2(CuNi)5,mp-1217043,0.0,9.24151116,0.10065905618589799,"{92: 2, 29: 5, 28: 5}","[28, 29, 92]",285295922,U2Cu5Ni5
Ce2Zn2Ni5,mp-17587,0.0,7.42855363,0.004656843888890094,"{58: 2, 30: 2, 28: 5}","[28, 30, 58]",285302582,Ce2Zn2Ni5
Zn4Ni5Ge,mp-1215585,0.0,6.23922019,0.04005044525000123,"{30: 4, 28: 5, 32: 1}","[28, 30, 32]",285304321,Zn4Ni5Ge1
Eu2(ZnNi)5,mp-1225527,0.0,4.17028756,0.0,"{63: 2, 30: 5, 28: 5}","[28, 30, 63]",285305632,Eu2Zn5Ni5
Ga21Ni5,mp-1225030,0.0,4.64283132,0.1954838266666652,"{31: 21, 28: 5}","[28, 31]",2853121,Ga21Ni5
Ga2Ni5Te4,mp-1224878,0.0,7.28780976,0.057295865606054264,"{31: 2, 28: 5, 52: 4}","[28, 31, 52]",285312524,Ga2Ni5Te4
Ga3Ni5,mp-11398,0.0,7.02996943,0.0,"{31: 3, 28: 5}","[28, 31]",285313,Ga3Ni5
Ga3Ni5Ge2,mp-29749,0.0,7.15155922,0.0006648899000021302,"{31: 3, 28: 5, 32: 2}","[28, 31, 32]",285313322,Ga3Ni5Ge2
Ga3Ni5Sn2,mp-1106177,0.0,7.55628254,0.009500597404762168,"{31: 3, 28: 5, 50: 2}","[28, 31, 50]",285313502,Ga3Ni5Sn2
La2(GaNi)5,mp-1223634,0.0,6.59424663,0.05886867541666252,"{57: 2, 31: 5, 28: 5}","[28, 31, 57]",285315572,La2Ga5Ni5
Dy2(GaNi)5,mp-1226188,0.0,5.42879654,0.0,"{66: 2, 31: 5, 28: 5}","[28, 31, 66]",285315662,Dy2Ga5Ni5
Ni5Ge2,mp-1200317,0.0,7.36030717,0.015210133333335207,"{28: 5, 32: 2}","[28, 32]",285322,Ni5Ge2
Ni5Ge3,mp-1428,0.0,8.61347337,0.0,"{28: 5, 32: 3}","[28, 32]",285323,Ni5Ge3
YNi5Ge3,mp-21806,0.0,7.43767914,0.0,"{39: 1, 28: 5, 32: 3}","[28, 32, 39]",285323391,Y1Ni5Ge3
Pr7In6Ni5Ge3,mp-1220063,0.0,5.70307909,0.0,"{59: 7, 49: 6, 28: 5, 32: 3}","[28, 32, 49, 59]",285323496597,Pr7In6Ni5Ge3
Nd7In6Ni5Ge3,mp-1220717,0.0,5.6047305,0.0,"{60: 7, 49: 6, 28: 5, 32: 3}","[28, 32, 49, 60]",285323496607,Nd7In6Ni5Ge3
HoNi5Ge3,mp-1196011,0.0,6.38783464,0.0,"{67: 1, 28: 5, 32: 3}","[28, 32, 67]",285323671,Ho1Ni5Ge3
ErNi5Ge3,mp-1201645,0.0,6.30615914,0.0,"{68: 1, 28: 5, 32: 3}","[28, 32, 68]",285323681,Er1Ni5Ge3
UNi5Ge3,mp-21826,0.0,8.01368437,0.0,"{92: 1, 28: 5, 32: 3}","[28, 32, 92]",285323921,U1Ni5Ge3
Ba2Ni5Ge4,mp-1095498,0.0,5.37753024,0.0,"{56: 2, 28: 5, 32: 4}","[28, 32, 56]",285324562,Ba2Ni5Ge4
Ni5(Mo2As3)6,mp-1220354,0.0,7.5554639,0.01717496952041131,"{28: 5, 42: 12, 33: 18}","[28, 33, 42]",28533184212,Ni5Mo12As18
Ni5As2,mp-941,0.0,8.59475039,0.0,"{28: 5, 33: 2}","[28, 33]",285332,Ni5As2
SrNi5As3,mp-17396,0.0,6.82534737,0.0,"{38: 1, 28: 5, 33: 3}","[28, 33, 38]",285333381,Sr1Ni5As3
LaNi5As3,mp-582126,0.0,8.47118447,0.0,"{57: 1, 28: 5, 33: 3}","[28, 33, 57]",285333571,La1Ni5As3
EuNi5As3,mp-16838,0.0,6.94013421,0.0,"{63: 1, 28: 5, 33: 3}","[28, 33, 63]",285333631,Eu1Ni5As3
Ni5(Mo3Se4)8,mp-530701,0.0,4.82282871,0.07252252355191047,"{28: 5, 42: 24, 34: 32}","[28, 34, 42]",28534324224,Ni5Mo24Se32
YNi5,mp-2152,0.0,6.50155335,0.0,"{39: 1, 28: 5}","[28, 39]",285391,Y1Ni5
ZrNi5,mp-2439,0.0,6.98916686,0.0005126866666671503,"{40: 1, 28: 5}","[28, 40]",285401,Zr1Ni5
Nb2Ni5Te6,mp-1220914,0.0,6.98130755,7.374269230631114e-05,"{41: 2, 28: 5, 52: 6}","[28, 41, 52]",285412526,Nb2Ni5Te6
LaInNi5,mp-1212410,0.0,8.60897189,0.0,"{57: 1, 49: 1, 28: 5}","[28, 49, 57]",285491571,La1In1Ni5
EuInNi5,mp-1006242,0.0,7.76968145,0.0,"{63: 1, 49: 1, 28: 5}","[28, 49, 63]",285491631,Eu1In1Ni5
LaNi5Sn,mp-1193093,0.0,9.06718757,0.0,"{57: 1, 28: 5, 50: 1}","[28, 50, 57]",285501571,La1Ni5Sn1
CeNi5Sn,mp-574423,0.0,8.91253904,0.0,"{58: 1, 28: 5, 50: 1}","[28, 50, 58]",285501581,Ce1Ni5Sn1
PrNi5Sn,mp-1193428,0.0,7.58245074,0.0,"{59: 1, 28: 5, 50: 1}","[28, 50, 59]",285501591,Pr1Ni5Sn1
NdNi5Sn,mp-1192615,0.0,7.62937724,0.0,"{60: 1, 28: 5, 50: 1}","[28, 50, 60]",285501601,Nd1Ni5Sn1
LuNi5Sn,mp-865201,0.0,7.71655154,0.0,"{71: 1, 28: 5, 50: 1}","[28, 50, 71]",285501711,Lu1Ni5Sn1
Ni5Sb2,mp-2409,0.0,9.75994977,0.02425311214285486,"{28: 5, 51: 2}","[28, 51]",285512,Ni5Sb2
LaNi5,mp-2317,0.0,8.42713528,0.0,"{57: 1, 28: 5}","[28, 57]",285571,La1Ni5
CeNi5,mp-1910,0.0,8.17185468,0.0,"{58: 1, 28: 5}","[28, 58]",285581,Ce1Ni5
PrNi5,mp-2370,0.0,6.44883295,0.0,"{59: 1, 28: 5}","[28, 59]",285591,Pr1Ni5
NdNi5,mp-1824,0.0,6.46727401,0.0,"{60: 1, 28: 5}","[28, 60]",285601,Nd1Ni5
SmNi5,mp-1075,0.0,6.31236501,0.0,"{62: 1, 28: 5}","[28, 62]",285621,Sm1Ni5
EuNi5,mp-22311,0.0,5.85950551,0.0,"{63: 1, 28: 5}","[28, 63]",285631,Eu1Ni5
GdNi5,mp-21305,0.0,6.38890532,0.0,"{64: 1, 28: 5}","[28, 64]",285641,Gd1Ni5
TbNi5,mp-30808,0.0,6.52948298,0.0,"{65: 1, 28: 5}","[28, 65]",285651,Tb1Ni5
DyNi5,mp-1179,0.0,6.49261883,0.0,"{66: 1, 28: 5}","[28, 66]",285661,Dy1Ni5
HoNi5,mp-1553,0.0,6.53197341,0.0,"{67: 1, 28: 5}","[28, 67]",285671,Ho1Ni5
ErNi5,mp-853,0.0,6.58184248,0.0,"{68: 1, 28: 5}","[28, 68]",285681,Er1Ni5
TmNi5,mp-11526,0.0,6.45011115,0.0,"{69: 1, 28: 5}","[28, 69]",285691,Tm1Ni5
LuNi5,mp-11491,0.0,6.44359677,0.0,"{71: 1, 28: 5}","[28, 71]",285711,Lu1Ni5
HfNi5,mp-569516,0.0,7.24036863,0.02767773183333233,"{72: 1, 28: 5}","[28, 72]",285721,Hf1Ni5
ThNi5,mp-1567,0.0,8.02152364,0.0,"{90: 1, 28: 5}","[28, 90]",285901,Th1Ni5
UNi5,mp-2838,0.0,9.46741866,0.0,"{92: 1, 28: 5}","[28, 92]",285921,U1Ni5
NpNi5,mp-1025137,0.0,9.60178327,0.0,"{93: 1, 28: 5}","[28, 93]",285931,Np1Ni5
PuNi5,mp-21315,0.0,8.89789966,0.0,"{94: 1, 28: 5}","[28, 94]",285941,Pu1Ni5
GaNi6Ge,mp-1224860,0.0,7.91676214,0.0007660987499997773,"{31: 1, 28: 6, 32: 1}","[28, 31, 32]",286311321,Ga1Ni6Ge1
TaGaNi6,mp-1217921,0.0,7.45323756,0.0,"{73: 1, 31: 1, 28: 6}","[28, 31, 73]",286311731,Ta1Ga1Ni6
Y3(GaNi3)2,mp-1191954,0.0,5.52189671,0.0,"{39: 3, 31: 2, 28: 6}","[28, 31, 39]",286312393,Y3Ga2Ni6
Pr3(GaNi3)2,mp-1191719,0.0,5.69710252,0.0,"{59: 3, 31: 2, 28: 6}","[28, 31, 59]",286312593,Pr3Ga2Ni6
Nd3(GaNi3)2,mp-1190620,0.0,5.54325294,0.0,"{60: 3, 31: 2, 28: 6}","[28, 31, 60]",286312603,Nd3Ga2Ni6
Sm3(GaNi3)2,mp-504614,0.0,5.43540608,0.0,"{62: 3, 31: 2, 28: 6}","[28, 31, 62]",286312623,Sm3Ga2Ni6
Gd3(GaNi3)2,mp-1191116,0.0,5.50345235,0.0,"{64: 3, 31: 2, 28: 6}","[28, 31, 64]",286312643,Gd3Ga2Ni6
Tb3(GaNi3)2,mp-1192010,0.0,5.49791754,0.0,"{65: 3, 31: 2, 28: 6}","[28, 31, 65]",286312653,Tb3Ga2Ni6
Dy3(GaNi3)2,mp-1191661,0.0,5.49108247,0.0,"{66: 3, 31: 2, 28: 6}","[28, 31, 66]",286312663,Dy3Ga2Ni6
Ho3(GaNi3)2,mp-1191722,0.0,5.46525934,0.0,"{67: 3, 31: 2, 28: 6}","[28, 31, 67]",286312673,Ho3Ga2Ni6
Er3(GaNi3)2,mp-1190853,0.0,5.54739961,0.0,"{68: 3, 31: 2, 28: 6}","[28, 31, 68]",286312683,Er3Ga2Ni6
Tm3(GaNi3)2,mp-1192294,0.0,5.44513726,0.0,"{69: 3, 31: 2, 28: 6}","[28, 31, 69]",286312693,Tm3Ga2Ni6
Ni6SnSe2,mp-1219795,0.0,7.62030199,0.019749026111110624,"{28: 6, 50: 1, 34: 2}","[28, 34, 50]",286342501,Ni6Sn1Se2
Ni6Se5,mp-568251,0.0,6.38596055,0.01844094863636414,"{28: 6, 34: 5}","[28, 34]",286345,Ni6Se5
Y12InNi6,mp-1207989,0.0,4.15850317,0.0,"{39: 12, 49: 1, 28: 6}","[28, 39, 49]",2863912491,Y12In1Ni6
Y12Ni6Pb,mp-600480,0.0,4.17508052,0.0,"{39: 12, 28: 6, 82: 1}","[28, 39, 82]",2863912821,Y12Ni6Pb1
NbNi6Mo,mp-1220426,0.0,7.88649675,0.0,"{41: 1, 28: 6, 42: 1}","[28, 41, 42]",286411421,Nb1Ni6Mo1
Nb7Ni6,mp-1104237,0.0,6.28042406,0.0,"{41: 7, 28: 6}","[28, 41]",286417,Nb7Ni6
TaNi6Mo,mp-1217923,0.0,7.86429652,0.0,"{73: 1, 28: 6, 42: 1}","[28, 42, 73]",286421731,Ta1Ni6Mo1
Pr31Ni64,mp-1222239,0.0,6.14476242,0.004060439631578205,"{59: 31, 28: 64}","[28, 59]",28645931,Pr31Ni64
La5In11Ni6,mp-1192186,0.0,8.65466825,0.0,"{57: 5, 49: 11, 28: 6}","[28, 49, 57]",2864911575,La5In11Ni6
Pr5In11Ni6,mp-616210,0.0,7.75345458,0.019388151249999375,"{59: 5, 49: 11, 28: 6}","[28, 49, 59]",2864911595,Pr5In11Ni6
Nd5In11Ni6,mp-669645,0.0,7.21829783,0.0029735786363653816,"{60: 5, 49: 11, 28: 6}","[28, 49, 60]",2864911605,Nd5In11Ni6
Nd12InNi6,mp-1211308,0.0,4.23901564,0.0,"{60: 12, 49: 1, 28: 6}","[28, 49, 60]",2864916012,Nd12In1Ni6
Ni6SnSb,mp-1219799,0.0,9.8459383,0.002775123124997947,"{28: 6, 50: 1, 51: 1}","[28, 50, 51]",286501511,Ni6Sn1Sb1
Ni6SnTe2,mp-1219797,0.0,8.83005658,0.0,"{28: 6, 50: 1, 52: 2}","[28, 50, 52]",286501522,Ni6Sn1Te2
Nd12Ni6Sn,mp-542879,0.0,4.27895603,4.347883772126693e-05,"{60: 12, 28: 6, 50: 1}","[28, 50, 60]",2865016012,Nd12Ni6Sn1
Sm3(Ni3Sn2)2,mp-1209076,0.0,6.53918561,0.8330212107142847,"{62: 3, 28: 6, 50: 4}","[28, 50, 62]",286504623,Sm3Ni6Sn4
Ni6SbTe2,mp-1219798,0.0,8.98882907,0.0007445705555548798,"{28: 6, 51: 1, 52: 2}","[28, 51, 52]",286511522,Ni6Sb1Te2
La12Ni6Pb,mp-1211984,0.0,7.77518305,0.0,"{57: 12, 28: 6, 82: 1}","[28, 57, 82]",2865712821,La12Ni6Pb1
Pr12Ni6Pb,mp-1210858,0.0,4.38572287,0.0,"{59: 12, 28: 6, 82: 1}","[28, 59, 82]",2865912821,Pr12Ni6Pb1
Nd12Ni6Pb,mp-1210867,0.0,4.25374923,0.0,"{60: 12, 28: 6, 82: 1}","[28, 60, 82]",2866012821,Nd12Ni6Pb1
Tb12Ni6Pb,mp-1208738,0.0,4.31340445,0.0,"{65: 12, 28: 6, 82: 1}","[28, 65, 82]",2866512821,Tb12Ni6Pb1
Dy12Ni6Pb,mp-1213460,0.0,4.31752898,0.0,"{66: 12, 28: 6, 82: 1}","[28, 66, 82]",2866612821,Dy12Ni6Pb1
Ho12Ni6Pb,mp-1212509,0.0,4.12786492,0.0,"{67: 12, 28: 6, 82: 1}","[28, 67, 82]",2866712821,Ho12Ni6Pb1
Zn6Ni7Ge2,mp-30030,0.0,6.02116711,0.02565548834234299,"{30: 6, 28: 7, 32: 2}","[28, 30, 32]",287306322,Zn6Ni7Ge2
Hf6Ga16Ni7,mp-1193078,0.0,5.92945148,0.038221021034485325,"{72: 6, 31: 16, 28: 7}","[28, 31, 72]",2873116726,Hf6Ga16Ni7
Ga2Ni7Ge2,mp-1224913,0.0,7.49376416,0.0472518822853516,"{31: 2, 28: 7, 32: 2}","[28, 31, 32]",287312322,Ga2Ni7Ge2
Ni7Ge4,mp-1219825,0.0,7.3276241,0.025831170113635338,"{28: 7, 32: 4}","[28, 32]",287324,Ni7Ge4
Y2Ni7,mp-574339,0.0,6.40130209,0.0,"{39: 2, 28: 7}","[28, 39]",287392,Y2Ni7
Y2Ni7Sn3,mp-1203938,0.0,7.75315281,0.0001953439393895806,"{39: 2, 28: 7, 50: 3}","[28, 39, 50]",287392503,Y2Ni7Sn3
Zr2Ni7,mp-2717,0.0,6.90258878,0.0,"{40: 2, 28: 7}","[28, 40]",287402,Zr2Ni7
Nb6Ni7,mp-1105044,0.0,6.48506161,0.018445997358976562,"{41: 6, 28: 7}","[28, 41]",287416,Nb6Ni7
La23Cd4Ni7,mp-1213625,0.0,7.48014847,0.0,"{57: 23, 48: 4, 28: 7}","[28, 48, 57]",2874845723,La23Cd4Ni7
Pr23Cd4Ni7,mp-1210494,0.0,4.04785279,0.0,"{59: 23, 48: 4, 28: 7}","[28, 48, 59]",2874845923,Pr23Cd4Ni7
Nd23Cd4Ni7,mp-1210583,0.0,3.73339293,0.0,"{60: 23, 48: 4, 28: 7}","[28, 48, 60]",2874846023,Nd23Cd4Ni7
In3Ni7,mp-1213091,0.0,8.88715114,0.02214374300000088,"{49: 3, 28: 7}","[28, 49]",287493,In3Ni7
LaIn6Ni7,mp-1211840,0.0,8.90910509,0.024461045969387918,"{57: 1, 49: 6, 28: 7}","[28, 49, 57]",287496571,La1In6Ni7
EuIn6Ni7,mp-1213431,0.0,8.092852,0.013955402142859619,"{63: 1, 49: 6, 28: 7}","[28, 49, 63]",287496631,Eu1In6Ni7
Ce4In8Ni7,mp-580324,0.0,8.35172311,0.037928865263161526,"{58: 4, 49: 8, 28: 7}","[28, 49, 58]",287498584,Ce4In8Ni7
Pr4In8Ni7,mp-1200597,0.0,7.08937652,0.001417080328945275,"{59: 4, 49: 8, 28: 7}","[28, 49, 59]",287498594,Pr4In8Ni7
Nd4In8Ni7,mp-1201881,0.0,6.98566851,0.0072056834210521,"{60: 4, 49: 8, 28: 7}","[28, 49, 60]",287498604,Nd4In8Ni7
Dy2Ni7Sn3,mp-568709,0.0,7.8097944,0.0,"{66: 2, 28: 7, 50: 3}","[28, 50, 66]",287503662,Dy2Ni7Sn3
Ni7Sn8,mp-1219822,0.0,9.22609989,0.004870725714285484,"{28: 7, 50: 8}","[28, 50]",287508,Ni7Sn8
La2Ni7,mp-1188908,0.0,8.76862973,0.0,"{57: 2, 28: 7}","[28, 57]",287572,La2Ni7
Ce2Ni7,mp-1204381,0.0,8.55978114,0.0,"{58: 2, 28: 7}","[28, 58]",287582,Ce2Ni7
Pr2Ni7,mp-1201333,0.0,6.1534858,0.0,"{59: 2, 28: 7}","[28, 59]",287592,Pr2Ni7
Nd2Ni7,mp-1190187,0.0,6.20410299,0.0,"{60: 2, 28: 7}","[28, 60]",287602,Nd2Ni7
Sm2Ni7,mp-1200995,0.0,5.47172014,0.0,"{62: 2, 28: 7}","[28, 62]",287622,Sm2Ni7
Gd2Ni7,mp-669713,0.0,6.37737425,0.0,"{64: 2, 28: 7}","[28, 64]",287642,Gd2Ni7
Tb2Ni7,mp-1189379,0.0,6.40771908,0.0,"{65: 2, 28: 7}","[28, 65]",287652,Tb2Ni7
Dy2Ni7,mp-865205,0.0,6.36447337,0.0,"{66: 2, 28: 7}","[28, 66]",287662,Dy2Ni7
Ho2Ni7,mp-1190300,0.0,6.23341251,0.0,"{67: 2, 28: 7}","[28, 67]",287672,Ho2Ni7
Er2Ni7,mp-1188219,0.0,6.24264293,0.0,"{68: 2, 28: 7}","[28, 68]",287682,Er2Ni7