formula,material_id,band_gap,efermi,energy_above_hull,comp_atoms,sorted_keys_comp_atoms,comp_number,new_formula
Er3(AlNi3)2,mp-17141,0.0,6.03041865,0.0,"{68: 3, 13: 2, 28: 6}","[13, 28, 68]",132286683,Er3Al2Ni6
Tm3(AlNi3)2,mp-1191848,0.0,5.93196714,0.0,"{69: 3, 13: 2, 28: 6}","[13, 28, 69]",132286693,Tm3Al2Ni6
NbAl2Ni9,mp-1220476,0.0,8.02206114,0.0,"{41: 1, 13: 2, 28: 9}","[13, 28, 41]",132289411,Nb1Al2Ni9
Al2Ni9Pd,mp-1228554,0.0,7.73579949,0.05333080145833158,"{13: 2, 28: 9, 46: 1}","[13, 28, 46]",132289461,Al2Ni9Pd1
TaAl2Ni9,mp-1218003,0.0,8.19728685,0.0,"{73: 1, 13: 2, 28: 9}","[13, 28, 73]",132289731,Ta1Al2Ni9
Y4Al23Ni6,mp-4847,0.0,7.47033282,0.0,"{39: 4, 13: 23, 28: 6}","[13, 28, 39]",1323286394,Y4Al23Ni6
Ce4Al23Ni6,mp-582245,0.0,8.01041077,0.0,"{58: 4, 13: 23, 28: 6}","[13, 28, 58]",1323286584,Ce4Al23Ni6
Sm4Al23Ni6,mp-581770,0.0,7.35338178,0.0,"{62: 4, 13: 23, 28: 6}","[13, 28, 62]",1323286624,Sm4Al23Ni6
NiH32C4S2(NO8)2,mp-1195490,4.9927,-0.91833907,0.12537637445906746,"{28: 1, 1: 32, 6: 4, 16: 2, 7: 2, 8: 16}","[1, 6, 7, 8, 16, 28]",1326472816162281,Ni1H32C4S2N2O16
NiH32C8S4(NO5)2,mp-554559,3.0247,0.16124062,0.17870871926462328,"{28: 1, 1: 32, 6: 8, 16: 4, 7: 2, 8: 10}","[1, 6, 7, 8, 16, 28]",1326872810164281,Ni1H32C8S4N2O10
Al27(FeNi2)2,mp-1229168,0.0,8.01118106,0.0,"{13: 27, 26: 2, 28: 4}","[13, 26, 28]",1327262284,Al27Fe2Ni4
NiH3,mp-973963,0.0,2.814665,0.21931459124999986,"{28: 1, 1: 3}","[1, 28]",13281,Ni1H3
ZrNiH3,mp-29658,0.0,5.79565137,0.0,"{40: 1, 28: 1, 1: 3}","[1, 28, 40]",13281401,Zr1Ni1H3
CoNiP4(H8O5)4,mp-1229196,2.9800000000000004,2.17386617,0.09070985057918257,"{27: 1, 28: 1, 15: 4, 1: 32, 8: 20}","[1, 8, 15, 27, 28]",132820154271281,Co1Ni1P4H32O20
Mn6Al31Ni2,mp-30179,0.0,8.09377851,0.03618082044379012,"{25: 6, 13: 31, 28: 2}","[13, 25, 28]",1331256282,Mn6Al31Ni2
Ti2Al3Ni,mp-1217248,0.0,7.38142135,0.024952067750002804,"{22: 2, 13: 3, 28: 1}","[13, 22, 28]",133222281,Ti2Al3Ni1
Al3Ni,mp-622209,0.0,8.26975877,0.0,"{13: 3, 28: 1}","[13, 28]",133281,Al3Ni1
Al3Ga3Ni10,mp-1228603,0.0,8.21326806,0.0,"{13: 3, 31: 3, 28: 10}","[13, 28, 31]",1332810313,Al3Ga3Ni10
Al3ZnNi12,mp-1229039,0.0,7.85646336,0.004389708124999281,"{13: 3, 30: 1, 28: 12}","[13, 28, 30]",1332812301,Al3Zn1Ni12
Hf(AlNi4)3,mp-1224506,0.0,8.00591794,0.0036063269999999648,"{72: 1, 13: 3, 28: 12}","[13, 28, 72]",1332812721,Hf1Al3Ni12
Y3Al3NiGe2,mp-10209,0.0,6.08544112,0.0,"{39: 3, 13: 3, 28: 1, 32: 2}","[13, 28, 32, 39]",133281322393,Y3Al3Ni1Ge2
Er3Al3NiGe2,mp-12388,0.0,6.08918637,0.0,"{68: 3, 13: 3, 28: 1, 32: 2}","[13, 28, 32, 68]",133281322683,Er3Al3Ni1Ge2
YAl3Ni,mp-4054,0.0,6.39052679,0.0,"{39: 1, 13: 3, 28: 1}","[13, 28, 39]",133281391,Y1Al3Ni1
Zr2Al3Ni,mp-1215477,0.0,6.51340409,0.010162700833330263,"{40: 2, 13: 3, 28: 1}","[13, 28, 40]",133281402,Zr2Al3Ni1
Al3NiMo12,mp-1229051,0.0,8.14551306,0.04783933874999846,"{13: 3, 28: 1, 42: 12}","[13, 28, 42]",1332814212,Al3Ni1Mo12
U3Al3NiRu2,mp-1080528,0.0,9.79165063,0.0876015866666684,"{92: 3, 13: 3, 28: 1, 44: 2}","[13, 28, 44, 92]",133281442923,U3Al3Ni1Ru2
Tb3Al3NiPd2,mp-1217703,0.0,5.38713496,0.0,"{65: 3, 13: 3, 28: 1, 46: 2}","[13, 28, 46, 65]",133281462653,Tb3Al3Ni1Pd2
SmAl3Ni,mp-1208898,0.0,6.2647745,0.0,"{62: 1, 13: 3, 28: 1}","[13, 28, 62]",133281621,Sm1Al3Ni1
Hf2Al3Ni,mp-1223828,0.0,6.84695713,0.011862266111108966,"{72: 2, 13: 3, 28: 1}","[13, 28, 72]",133281722,Hf2Al3Ni1
Al3Ni2,mp-1057,0.0,7.84452714,0.0,"{13: 3, 28: 2}","[13, 28]",133282,Al3Ni2
YAl3Ni2,mp-5063,0.0,6.95556471,0.0,"{39: 1, 13: 3, 28: 2}","[13, 28, 39]",133282391,Y1Al3Ni2
LaAl3Ni2,mp-1211232,0.0,8.12975613,0.0,"{57: 1, 13: 3, 28: 2}","[13, 28, 57]",133282571,La1Al3Ni2
La5Al3Ni2,mp-569071,0.0,7.60030864,0.0,"{57: 5, 13: 3, 28: 2}","[13, 28, 57]",133282575,La5Al3Ni2
CeAl3Ni2,mp-20338,0.0,7.86542694,0.0,"{58: 1, 13: 3, 28: 2}","[13, 28, 58]",133282581,Ce1Al3Ni2
PrAl3Ni2,mp-30181,0.0,6.42682207,0.001841435000002889,"{59: 1, 13: 3, 28: 2}","[13, 28, 59]",133282591,Pr1Al3Ni2
NdAl3Ni2,mp-7186,0.0,6.53478792,0.0,"{60: 1, 13: 3, 28: 2}","[13, 28, 60]",133282601,Nd1Al3Ni2
SmAl3Ni2,mp-1208873,0.0,6.67582199,0.0,"{62: 1, 13: 3, 28: 2}","[13, 28, 62]",133282621,Sm1Al3Ni2
GdAl3Ni2,mp-1212604,0.0,6.63769598,0.0,"{64: 1, 13: 3, 28: 2}","[13, 28, 64]",133282641,Gd1Al3Ni2
TbAl3Ni2,mp-1208327,0.0,6.83524706,0.0,"{65: 1, 13: 3, 28: 2}","[13, 28, 65]",133282651,Tb1Al3Ni2
DyAl3Ni2,mp-1212853,0.0,6.88415763,0.0,"{66: 1, 13: 3, 28: 2}","[13, 28, 66]",133282661,Dy1Al3Ni2
HoAl3Ni2,mp-1212127,0.0,7.07661877,0.0,"{67: 1, 13: 3, 28: 2}","[13, 28, 67]",133282671,Ho1Al3Ni2
ErAl3Ni2,mp-13490,0.0,6.9360346,0.0,"{68: 1, 13: 3, 28: 2}","[13, 28, 68]",133282681,Er1Al3Ni2
TmAl3Ni2,mp-1190028,0.0,7.10324113,0.0,"{69: 1, 13: 3, 28: 2}","[13, 28, 69]",133282691,Tm1Al3Ni2
LuAl3Ni2,mp-1189515,0.0,6.97623093,0.0,"{71: 1, 13: 3, 28: 2}","[13, 28, 71]",133282711,Lu1Al3Ni2
Al3Ni2Pt,mp-1228921,0.0,9.19100318,0.046795699583331185,"{13: 3, 28: 2, 78: 1}","[13, 28, 78]",133282781,Al3Ni2Pt1
ThAl3Ni2,mp-30182,0.0,7.91553628,0.0,"{90: 1, 13: 3, 28: 2}","[13, 28, 90]",133282901,Th1Al3Ni2
UAl3Ni2,mp-2903,0.0,8.98773434,0.1052589149999994,"{92: 1, 13: 3, 28: 2}","[13, 28, 92]",133282921,U1Al3Ni2
Er5Al3Ni3Ge4,mp-638521,0.0,6.17428444,0.0,"{68: 5, 13: 3, 28: 3, 32: 4}","[13, 28, 32, 68]",133283324685,Er5Al3Ni3Ge4
La6Al3Ni4SnRu,mp-1211354,0.0,8.15434717,0.0035154811944453357,"{57: 6, 13: 3, 28: 4, 50: 1, 44: 1}","[13, 28, 44, 50, 57]",133284441501576,La6Al3Ni4Sn1Ru1
Al3Ni5,mp-16514,0.0,8.91322567,0.0,"{13: 3, 28: 5}","[13, 28]",133285,Al3Ni5
TiAl4Ni15,mp-1217285,0.0,8.48650569,0.006356241499999804,"{22: 1, 13: 4, 28: 15}","[13, 22, 28]",1342212815,Ti1Al4Ni15
Al4VNi15,mp-1228506,0.0,8.2805284,0.003028511999998429,"{13: 4, 23: 1, 28: 15}","[13, 23, 28]",1342312815,Al4V1Ni15
Al4CrNi15,mp-1228914,0.0,8.41548781,0.0018046549999972683,"{13: 4, 24: 1, 28: 15}","[13, 24, 28]",1342412815,Al4Cr1Ni15
Tb2Al4NiGe2,mp-570138,0.0,6.67695984,0.0,"{65: 2, 13: 4, 28: 1, 32: 2}","[13, 28, 32, 65]",134281322652,Tb2Al4Ni1Ge2
Er2Al4NiGe2,mp-1205834,0.0,6.72522713,0.0,"{68: 2, 13: 4, 28: 1, 32: 2}","[13, 28, 32, 68]",134281322682,Er2Al4Ni1Ge2
YAl4Ni,mp-3602,0.0,6.9517866,0.0,"{39: 1, 13: 4, 28: 1}","[13, 28, 39]",134281391,Y1Al4Ni1
Al4Ni15,mp-1228713,0.0,7.85286086,0.08960537473684305,"{13: 4, 28: 15}","[13, 28]",1342815,Al4Ni15
Al4Ni15Ge,mp-1228288,0.0,8.43768724,0.0028196464999989956,"{13: 4, 28: 15, 32: 1}","[13, 28, 32]",1342815321,Al4Ni15Ge1
Al4Ni15Sn,mp-1228460,0.0,8.54182923,0.009885515749997964,"{13: 4, 28: 15, 50: 1}","[13, 28, 50]",1342815501,Al4Ni15Sn1
Al4Ni15Sb,mp-1228500,0.0,8.78520972,0.0014369084999970028,"{13: 4, 28: 15, 51: 1}","[13, 28, 51]",1342815511,Al4Ni15Sb1
TaAl4Ni15,mp-1218140,0.0,8.38261319,0.005408968499999389,"{73: 1, 13: 4, 28: 15}","[13, 28, 73]",1342815731,Ta1Al4Ni15
CeAl4Ni,mp-30750,0.0,7.8699591,0.0,"{58: 1, 13: 4, 28: 1}","[13, 28, 58]",134281581,Ce1Al4Ni1
PrAl4Ni,mp-1095484,0.0,6.75307511,0.0,"{59: 1, 13: 4, 28: 1}","[13, 28, 59]",134281591,Pr1Al4Ni1
NdAl4Ni,mp-1102135,0.0,6.66243269,0.0,"{60: 1, 13: 4, 28: 1}","[13, 28, 60]",134281601,Nd1Al4Ni1
SmAl4Ni,mp-11945,0.0,6.72470455,0.0,"{62: 1, 13: 4, 28: 1}","[13, 28, 62]",134281621,Sm1Al4Ni1
GdAl4Ni,mp-1095605,0.0,6.76138544,0.0,"{64: 1, 13: 4, 28: 1}","[13, 28, 64]",134281641,Gd1Al4Ni1
TbAl4Ni,mp-4353,0.0,6.92564657,0.0,"{65: 1, 13: 4, 28: 1}","[13, 28, 65]",134281651,Tb1Al4Ni1
DyAl4Ni,mp-31180,0.0,6.93673218,0.0,"{66: 1, 13: 4, 28: 1}","[13, 28, 66]",134281661,Dy1Al4Ni1
HoAl4Ni,mp-16504,0.0,6.91935875,0.0,"{67: 1, 13: 4, 28: 1}","[13, 28, 67]",134281671,Ho1Al4Ni1
ErAl4Ni,mp-31183,0.0,6.97104763,0.0,"{68: 1, 13: 4, 28: 1}","[13, 28, 68]",134281681,Er1Al4Ni1
TmAl4Ni,mp-16518,0.0,6.95971242,0.0,"{69: 1, 13: 4, 28: 1}","[13, 28, 69]",134281691,Tm1Al4Ni1
LuAl4Ni,mp-16509,0.0,6.96515087,0.0,"{71: 1, 13: 4, 28: 1}","[13, 28, 71]",134281711,Lu1Al4Ni1
Al4Ni3,mp-16515,0.0,8.41403294,0.0,"{13: 4, 28: 3}","[13, 28]",134283,Al4Ni3
Al4Ni3Pt,mp-1228186,0.0,9.28110938,0.034728817187500205,"{13: 4, 28: 3, 78: 1}","[13, 28, 78]",134283781,Al4Ni3Pt1
CaNiBP2H3O10,mp-23811,4.0596,6.26149503,0.006346542731499483,"{20: 1, 28: 1, 5: 1, 15: 2, 1: 3, 8: 10}","[1, 5, 8, 15, 20, 28]",1351810152201281,Ca1Ni1B1P2H3O10
Al5FeNi,mp-1228374,0.0,8.12645243,0.037798949761903344,"{13: 5, 26: 1, 28: 1}","[13, 26, 28]",135261281,Al5Fe1Ni1
ZrAl5Ni2,mp-30183,0.0,7.94716515,0.0,"{40: 1, 13: 5, 28: 2}","[13, 28, 40]",135282401,Zr1Al5Ni2
LaAl5Ni2,mp-1080524,0.0,8.30136708,0.0,"{57: 1, 13: 5, 28: 2}","[13, 28, 57]",135282571,La1Al5Ni2
CeAl5Ni2,mp-4817,0.0,8.12133183,0.0,"{58: 1, 13: 5, 28: 2}","[13, 28, 58]",135282581,Ce1Al5Ni2
PrAl5Ni2,mp-11352,0.0,7.20197425,0.0,"{59: 1, 13: 5, 28: 2}","[13, 28, 59]",135282591,Pr1Al5Ni2
HfAl5Ni2,mp-1025457,0.0,8.0723677,0.012345198749999398,"{72: 1, 13: 5, 28: 2}","[13, 28, 72]",135282721,Hf1Al5Ni2
Y2(AlNi)5,mp-1216255,0.0,6.77152164,0.0,"{39: 2, 13: 5, 28: 5}","[13, 28, 39]",135285392,Y2Al5Ni5
Er2(AlNi)5,mp-1225250,0.0,6.98836821,0.009383999246034058,"{68: 2, 13: 5, 28: 5}","[13, 28, 68]",135285682,Er2Al5Ni5
Na6Ni3B9P6H3O38,mp-1205268,0.7654,0.88665088,0.07567794999911115,"{11: 6, 28: 3, 5: 9, 15: 6, 1: 3, 8: 38}","[1, 5, 8, 11, 15, 28]",1359838116156283,Na6Ni3B9P6H3O38
NiB12(H3O)12,mp-728484,0.10850000000000004,-1.82380791,0.6630302134904378,"{28: 1, 5: 12, 1: 36, 8: 12}","[1, 5, 8, 28]",136512812281,Ni1B12H36O12
NiH3C5NO6,mp-1220790,0.0,-0.6241744,0.6371462876302054,"{28: 1, 1: 3, 6: 5, 7: 1, 8: 6}","[1, 6, 7, 8, 28]",13657186281,Ni1H3C5N1O6
NiH36C12S6(I2O3)2,mp-766473,1.871,0.15043757,0.18884118271794748,"{28: 1, 1: 36, 6: 12, 16: 6, 53: 4, 8: 6}","[1, 6, 8, 16, 28, 53]",13661286166281534,Ni1H36C12S6I4O6
NiH36(C5N)12,mp-1211116,0.011099999999999888,2.25171191,0.21069270605504542,"{28: 1, 1: 36, 6: 60, 7: 12}","[1, 6, 7, 28]",136660712281,Ni1H36C60N12
La2Al7Ni,mp-1225981,0.0,7.63099342,0.005589797749989245,"{57: 2, 13: 7, 28: 1}","[13, 28, 57]",137281572,La2Al7Ni1
NaNi2H3(SO5)2,mp-1221038,3.5968,1.78969646,0.0,"{11: 1, 28: 2, 1: 3, 16: 2, 8: 10}","[1, 8, 11, 16, 28]",13810111162282,Na1Ni2H3S2O10
NaNi2H3(SeO5)2,mp-1221027,2.7127,1.31322192,0.0,"{11: 1, 28: 2, 1: 3, 34: 2, 8: 10}","[1, 8, 11, 28, 34]",13810111282342,Na1Ni2H3Se2O10
NaNi2Mo2H3O10,mp-1220997,3.1906999999999996,4.2570323,0.0,"{11: 1, 28: 2, 42: 2, 1: 3, 8: 10}","[1, 8, 11, 28, 42]",13810111282422,Na1Ni2Mo2H3O10
KMgNi2H3(SeO5)2,mp-1233156,1.6715000000000002,2.04707623,0.1374972872807101,"{19: 1, 12: 1, 28: 2, 1: 3, 34: 2, 8: 10}","[1, 8, 12, 19, 28, 34]",13810121191282342,K1Mg1Ni2H3Se2O10
KCaNi2H3(SeO5)2,mp-1233117,2.2301,0.95430065,0.1516925633245627,"{19: 1, 20: 1, 28: 2, 1: 3, 34: 2, 8: 10}","[1, 8, 19, 20, 28, 34]",13810191201282342,K1Ca1Ni2H3Se2O10
KNi2H3(SeO5)2,mp-1223496,2.6967,0.85850854,0.0,"{19: 1, 28: 2, 1: 3, 34: 2, 8: 10}","[1, 8, 19, 28, 34]",13810191282342,K1Ni2H3Se2O10
NiAs3H3OF18,mp-604978,0.046499999999999986,-1.89974217,0.027842444615377104,"{28: 1, 33: 3, 1: 3, 8: 1, 9: 18}","[1, 8, 9, 28, 33]",1381918281333,Ni1As3H3O1F18
Ca(Al4Ni)2,mp-1202535,0.0,7.46482926,0.0013025745454564586,"{20: 1, 13: 8, 28: 2}","[13, 20, 28]",138201282,Ca1Al8Ni2
TbAl8Ni3,mp-1217596,0.0,6.86343307,0.2363922236111078,"{65: 1, 13: 8, 28: 3}","[13, 28, 65]",138283651,Tb1Al8Ni3
LuAl8Ni3,mp-1222497,0.0,6.96512937,0.2226020761111105,"{71: 1, 13: 8, 28: 3}","[13, 28, 71]",138283711,Lu1Al8Ni3
YNiH3SO7,mp-744434,4.4271,1.91842383,0.0,"{39: 1, 28: 1, 1: 3, 16: 1, 8: 7}","[1, 8, 16, 28, 39]",1387161281391,Y1Ni1H3S1O7
Na4NiMo6(H19O20)2,mp-1195146,2.8117,1.76277648,0.025593711081461024,"{11: 4, 28: 1, 42: 6, 1: 38, 8: 40}","[1, 8, 11, 28, 42]",138840114281426,Na4Ni1Mo6H38O40
Na4NiH38(W3O20)2,mp-1202939,3.8222,2.45364706,0.03117031426967376,"{11: 4, 28: 1, 1: 38, 74: 6, 8: 40}","[1, 8, 11, 28, 74]",138840114281746,Na4Ni1H38W6O40
CaAl9Ni,mp-3479,0.0,6.85323088,0.0,"{20: 1, 13: 9, 28: 1}","[13, 20, 28]",139201281,Ca1Al9Ni1
Al9Co2Ni,mp-1228742,0.0,7.86407441,0.019566181744792743,"{13: 9, 27: 2, 28: 1}","[13, 27, 28]",139272281,Al9Co2Ni1
SrAl9Ni2,mp-1103130,0.0,6.85874973,0.010969395555559203,"{38: 1, 13: 9, 28: 2}","[13, 28, 38]",139282381,Sr1Al9Ni2
BaAl9Ni2,mp-12549,0.0,6.9322286,0.004556505555559198,"{56: 1, 13: 9, 28: 2}","[13, 28, 56]",139282561,Ba1Al9Ni2
Gd(Al3Ni)3,mp-568693,0.0,7.07388339,0.0,"{64: 1, 13: 9, 28: 3}","[13, 28, 64]",139283641,Gd1Al9Ni3
Er(Al3Ni)3,mp-571253,0.0,7.18163078,0.0,"{68: 1, 13: 9, 28: 3}","[13, 28, 68]",139283681,Er1Al9Ni3
Nd5Si10NiRu3,mp-1220887,0.0,6.41814457,0.09391874763157926,"{60: 5, 14: 10, 28: 1, 44: 3}","[14, 28, 44, 60]",1410281443605,Nd5Si10Ni1Ru3
Pr15Si10Ni7,mp-569462,0.0,5.06085784,0.0,"{59: 15, 14: 10, 28: 7}","[14, 28, 59]",14102875915,Pr15Si10Ni7
Sc6Si11Ni18,mp-570147,0.0,8.62441635,0.0,"{21: 6, 14: 11, 28: 18}","[14, 21, 28]",14112162818,Sc6Si11Ni18
Ce14Si11Ni6,mp-624355,0.0,7.80631639,0.0016022637419341734,"{58: 14, 14: 11, 28: 6}","[14, 28, 58]",14112865814,Ce14Si11Ni6
Pr14Si11Ni6,mp-648256,0.0,5.04220144,0.028794160967739124,"{59: 14, 14: 11, 28: 6}","[14, 28, 59]",14112865914,Pr14Si11Ni6
SiNi2P,mp-510422,0.0,9.11988511,0.02154868041666802,"{14: 1, 28: 2, 15: 1}","[14, 15, 28]",141151282,Si1Ni2P1
Cu2SiNiS4,mp-1078922,0.0,5.61944319,0.28534142487499903,"{29: 2, 14: 1, 28: 1, 16: 4}","[14, 16, 28, 29]",141164281292,Cu2Si1Ni1S4
CaSiNi2,mp-10797,0.0,6.05297171,0.0,"{20: 1, 14: 1, 28: 2}","[14, 20, 28]",141201282,Ca1Si1Ni2
ScSiNi,mp-22426,0.0,7.11457212,0.0,"{21: 1, 14: 1, 28: 1}","[14, 21, 28]",141211281,Sc1Si1Ni1
CaMgNiH4,mp-24052,1.8729999999999998,3.04395775,0.0,"{20: 1, 12: 1, 28: 1, 1: 4}","[1, 12, 20, 28]",14121201281,Ca1Mg1Ni1H4
SrMgNiH4,mp-643293,1.8123999999999998,2.98317983,0.0,"{38: 1, 12: 1, 28: 1, 1: 4}","[1, 12, 28, 38]",14121281381,Sr1Mg1Ni1H4
YMg(NiH)4,mp-1079257,0.0,5.62842562,0.10562610075000123,"{39: 1, 12: 1, 28: 4, 1: 4}","[1, 12, 28, 39]",14121284391,Y1Mg1Ni4H4
CeMg(NiH)4,mp-1213828,0.0,7.21488469,0.0,"{58: 1, 12: 1, 28: 4, 1: 4}","[1, 12, 28, 58]",14121284581,Ce1Mg1Ni4H4
NdMg(NiH)4,mp-1189636,0.0,5.80953418,0.011593746083335077,"{60: 1, 12: 1, 28: 4, 1: 4}","[1, 12, 28, 60]",14121284601,Nd1Mg1Ni4H4
TiSiNi,mp-510409,0.0,8.35307614,0.0,"{22: 1, 14: 1, 28: 1}","[14, 22, 28]",141221281,Ti1Si1Ni1
Ti2SiNi3,mp-1208276,0.0,8.36829368,0.0242765647916654,"{22: 2, 14: 1, 28: 3}","[14, 22, 28]",141222283,Ti2Si1Ni3
Mg2NiH4,mp-697331,1.5718999999999999,3.37825895,0.0,"{12: 2, 28: 1, 1: 4}","[1, 12, 28]",14122281,Mg2Ni1H4
Si12Ni31,mp-27276,0.0,9.46251987,0.00236102901162738,"{14: 12, 28: 31}","[14, 28]",14122831,Si12Ni31
VSiNi,mp-1095532,0.0,8.63249284,0.0,"{23: 1, 14: 1, 28: 1}","[14, 23, 28]",141231281,V1Si1Ni1
V3SiNi2,mp-504625,0.0,7.69738953,0.09490125891666601,"{23: 3, 14: 1, 28: 2}","[14, 23, 28]",141233282,V3Si1Ni2
CrSiNi,mp-1103085,0.0,8.59548779,0.07911596858333247,"{24: 1, 14: 1, 28: 1}","[14, 24, 28]",141241281,Cr1Si1Ni1
Cr3SiNi2,mp-505629,0.0,7.83617577,0.21465113027777782,"{24: 3, 14: 1, 28: 2}","[14, 24, 28]",141243282,Cr3Si1Ni2
MnSiNi,mp-20949,0.0,8.5004566,0.0,"{25: 1, 14: 1, 28: 1}","[14, 25, 28]",141251281,Mn1Si1Ni1
MnSiNi2,mp-999508,0.0,8.79497528,0.06936584595588613,"{25: 1, 14: 1, 28: 2}","[14, 25, 28]",141251282,Mn1Si1Ni2
Mn2SiNi,mp-999558,0.0,8.66071215,0.08161586922794228,"{25: 2, 14: 1, 28: 1}","[14, 25, 28]",141252281,Mn2Si1Ni1
Mn2SiNi2Ge,mp-1221860,0.0,7.81037978,0.0,"{25: 2, 14: 1, 28: 2, 32: 1}","[14, 25, 28, 32]",141252282321,Mn2Si1Ni2Ge1
Mn3SiNi,mp-1210618,0.0,8.12955273,0.08422690676293243,"{25: 3, 14: 1, 28: 1}","[14, 25, 28]",141253281,Mn3Si1Ni1
Mn3SiNi2,mp-669554,0.0,6.95104598,0.08168064085488602,"{25: 3, 14: 1, 28: 2}","[14, 25, 28]",141253282,Mn3Si1Ni2
FeSiNi,mp-1103705,0.0,8.69028113,0.050167074791667154,"{26: 1, 14: 1, 28: 1}","[14, 26, 28]",141261281,Fe1Si1Ni1
Fe2SiNi,mp-1207121,0.0,8.30838168,0.06555131338709419,"{26: 2, 14: 1, 28: 1}","[14, 26, 28]",141262281,Fe2Si1Ni1
Fe3SiNi,mp-1212682,0.0,7.43736132,0.02220881070967451,"{26: 3, 14: 1, 28: 1}","[14, 26, 28]",141263281,Fe3Si1Ni1
CoSiNi,mp-1102115,0.0,9.036419,0.010381849166664736,"{27: 1, 14: 1, 28: 1}","[14, 27, 28]",141271281,Co1Si1Ni1
SiNi,mp-351,0.0,10.03041751,0.0,"{14: 1, 28: 1}","[14, 28]",141281,Si1Ni1
SrSiNi,mp-1217970,0.0,4.59325772,0.037166409583333504,"{38: 1, 14: 1, 28: 1}","[14, 28, 38]",141281381,Sr1Si1Ni1
YSiNi,mp-20557,0.0,6.31521221,0.0,"{39: 1, 14: 1, 28: 1}","[14, 28, 39]",141281391,Y1Si1Ni1
ZrSiNi,mp-1103272,0.0,7.25166152,0.0,"{40: 1, 14: 1, 28: 1}","[14, 28, 40]",141281401,Zr1Si1Ni1
NbSiNi,mp-1102658,0.0,8.08292279,0.0,"{41: 1, 14: 1, 28: 1}","[14, 28, 41]",141281411,Nb1Si1Ni1
Nb4SiNi,mp-22396,0.0,6.12413588,0.0041528252777780494,"{41: 4, 14: 1, 28: 1}","[14, 28, 41]",141281414,Nb4Si1Ni1
SiNiMo,mp-1219282,0.0,10.05211638,0.11567550583333563,"{14: 1, 28: 1, 42: 1}","[14, 28, 42]",141281421,Si1Ni1Mo1
SiTc2Ni,mp-1096637,0.0,-3.34707613,3.537755395625,"{14: 1, 43: 2, 28: 1}","[14, 28, 43]",141281432,Si1Tc2Ni1
SiNiPd,mp-1080033,0.0,8.14821919,0.0,"{14: 1, 28: 1, 46: 1}","[14, 28, 46]",141281461,Si1Ni1Pd1
SiNiSb,mp-1077588,0.0,8.12478364,0.3364462655555549,"{14: 1, 28: 1, 51: 1}","[14, 28, 51]",141281511,Si1Ni1Sb1
LaSiNi,mp-7030,0.0,8.08751254,0.0,"{57: 1, 14: 1, 28: 1}","[14, 28, 57]",141281571,La1Si1Ni1
CeSiNi,mp-20710,0.0,7.93461314,0.0,"{58: 1, 14: 1, 28: 1}","[14, 28, 58]",141281581,Ce1Si1Ni1
PrSiNi,mp-1206335,0.0,5.46961374,0.0,"{59: 1, 14: 1, 28: 1}","[14, 28, 59]",141281591,Pr1Si1Ni1
NdSiNi,mp-1206381,0.0,5.61044322,0.0,"{60: 1, 14: 1, 28: 1}","[14, 28, 60]",141281601,Nd1Si1Ni1
Pm2SiNi,mp-866209,0.0,5.10394681,0.0,"{61: 2, 14: 1, 28: 1}","[14, 28, 61]",141281612,Pm2Si1Ni1
TbSiNi,mp-1208359,0.0,6.13138998,0.0,"{65: 1, 14: 1, 28: 1}","[14, 28, 65]",141281651,Tb1Si1Ni1
DySiNi,mp-1212898,0.0,6.273577,0.0,"{66: 1, 14: 1, 28: 1}","[14, 28, 66]",141281661,Dy1Si1Ni1
HoSiNi,mp-1212133,0.0,6.14288821,0.0,"{67: 1, 14: 1, 28: 1}","[14, 28, 67]",141281671,Ho1Si1Ni1
ErSiNi,mp-1213005,0.0,6.37899069,0.0,"{68: 1, 14: 1, 28: 1}","[14, 28, 68]",141281681,Er1Si1Ni1
HfSiNi,mp-1101952,0.0,7.73353378,0.0,"{72: 1, 14: 1, 28: 1}","[14, 28, 72]",141281721,Hf1Si1Ni1
TaSiNi,mp-1208557,0.0,8.54315332,0.0,"{73: 1, 14: 1, 28: 1}","[14, 28, 73]",141281731,Ta1Si1Ni1
SiNiW,mp-1219268,0.0,9.89723572,0.11979819208333353,"{14: 1, 28: 1, 74: 1}","[14, 28, 74]",141281741,Si1Ni1W1
Tl2SiNi,mp-631548,0.0,7.5290845,0.8742779852083338,"{81: 2, 14: 1, 28: 1}","[14, 28, 81]",141281812,Tl2Si1Ni1
ThSiNi,mp-1077789,0.0,7.86918537,0.0,"{90: 1, 14: 1, 28: 1}","[14, 28, 90]",141281901,Th1Si1Ni1
USiNi,mp-504984,0.0,11.01880799,0.0,"{92: 1, 14: 1, 28: 1}","[14, 28, 92]",141281921,U1Si1Ni1
SiNi2,mp-1118,0.0,10.11620412,0.0,"{14: 1, 28: 2}","[14, 28]",141282,Si1Ni2
ZnSiNi2,mp-1215533,0.0,8.32568715,0.046232442500000026,"{30: 1, 14: 1, 28: 2}","[14, 28, 30]",141282301,Zn1Si1Ni2
Zn3SiNi2,mp-17260,0.0,6.21289969,0.0,"{30: 3, 14: 1, 28: 2}","[14, 28, 30]",141282303,Zn3Si1Ni2
EuSiNi2Ge,mp-1225155,0.0,6.12266468,0.0,"{63: 1, 14: 1, 28: 2, 32: 1}","[14, 28, 32, 63]",141282321631,Eu1Si1Ni2Ge1
SiNi2As,mp-21598,0.0,8.26547237,0.039941125312498826,"{14: 1, 28: 2, 33: 1}","[14, 28, 33]",141282331,Si1Ni2As1
Nb3SiNi2,mp-540747,0.0,6.91860298,0.035240854179294345,"{41: 3, 14: 1, 28: 2}","[14, 28, 41]",141282413,Nb3Si1Ni2
Ta3SiNi2,mp-505600,0.0,7.47078904,0.04216263124999742,"{73: 3, 14: 1, 28: 2}","[14, 28, 73]",141282733,Ta3Si1Ni2
SiNi3,mp-828,0.0,9.50914928,0.0,"{14: 1, 28: 3}","[14, 28]",141283,Si1Ni3
Zr2SiNi3,mp-1215663,0.0,7.40905808,0.04050407041666748,"{40: 2, 14: 1, 28: 3}","[14, 28, 40]",141283402,Zr2Si1Ni3
Nb2SiNi3,mp-1220732,0.0,7.63343322,0.029226747888889015,"{41: 2, 14: 1, 28: 3}","[14, 28, 41]",141283412,Nb2Si1Ni3
SiNi3Mo2,mp-1219280,0.0,9.15457682,0.0,"{14: 1, 28: 3, 42: 2}","[14, 28, 42]",141283422,Si1Ni3Mo2
ErSiNi3,mp-1225459,0.0,6.64514207,0.014741681499998549,"{68: 1, 14: 1, 28: 3}","[14, 28, 68]",141283681,Er1Si1Ni3
Er4SiNi3,mp-1225662,0.0,4.75420383,0.006355637437500228,"{68: 4, 14: 1, 28: 3}","[14, 28, 68]",141283684,Er4Si1Ni3
Hf2SiNi3,mp-1224364,0.0,7.70187318,0.047791383916667485,"{72: 2, 14: 1, 28: 3}","[14, 28, 72]",141283722,Hf2Si1Ni3
Ta2SiNi3,mp-1218039,0.0,8.15423199,0.032133078583338914,"{73: 2, 14: 1, 28: 3}","[14, 28, 73]",141283732,Ta2Si1Ni3