formula,material_id,band_gap,efermi,energy_above_hull,comp_atoms,sorted_keys_comp_atoms,comp_number,new_formula
MgMn4NiO8,mp-2228529,0.0,3.6106751,0.09873919318452273,"{12: 1, 25: 4, 28: 1, 8: 8}","[8, 12, 25, 28]",88121254281,Mg1Mn4Ni1O8
MgMn4(NiO4)2,mp-2232105,0.7515999999999998,4.11490073,0.17994324133333794,"{12: 1, 25: 4, 28: 2, 8: 8}","[8, 12, 25, 28]",88121254282,Mg1Mn4Ni2O8
MgFe2(NiO2)4,mp-2232243,1.8750999999999998,4.07588558,0.25444878200000165,"{12: 1, 26: 2, 28: 4, 8: 8}","[8, 12, 26, 28]",88121262284,Mg1Fe2Ni4O8
MgFe4NiO8,mp-1221969,1.5845000000000002,3.03843833,0.08150724535714371,"{12: 1, 26: 4, 28: 1, 8: 8}","[8, 12, 26, 28]",88121264281,Mg1Fe4Ni1O8
MgFe4(NiO4)2,mp-2232663,0.02829999999999977,4.95428918,0.26025809100000163,"{12: 1, 26: 4, 28: 2, 8: 8}","[8, 12, 26, 28]",88121264282,Mg1Fe4Ni2O8
MgCo(NiO2)4,mp-2226480,0.1488999999999998,3.97793558,0.06648307855158908,"{12: 1, 27: 1, 28: 4, 8: 8}","[8, 12, 27, 28]",88121271284,Mg1Co1Ni4O8
MgCo2(NiO2)4,mp-2232265,0.7404000000000002,4.17627771,0.23891092000000036,"{12: 1, 27: 2, 28: 4, 8: 8}","[8, 12, 27, 28]",88121272284,Mg1Co2Ni4O8
MgCo3NiO8,mp-2219051,0.9265999999999999,1.93515223,0.04573111749999281,"{12: 1, 27: 3, 28: 1, 8: 8}","[8, 12, 27, 28]",88121273281,Mg1Co3Ni1O8
MgCo4NiO8,mp-2241254,0.1713,3.29511291,0.1668701896428626,"{12: 1, 27: 4, 28: 1, 8: 8}","[8, 12, 27, 28]",88121274281,Mg1Co4Ni1O8
MgCo4(NiO4)2,mp-2232368,0.0,4.06495278,0.24999713718750005,"{12: 1, 27: 4, 28: 2, 8: 8}","[8, 12, 27, 28]",88121274282,Mg1Co4Ni2O8
La4MgNiO8,mp-2228439,1.5546999999999995,7.4632853,0.0944646582142834,"{57: 4, 12: 1, 28: 1, 8: 8}","[8, 12, 28, 57]",88121281574,La4Mg1Ni1O8
MgNi(WO4)2,mp-2218246,3.3830999999999998,2.08151043,0.07231795166666544,"{12: 1, 28: 1, 74: 2, 8: 8}","[8, 12, 28, 74]",88121281742,Mg1Ni1W2O8
MgRe2NiO8,mp-2218222,0.2445999999999997,2.50245248,0.4049425641667037,"{12: 1, 75: 2, 28: 1, 8: 8}","[8, 12, 28, 75]",88121281752,Mg1Re2Ni1O8
MgCu2(NiO4)2,mp-1041446,0.0,1.60830963,0.2528014414102522,"{12: 1, 29: 2, 28: 2, 8: 8}","[8, 12, 28, 29]",88121282292,Mg1Cu2Ni2O8
MgNi2(MoO4)2,mp-2218442,1.1681999999999997,4.00478355,0.20210130442306973,"{12: 1, 28: 2, 42: 2, 8: 8}","[8, 12, 28, 42]",88121282422,Mg1Ni2Mo2O8
MgNi2(WO4)2,mp-2219819,2.0277000000000003,3.18335423,0.25720806230769444,"{12: 1, 28: 2, 74: 2, 8: 8}","[8, 12, 28, 74]",88121282742,Mg1Ni2W2O8
MgZn2Ni3O8,mp-2228510,0.07739999999999991,2.8491591,0.14795833845238082,"{12: 1, 30: 2, 28: 3, 8: 8}","[8, 12, 28, 30]",88121283302,Mg1Zn2Ni3O8
Ba2YMgNi3O8,mp-2232202,0.0,3.21578264,0.24966665199999394,"{56: 2, 39: 1, 12: 1, 28: 3, 8: 8}","[8, 12, 28, 39, 56]",88121283391562,Ba2Y1Mg1Ni3O8
Mg(NiO2)4,mp-756552,0.7689000000000004,2.69476694,0.03737611559829013,"{12: 1, 28: 4, 8: 8}","[8, 12, 28]",88121284,Mg1Ni4O8
MgCu2(NiO2)4,mp-2228671,0.0,4.38554038,0.21360970633333398,"{12: 1, 29: 2, 28: 4, 8: 8}","[8, 12, 28, 29]",88121284292,Mg1Cu2Ni4O8
MgZn(NiO2)4,mp-2228001,0.4270999999999998,3.78631027,0.07964118996031644,"{12: 1, 30: 1, 28: 4, 8: 8}","[8, 12, 28, 30]",88121284301,Mg1Zn1Ni4O8
MgZn2(NiO2)4,mp-2226868,0.0,3.59632408,0.17063061500000476,"{12: 1, 30: 2, 28: 4, 8: 8}","[8, 12, 28, 30]",88121284302,Mg1Zn2Ni4O8
SrMg(NiO2)4,mp-2228500,0.0,2.94439579,0.16877022964284638,"{38: 1, 12: 1, 28: 4, 8: 8}","[8, 12, 28, 38]",88121284381,Sr1Mg1Ni4O8
MgCd2(NiO2)4,mp-2232399,0.0,3.41984163,0.173682677666668,"{12: 1, 48: 2, 28: 4, 8: 8}","[8, 12, 28, 48]",88121284482,Mg1Cd2Ni4O8
BaMg(NiO2)4,mp-2228542,0.0,2.94954168,0.23036426240079333,"{56: 1, 12: 1, 28: 4, 8: 8}","[8, 12, 28, 56]",88121284561,Ba1Mg1Ni4O8
Mg2Nb2NiO8,mp-1046848,3.0506,2.32569699,0.018592628076918416,"{12: 2, 41: 2, 28: 1, 8: 8}","[8, 12, 28, 41]",88122281412,Mg2Nb2Ni1O8
Mg2Ta2NiO8,mp-1046134,3.4118000000000004,2.53488559,0.017765058974356762,"{12: 2, 73: 2, 28: 1, 8: 8}","[8, 12, 28, 73]",88122281732,Mg2Ta2Ni1O8
Mg2Ni3O8,mp-1394387,1.1973999999999996,3.19893464,0.06646860670940224,"{12: 2, 28: 3, 8: 8}","[8, 12, 28]",88122283,Mg2Ni3O8
Mg3MnNi3O8,mp-1222170,2.0422000000000002,3.80367142,0.0,"{12: 3, 25: 1, 28: 3, 8: 8}","[8, 12, 25, 28]",88123251283,Mg3Mn1Ni3O8
Mg6AlNiO8,mp-1033094,0.9376999999999995,7.40776416,0.15424801140624922,"{12: 6, 13: 1, 28: 1, 8: 8}","[8, 12, 13, 28]",88126131281,Mg6Al1Ni1O8
Mg6SiNiO8,mp-1031808,0.0,9.26571382,0.4093995831249986,"{12: 6, 14: 1, 28: 1, 8: 8}","[8, 12, 14, 28]",88126141281,Mg6Si1Ni1O8
CaMg6NiO8,mp-1033006,2.9159000000000006,4.40675624,0.08652332374999983,"{20: 1, 12: 6, 28: 1, 8: 8}","[8, 12, 20, 28]",88126201281,Ca1Mg6Ni1O8
Mg6TiNiO8,mp-1031881,0.0,8.06420875,0.24255988953124952,"{12: 6, 22: 1, 28: 1, 8: 8}","[8, 12, 22, 28]",88126221281,Mg6Ti1Ni1O8
Mg6VNiO8,mp-1031776,0.047900000000000276,7.01036746,0.09754897125000017,"{12: 6, 23: 1, 28: 1, 8: 8}","[8, 12, 23, 28]",88126231281,Mg6V1Ni1O8
Mg6CrNiO8,mp-1031671,0.0,7.2150893,0.12341202468749923,"{12: 6, 24: 1, 28: 1, 8: 8}","[8, 12, 24, 28]",88126241281,Mg6Cr1Ni1O8
Mg6MnNiO8,mp-1031818,0.8982000000000001,6.78336995,0.04174579343750029,"{12: 6, 25: 1, 28: 1, 8: 8}","[8, 12, 25, 28]",88126251281,Mg6Mn1Ni1O8
Mg6FeNiO8,mp-1099232,0.0,6.92392584,0.0906588809374993,"{12: 6, 26: 1, 28: 1, 8: 8}","[8, 12, 26, 28]",88126261281,Mg6Fe1Ni1O8
Mg6CoNiO8,mp-1032269,1.7108999999999996,5.18202798,0.07764481046875016,"{12: 6, 27: 1, 28: 1, 8: 8}","[8, 12, 27, 28]",88126271281,Mg6Co1Ni1O8
Mg6CuNiO8,mp-1032112,0.0,5.89514958,0.04572917374999985,"{12: 6, 29: 1, 28: 1, 8: 8}","[8, 12, 28, 29]",88126281291,Mg6Cu1Ni1O8
Mg6ZnNiO8,mp-1032645,2.4809,4.80007289,0.034629588749998774,"{12: 6, 30: 1, 28: 1, 8: 8}","[8, 12, 28, 30]",88126281301,Mg6Zn1Ni1O8
SrMg6NiO8,mp-1031806,2.1786000000000003,4.32552803,0.19936948249999986,"{38: 1, 12: 6, 28: 1, 8: 8}","[8, 12, 28, 38]",88126281381,Sr1Mg6Ni1O8
YMg6NiO8,mp-1032757,0.8892000000000007,6.20108409,0.20340407183593712,"{39: 1, 12: 6, 28: 1, 8: 8}","[8, 12, 28, 39]",88126281391,Y1Mg6Ni1O8
Mg6NbNiO8,mp-1031823,0.0,7.5876493,0.30669600856249524,"{12: 6, 41: 1, 28: 1, 8: 8}","[8, 12, 28, 41]",88126281411,Mg6Nb1Ni1O8
Mg6CdNiO8,mp-1031652,1.5191,5.19898383,0.08268538874999898,"{12: 6, 48: 1, 28: 1, 8: 8}","[8, 12, 28, 48]",88126281481,Mg6Cd1Ni1O8
Mg6NiSnO8,mp-1031822,0.0,7.79545898,0.25253381812499853,"{12: 6, 28: 1, 50: 1, 8: 8}","[8, 12, 28, 50]",88126281501,Mg6Ni1Sn1O8
BaMg6NiO8,mp-1031870,0.38149999999999995,5.062648,0.39345934624999934,"{56: 1, 12: 6, 28: 1, 8: 8}","[8, 12, 28, 56]",88126281561,Ba1Mg6Ni1O8
HfMg6NiO8,mp-1031788,0.0,8.08693981,0.3502457801562491,"{72: 1, 12: 6, 28: 1, 8: 8}","[8, 12, 28, 72]",88126281721,Hf1Mg6Ni1O8
Mg6NiBiO8,mp-1031703,0.7655000000000003,7.0789459,0.2640635549999999,"{12: 6, 28: 1, 83: 1, 8: 8}","[8, 12, 28, 83]",88126281831,Mg6Ni1Bi1O8
AlNi3Se2ClO8,mp-1045571,1.4528999999999996,2.71813346,0.18771515873636435,"{13: 1, 28: 3, 34: 2, 17: 1, 8: 8}","[8, 13, 17, 28, 34]",88131171283342,Al1Ni3Se2Cl1O8
AlNi(WO4)2,mp-1254576,1.9588,6.40367121,0.04311559166666612,"{13: 1, 28: 1, 74: 2, 8: 8}","[8, 13, 28, 74]",88131281742,Al1Ni1W2O8
Ba2AlNi3O8,mp-1048224,0.0,3.62199395,0.3349913458035845,"{56: 2, 13: 1, 28: 3, 8: 8}","[8, 13, 28, 56]",88131283562,Ba2Al1Ni3O8
Rb5Si2NiO8,mp-543079,0.0020000000000000018,0.8394448,0.032490041631943356,"{37: 5, 14: 2, 28: 1, 8: 8}","[8, 14, 28, 37]",88142281375,Rb5Si2Ni1O8
Cs6Si2NiO8,mp-556265,3.087,1.83764445,0.017532499117648648,"{55: 6, 14: 2, 28: 1, 8: 8}","[8, 14, 28, 55]",88142281556,Cs6Si2Ni1O8
KFeNi(PO4)2,mp-1194949,2.4626,1.23163086,0.0,"{19: 1, 26: 1, 28: 1, 15: 2, 8: 8}","[8, 15, 19, 26, 28]",88152191261281,K1Fe1Ni1P2O8
SrCaNi(PO4)2,mp-1046437,3.5626,2.20603963,0.0237215954273573,"{38: 1, 20: 1, 28: 1, 15: 2, 8: 8}","[8, 15, 20, 28, 38]",88152201281381,Sr1Ca1Ni1P2O8
CaNi2(PO4)2,mp-1040914,3.1073000000000004,5.35096173,0.01208960420939853,"{20: 1, 28: 2, 15: 2, 8: 8}","[8, 15, 20, 28]",88152201282,Ca1Ni2P2O8
TiNi(PO4)2,mp-752647,2.0866999999999996,1.71284605,0.01805481277778398,"{22: 1, 28: 1, 15: 2, 8: 8}","[8, 15, 22, 28]",88152221281,Ti1Ni1P2O8
VNi(PO4)2,mp-1101213,0.0,2.87980038,0.04428325687500134,"{23: 1, 28: 1, 15: 2, 8: 8}","[8, 15, 23, 28]",88152231281,V1Ni1P2O8
CrNi(PO4)2,mp-775333,0.0,1.86530767,0.06281204812499652,"{24: 1, 28: 1, 15: 2, 8: 8}","[8, 15, 24, 28]",88152241281,Cr1Ni1P2O8
MnNi(PO4)2,mp-771700,0.0,1.89944948,0.034095144791669973,"{25: 1, 28: 1, 15: 2, 8: 8}","[8, 15, 25, 28]",88152251281,Mn1Ni1P2O8
FeNi(PO4)2,mp-780106,0.0,1.06492626,0.06893175791665662,"{26: 1, 28: 1, 15: 2, 8: 8}","[8, 15, 26, 28]",88152261281,Fe1Ni1P2O8
Fe2Ni(PO4)2,mp-17631,0.0,3.22903329,0.0,"{26: 2, 28: 1, 15: 2, 8: 8}","[8, 15, 26, 28]",88152262281,Fe2Ni1P2O8
CoNi(PO4)2,mp-765340,0.0,1.6561579,0.15870242145833213,"{27: 1, 28: 1, 15: 2, 8: 8}","[8, 15, 27, 28]",88152271281,Co1Ni1P2O8
CoNi2(PO4)2,mp-1226305,2.8633,3.01765813,0.007746150769240678,"{27: 1, 28: 2, 15: 2, 8: 8}","[8, 15, 27, 28]",88152271282,Co1Ni2P2O8
SrZnNi(PO4)2,mp-560864,0.0,3.60353921,0.01664380570512769,"{38: 1, 30: 1, 28: 1, 15: 2, 8: 8}","[8, 15, 28, 30, 38]",88152281301381,Sr1Zn1Ni1P2O8
SrNi(PO4)2,mp-1658552,0.0,0.95330101,0.15041879208336706,"{38: 1, 28: 1, 15: 2, 8: 8}","[8, 15, 28, 38]",88152281381,Sr1Ni1P2O8
Sr2Ni(PO4)2,mp-14884,4.2332,5.87257697,0.0,"{38: 2, 28: 1, 15: 2, 8: 8}","[8, 15, 28, 38]",88152281382,Sr2Ni1P2O8
NiSn(PO4)2,mp-757910,2.3900000000000006,2.52982618,0.03044459805555544,"{28: 1, 50: 1, 15: 2, 8: 8}","[8, 15, 28, 50]",88152281501,Ni1Sn1P2O8
NiSb(PO4)2,mp-754291,0.0,3.75333687,0.0856311544791657,"{28: 1, 51: 1, 15: 2, 8: 8}","[8, 15, 28, 51]",88152281511,Ni1Sb1P2O8
NiTe(PO4)2,mp-755844,2.6480000000000006,2.79771077,0.04950362197916203,"{28: 1, 52: 1, 15: 2, 8: 8}","[8, 15, 28, 52]",88152281521,Ni1Te1P2O8
Ba2Ni(PO4)2,mp-19491,0.8565999999999998,2.73157695,0.0,"{56: 2, 28: 1, 15: 2, 8: 8}","[8, 15, 28, 56]",88152281562,Ba2Ni1P2O8
NiP2(PbO4)2,mp-1202326,3.6820000000000004,3.27265304,0.0,"{28: 1, 15: 2, 82: 2, 8: 8}","[8, 15, 28, 82]",88152281822,Ni1P2Pb2O8
CuNi2(PO4)2,mp-510642,0.0,3.46068696,0.004077326346155097,"{29: 1, 28: 2, 15: 2, 8: 8}","[8, 15, 28, 29]",88152282291,Cu1Ni2P2O8
SrNi2(PO4)2,mp-18252,3.7853,2.54740132,0.0027060550641033743,"{38: 1, 28: 2, 15: 2, 8: 8}","[8, 15, 28, 38]",88152282381,Sr1Ni2P2O8
BaNi2(PO4)2,mp-18909,0.0,4.13289459,0.0,"{56: 1, 28: 2, 15: 2, 8: 8}","[8, 15, 28, 56]",88152282561,Ba1Ni2P2O8
Ni3(PO4)2,mp-22697,3.4185000000000003,3.08318302,0.0,"{28: 3, 15: 2, 8: 8}","[8, 15, 28]",88152283,Ni3P2O8
NiSO8,mp-1210147,0.0,-0.87982121,0.7237154842499987,"{28: 1, 16: 1, 8: 8}","[8, 16, 28]",88161281,Ni1S1O8
Ni(SO4)2,mp-772505,0.0,-0.66752819,0.05884595825758332,"{28: 1, 16: 2, 8: 8}","[8, 16, 28]",88162281,Ni1S2O8
YNi3Se2ClO8,mp-1048551,1.5878,2.66556843,0.05045962327777431,"{39: 1, 28: 3, 34: 2, 17: 1, 8: 8}","[8, 17, 28, 34, 39]",88171283342391,Y1Ni3Se2Cl1O8
Ni(ClO4)2,mp-28138,4.0918,-0.34965922,0.0,"{28: 1, 17: 2, 8: 8}","[8, 17, 28]",88172281,Ni1Cl2O8
SrNi2Te3(ClO4)2,mp-646605,3.1308000000000002,2.38715875,0.0,"{38: 1, 28: 2, 52: 3, 17: 2, 8: 8}","[8, 17, 28, 38, 52]",88172282381523,Sr1Ni2Te3Cl2O8
K2Ni(MoO4)2,mp-554864,3.1723000000000003,-0.37792421,0.0,"{19: 2, 28: 1, 42: 2, 8: 8}","[8, 19, 28, 42]",88192281422,K2Ni1Mo2O8
CaCu2(NiO4)2,mp-1047810,0.0,1.41202825,0.3138538566025586,"{20: 1, 29: 2, 28: 2, 8: 8}","[8, 20, 28, 29]",88201282292,Ca1Cu2Ni2O8
Ca(NiO2)4,mp-18718,0.0,2.8820711,0.008416494679486242,"{20: 1, 28: 4, 8: 8}","[8, 20, 28]",88201284,Ca1Ni4O8
BaCa(NiO2)4,mp-1044567,0.4914999999999998,1.94992447,0.12926298982143436,"{56: 1, 20: 1, 28: 4, 8: 8}","[8, 20, 28, 56]",88201284561,Ba1Ca1Ni4O8
Ca2Pr2MnNiO8,mp-1227517,1.3451999999999997,3.6454462,0.0497328132142858,"{20: 2, 59: 2, 25: 1, 28: 1, 8: 8}","[8, 20, 25, 28, 59]",88202251281592,Ca2Pr2Mn1Ni1O8
Ca2Nd2MnNiO8,mp-1227616,0.0,3.91965611,0.034667548154775574,"{20: 2, 60: 2, 25: 1, 28: 1, 8: 8}","[8, 20, 25, 28, 60]",88202251281602,Ca2Nd2Mn1Ni1O8
Ca2Gd2MnNiO8,mp-1227535,1.6446,3.10645051,0.04248688535714429,"{20: 2, 64: 2, 25: 1, 28: 1, 8: 8}","[8, 20, 25, 28, 64]",88202251281642,Ca2Gd2Mn1Ni1O8
Ca2Nb2NiO8,mp-1047012,2.8118000000000003,2.22758019,0.09829299750002107,"{20: 2, 41: 2, 28: 1, 8: 8}","[8, 20, 28, 41]",88202281412,Ca2Nb2Ni1O8
Ca2Ta2NiO8,mp-1046168,3.5124,2.33749124,0.09999370945054942,"{20: 2, 73: 2, 28: 1, 8: 8}","[8, 20, 28, 73]",88202281732,Ca2Ta2Ni1O8
Ca2Ni3O8,mp-1387694,0.9173999999999998,2.65102971,0.021452532403843705,"{20: 2, 28: 3, 8: 8}","[8, 20, 28]",88202283,Ca2Ni3O8
TiNi4GeO8,mp-1216682,2.4516,4.14042932,0.0,"{22: 1, 28: 4, 32: 1, 8: 8}","[8, 22, 28, 32]",88221284321,Ti1Ni4Ge1O8
VNi3AsO8,mp-1216333,2.6658000000000004,5.56869498,0.005787617115411869,"{23: 1, 28: 3, 33: 1, 8: 8}","[8, 23, 28, 33]",88231283331,V1Ni3As1O8
V2NiO8,mp-1208147,0.0,-1.46935984,0.3688671122727305,"{23: 2, 28: 1, 8: 8}","[8, 23, 28]",88232281,V2Ni1O8
SrV2(NiO4)2,mp-541734,2.4315,2.1352579,0.0003051679807555274,"{38: 1, 23: 2, 28: 2, 8: 8}","[8, 23, 28, 38]",88232282381,Sr1V2Ni2O8
BaV2(NiO4)2,mp-18723,0.016199999999999992,2.93330096,0.0,"{56: 1, 23: 2, 28: 2, 8: 8}","[8, 23, 28, 56]",88232282561,Ba1V2Ni2O8
V2Ni2PbO8,mp-1207918,2.8852,2.5015398,0.0,"{23: 2, 28: 2, 82: 1, 8: 8}","[8, 23, 28, 82]",88232282821,V2Ni2Pb1O8
V2Ni3O8,mp-542151,0.0,3.28279245,0.0,"{23: 2, 28: 3, 8: 8}","[8, 23, 28]",88232283,V2Ni3O8
Mn2V3NiO8,mp-1280544,0.0,4.63352503,0.0,"{25: 2, 23: 3, 28: 1, 8: 8}","[8, 23, 25, 28]",88233252281,Mn2V3Ni1O8
V3NiO8,mp-755704,0.30290000000000017,2.21580737,0.07171822708333941,"{23: 3, 28: 1, 8: 8}","[8, 23, 28]",88233281,V3Ni1O8
SrPr3CrNiO8,mp-1218011,2.2087,3.80425054,0.02878087080356906,"{38: 1, 59: 3, 24: 1, 28: 1, 8: 8}","[8, 24, 28, 38, 59]",88241281381593,Sr1Pr3Cr1Ni1O8
Sr2La2CrNiO8,mp-1218698,0.0,5.18624509,0.051785231339284366,"{38: 2, 57: 2, 24: 1, 28: 1, 8: 8}","[8, 24, 28, 38, 57]",88241281382572,Sr2La2Cr1Ni1O8
Sr2Pr2CrNiO8,mp-1218722,0.9128999999999996,3.43099213,0.02726384107142721,"{38: 2, 59: 2, 24: 1, 28: 1, 8: 8}","[8, 24, 28, 38, 59]",88241281382592,Sr2Pr2Cr1Ni1O8
Sr2Nd2CrNiO8,mp-1218760,0.6337000000000002,3.38899714,0.06902480955356793,"{38: 2, 60: 2, 24: 1, 28: 1, 8: 8}","[8, 24, 28, 38, 60]",88241281382602,Sr2Nd2Cr1Ni1O8
ZnCr4NiO8,mp-1215758,0.0,4.7543042,0.09137517535714146,"{30: 1, 24: 4, 28: 1, 8: 8}","[8, 24, 28, 30]",88244281301,Zn1Cr4Ni1O8
Mn(Ni3O4)2,mp-19442,1.4245,4.80416538,0.0,"{25: 1, 28: 6, 8: 8}","[8, 25, 28]",88251286,Mn1Ni6O8
MnNi7O8,mp-1221343,1.0592000000000006,6.46886769,0.050437655000000525,"{25: 1, 28: 7, 8: 8}","[8, 25, 28]",88251287,Mn1Ni7O8
Mn3NiO8,mp-1176568,0.4022000000000001,1.37897362,0.0893238767361133,"{25: 3, 28: 1, 8: 8}","[8, 25, 28]",88253281,Mn3Ni1O8
Mn3Cu2NiO8,mp-1221799,0.0,4.04196179,0.008543754776786372,"{25: 3, 29: 2, 28: 1, 8: 8}","[8, 25, 28, 29]",88253281292,Mn3Cu2Ni1O8
Mn4NiO8,mp-757060,0.0,2.37733121,0.09671527854166229,"{25: 4, 28: 1, 8: 8}","[8, 25, 28]",88254281,Mn4Ni1O8
Fe4CuNiO8,mp-1225235,0.1676000000000002,4.09470802,0.08951183821428188,"{26: 4, 29: 1, 28: 1, 8: 8}","[8, 26, 28, 29]",88264281291,Fe4Cu1Ni1O8
ZnFe4NiO8,mp-1215616,0.0,2.75424886,0.041228001785713175,"{30: 1, 26: 4, 28: 1, 8: 8}","[8, 26, 28, 30]",88264281301,Zn1Fe4Ni1O8
CdFe4NiO8,mp-1226789,1.0558999999999998,2.34886027,0.040991233214286105,"{48: 1, 26: 4, 28: 1, 8: 8}","[8, 26, 28, 48]",88264281481,Cd1Fe4Ni1O8
Fe5NiO8,mp-1225019,0.0,4.41638517,0.08959575214285742,"{26: 5, 28: 1, 8: 8}","[8, 26, 28]",88265281,Fe5Ni1O8
SrLa3CoNiO8,mp-1218258,0.0,6.72951499,0.023235367321430722,"{38: 1, 57: 3, 27: 1, 28: 1, 8: 8}","[8, 27, 28, 38, 57]",88271281381573,Sr1La3Co1Ni1O8
Co(NiO2)4,mp-756594,0.2702,3.25239643,0.026816985641023194,"{27: 1, 28: 4, 8: 8}","[8, 27, 28]",88271284,Co1Ni4O8
Co3NiO8,mp-752738,0.9433999999999999,0.95848992,0.039412403541668084,"{27: 3, 28: 1, 8: 8}","[8, 27, 28]",88273281,Co3Ni1O8
Co4NiO8,mp-2215121,0.9011,2.30516377,0.11768310499999757,"{27: 4, 28: 1, 8: 8}","[8, 27, 28]",88274281,Co4Ni1O8
La4CuNiO8,mp-1223008,0.0,8.31624252,0.07235924517857573,"{57: 4, 29: 1, 28: 1, 8: 8}","[8, 28, 29, 57]",88281291574,La4Cu1Ni1O8
Nd4CuNiO8,mp-1220220,0.0,5.16829321,0.10458782553571755,"{60: 4, 29: 1, 28: 1, 8: 8}","[8, 28, 29, 60]",88281291604,Nd4Cu1Ni1O8
Sr4Cu3NiO8,mp-1218506,0.0,3.26155694,0.06887478531250935,"{38: 4, 29: 3, 28: 1, 8: 8}","[8, 28, 29, 38]",88281293384,Sr4Cu3Ni1O8
ZnNiTe3O8,mp-1215818,3.2399999999999998,6.45889823,0.0,"{30: 1, 28: 1, 52: 3, 8: 8}","[8, 28, 30, 52]",88281301523,Zn1Ni1Te3O8
Nb2Zn2NiO8,mp-1046973,2.6258,1.97512172,0.024825587307699237,"{41: 2, 30: 2, 28: 1, 8: 8}","[8, 28, 30, 41]",88281302412,Nb2Zn2Ni1O8
Ta2Zn2NiO8,mp-1046140,3.1693999999999996,2.04642822,0.019010797307704053,"{73: 2, 30: 2, 28: 1, 8: 8}","[8, 28, 30, 73]",88281302732,Ta2Zn2Ni1O8
NiGe3O8,mp-543103,1.7038000000000002,2.06285138,0.20331261770833464,"{28: 1, 32: 3, 8: 8}","[8, 28, 32]",88281323,Ni1Ge3O8
YNi(WO4)2,mp-1041783,0.9306999999999999,4.25458349,0.11669990500001148,"{39: 1, 28: 1, 74: 2, 8: 8}","[8, 28, 39, 74]",88281391742,Y1Ni1W2O8
La4NiO8,mp-510747,0.7965,6.68162937,0.08850007500000068,"{57: 4, 28: 1, 8: 8}","[8, 28, 57]",88281574,La4Ni1O8
Ni(WO4)2,mp-25292,0.4255,0.69079609,0.19965336443182657,"{28: 1, 74: 2, 8: 8}","[8, 28, 74]",88281742,Ni1W2O8
Re2NiO8,mp-32311,3.5265,-1.90590678,0.0,"{75: 2, 28: 1, 8: 8}","[8, 28, 75]",88281752,Re2Ni1O8
Re3NiO8,mp-1219614,0.0,5.00609621,0.0825550843055538,"{75: 3, 28: 1, 8: 8}","[8, 28, 75]",88281753,Re3Ni1O8
ZnCu2(NiO4)2,mp-1041441,0.0,1.46632188,0.2739890345192224,"{30: 1, 29: 2, 28: 2, 8: 8}","[8, 28, 29, 30]",88282292301,Zn1Cu2Ni2O8
BaNi2(AsO4)2,mp-19388,2.8416,2.14757306,0.0,"{56: 1, 28: 2, 33: 2, 8: 8}","[8, 28, 33, 56]",88282332561,Ba1Ni2As2O8
SrLa3(NiO4)2,mp-1218254,0.45759999999999934,6.09626953,0.012154696249992547,"{38: 1, 57: 3, 28: 2, 8: 8}","[8, 28, 38, 57]",88282381573,Sr1La3Ni2O8
SrNd3(NiO4)2,mp-1218171,0.5918000000000005,3.82397243,0.02313634232142725,"{38: 1, 60: 3, 28: 2, 8: 8}","[8, 28, 38, 60]",88282381603,Sr1Nd3Ni2O8
SrSm3(NiO4)2,mp-1218013,0.5934000000000004,3.62753874,0.05258341861606297,"{38: 1, 62: 3, 28: 2, 8: 8}","[8, 28, 38, 62]",88282381623,Sr1Sm3Ni2O8
SrEu3(NiO4)2,mp-1218566,0.0,3.08633151,0.20255602098212933,"{38: 1, 63: 3, 28: 2, 8: 8}","[8, 28, 38, 63]",88282381633,Sr1Eu3Ni2O8
Sr3La(NiO4)2,mp-1218450,0.0,3.58841327,0.0,"{38: 3, 57: 1, 28: 2, 8: 8}","[8, 28, 38, 57]",88282383571,Sr3La1Ni2O8
Ni2Mo3O8,mp-1209899,0.10219999999999985,5.24560257,0.16276570269230817,"{28: 2, 42: 3, 8: 8}","[8, 28, 42]",88282423,Ni2Mo3O8
Ni2Te3O8,mp-17360,0.5076,5.25602856,0.0,"{28: 2, 52: 3, 8: 8}","[8, 28, 52]",88282523,Ni2Te3O8
BaLa3(NiO4)2,mp-1227939,0.45650000000000013,5.86584078,0.039159495178572534,"{56: 1, 57: 3, 28: 2, 8: 8}","[8, 28, 56, 57]",88282561573,Ba1La3Ni2O8
BaPr3(NiO4)2,mp-1227893,0.4406000000000003,3.68206091,0.03942136955358855,"{56: 1, 59: 3, 28: 2, 8: 8}","[8, 28, 56, 59]",88282561593,Ba1Pr3Ni2O8
Zn2Ni3O8,mp-1391277,0.7159,2.7955256,0.10243338721153794,"{30: 2, 28: 3, 8: 8}","[8, 28, 30]",88283302,Zn2Ni3O8
Ni3(AsO4)2,mp-504969,1.8668,3.62000865,0.0,"{28: 3, 33: 2, 8: 8}","[8, 28, 33]",88283332,Ni3As2O8
Ni3(SeO4)2,mp-1199334,0.0,1.77372346,0.16550266999999774,"{28: 3, 34: 2, 8: 8}","[8, 28, 34]",88283342,Ni3Se2O8
Ba2YNi3O8,mp-1048131,0.0,3.09425357,0.07486771357143063,"{56: 2, 39: 1, 28: 3, 8: 8}","[8, 28, 39, 56]",88283391562,Ba2Y1Ni3O8
Ni3(TeO4)2,mp-1237476,0.0,3.34186948,0.15955873532051967,"{28: 3, 52: 2, 8: 8}","[8, 28, 52]",88283522,Ni3Te2O8
Ba2Ni3O8,mp-1401956,0.0,1.46889867,0.3324896351282076,"{56: 2, 28: 3, 8: 8}","[8, 28, 56]",88283562,Ba2Ni3O8
La4Ni3O8,mp-557939,0.0,8.36107331,0.23208390833333237,"{57: 4, 28: 3, 8: 8}","[8, 28, 57]",88283574,La4Ni3O8
Nd4Ni3O8,mp-18738,0.8179000000000007,4.57642597,0.2419915703333304,"{60: 4, 28: 3, 8: 8}","[8, 28, 60]",88283604,Nd4Ni3O8
Zn(NiO2)4,mp-1041362,0.0,2.69344157,0.08385865717948704,"{30: 1, 28: 4, 8: 8}","[8, 28, 30]",88284301,Zn1Ni4O8
BaZn(NiO2)4,mp-1044577,0.3266,2.37399033,0.20750084964286408,"{56: 1, 30: 1, 28: 4, 8: 8}","[8, 28, 30, 56]",88284301561,Ba1Zn1Ni4O8
Sr(NiO2)4,mp-18898,0.3176000000000001,2.33775134,0.006219238205127375,"{38: 1, 28: 4, 8: 8}","[8, 28, 38]",88284381,Sr1Ni4O8