formula,material_id,band_gap,efermi,energy_above_hull,comp_atoms,sorted_keys_comp_atoms,comp_number,new_formula
Zr(Ni2P)2,mp-505598,0.0,8.93575907,0.0,"{40: 1, 28: 4, 15: 2}","[15, 28, 40]",152284401,Zr1Ni4P2
Sm(Ni2P)2,mp-21916,0.0,8.04880256,0.0,"{62: 1, 28: 4, 15: 2}","[15, 28, 62]",152284621,Sm1Ni4P2
Tb(Ni2P)2,mp-505597,0.0,8.27106396,0.0,"{65: 1, 28: 4, 15: 2}","[15, 28, 65]",152284651,Tb1Ni4P2
Dy(Ni2P)2,mp-866032,0.0,8.29619803,0.0,"{66: 1, 28: 4, 15: 2}","[15, 28, 66]",152284661,Dy1Ni4P2
Ho(Ni2P)2,mp-1104221,0.0,8.38006819,0.0,"{67: 1, 28: 4, 15: 2}","[15, 28, 67]",152284671,Ho1Ni4P2
Er(Ni2P)2,mp-1105062,0.0,8.29763707,0.0,"{68: 1, 28: 4, 15: 2}","[15, 28, 68]",152284681,Er1Ni4P2
Tm(Ni2P)2,mp-1104140,0.0,8.41351561,0.0,"{69: 1, 28: 4, 15: 2}","[15, 28, 69]",152284691,Tm1Ni4P2
Lu(Ni2P)2,mp-1104272,0.0,8.42025523,0.0,"{71: 1, 28: 4, 15: 2}","[15, 28, 71]",152284711,Lu1Ni4P2
Hf(Ni2P)2,mp-1104541,0.0,9.15600953,0.0,"{72: 1, 28: 4, 15: 2}","[15, 28, 72]",152284721,Hf1Ni4P2
U(Ni2P)2,mp-20048,0.0,10.58210478,0.0,"{92: 1, 28: 4, 15: 2}","[15, 28, 92]",152284921,U1Ni4P2
Ni5P2,mp-1200923,0.01130000000000031,9.98704438,0.01675999452380772,"{28: 5, 15: 2}","[15, 28]",152285,Ni5P2
Fe4Ni5P3,mp-1225419,0.0,8.76963438,0.008688854374995003,"{26: 4, 28: 5, 15: 3}","[15, 26, 28]",153264285,Fe4Ni5P3
Fe5Ni4P3,mp-1225371,0.0,8.61913172,0.007392192812499587,"{26: 5, 28: 4, 15: 3}","[15, 26, 28]",153265284,Fe5Ni4P3
NiP3,mp-2301,0.0,8.2089381,0.0,"{28: 1, 15: 3}","[15, 28]",153281,Ni1P3
ZnNi10P3,mp-29884,0.0,8.60977893,0.0,"{30: 1, 28: 10, 15: 3}","[15, 28, 30]",1532810301,Zn1Ni10P3
GaNi10P3,mp-1212709,0.0,8.86097618,0.0,"{31: 1, 28: 10, 15: 3}","[15, 28, 31]",1532810311,Ga1Ni10P3
Ni10SnP3,mp-29885,0.0,9.70971261,0.0,"{28: 10, 50: 1, 15: 3}","[15, 28, 50]",1532810501,Ni10Sn1P3
Ni10Sn5P3,mp-510445,0.0,9.33881117,0.0,"{28: 10, 50: 5, 15: 3}","[15, 28, 50]",1532810505,Ni10Sn5P3
Ni10SbP3,mp-1210058,0.0,9.81927278,0.007395206785712816,"{28: 10, 51: 1, 15: 3}","[15, 28, 51]",1532810511,Ni10Sb1P3
Ni13Sn8P3,mp-683937,0.0,9.03951417,0.0,"{28: 13, 50: 8, 15: 3}","[15, 28, 50]",1532813508,Ni13Sn8P3
NiMo8P3,mp-1220567,0.0,9.2741248,0.02453690798610353,"{28: 1, 42: 8, 15: 3}","[15, 28, 42]",153281428,Ni1Mo8P3
NiP3W2,mp-29618,0.0,8.81239389,0.026980784583333417,"{28: 1, 15: 3, 74: 2}","[15, 28, 74]",153281742,Ni1P3W2
Zr2(NiP)3,mp-541909,0.0,8.2612362,0.0,"{40: 2, 28: 3, 15: 3}","[15, 28, 40]",153283402,Zr2Ni3P3
Hf2(NiP)3,mp-1200507,0.0,8.61437094,0.0,"{72: 2, 28: 3, 15: 3}","[15, 28, 72]",153283722,Hf2Ni3P3
La2Ni4GeP3,mp-1223427,0.0,9.38128574,0.006164528500004707,"{57: 2, 28: 4, 32: 1, 15: 3}","[15, 28, 32, 57]",153284321572,La2Ni4Ge1P3
Ni5Ge2P3,mp-662818,0.0,7.96370684,0.022222663312501112,"{28: 5, 32: 2, 15: 3}","[15, 28, 32]",153285322,Ni5Ge2P3
SrNi5P3,mp-18632,0.0,8.01330424,0.0,"{38: 1, 28: 5, 15: 3}","[15, 28, 38]",153285381,Sr1Ni5P3
LaNi5P3,mp-16958,0.0,9.71471665,0.0,"{57: 1, 28: 5, 15: 3}","[15, 28, 57]",153285571,La1Ni5P3
EuNi5P3,mp-582367,0.0,8.13774089,0.0,"{63: 1, 28: 5, 15: 3}","[15, 28, 63]",153285631,Eu1Ni5P3
Ni6Mo2P3,mp-630883,0.0,9.8189429,0.0016642599999983076,"{28: 6, 42: 2, 15: 3}","[15, 28, 42]",153286422,Ni6Mo2P3
Ni8P3,mp-14513,0.03200000000000003,9.95420659,0.002314582196968118,"{28: 8, 15: 3}","[15, 28]",153288,Ni8P3
Ce25Ni49P33,mp-680512,0.0,8.91858242,0.03449948726634666,"{58: 25, 28: 49, 15: 33}","[15, 28, 58]",153328495825,Ce25Ni49P33
Pr25Ni49P33,mp-1212765,0.0,7.0914392,0.0,"{59: 25, 28: 49, 15: 33}","[15, 28, 59]",153328495925,Pr25Ni49P33
Nd25Ni49P33,mp-1213537,0.0,7.14148521,0.0010214618504580386,"{60: 25, 28: 49, 15: 33}","[15, 28, 60]",153328496025,Nd25Ni49P33
Sm25Ni49P33,mp-680451,0.0,7.00569718,0.35734589285046603,"{62: 25, 28: 49, 15: 33}","[15, 28, 62]",153328496225,Sm25Ni49P33
Er25Ni49P33,mp-1213669,0.0,7.19224064,0.0,"{68: 25, 28: 49, 15: 33}","[15, 28, 68]",153328496825,Er25Ni49P33
Ca2Ni7P4,mp-510001,0.0,7.79339152,0.0,"{20: 2, 28: 7, 15: 4}","[15, 20, 28]",154202287,Ca2Ni7P4
Cr3NiP4,mp-1226323,0.0,9.07328608,0.0,"{24: 3, 28: 1, 15: 4}","[15, 24, 28]",154243281,Cr3Ni1P4
Fe3NiP4,mp-1224771,0.0,9.31855337,0.0,"{26: 3, 28: 1, 15: 4}","[15, 26, 28]",154263281,Fe3Ni1P4
Fe7Ni5P4,mp-1225022,0.0,8.23098458,0.004084248828117865,"{26: 7, 28: 5, 15: 4}","[15, 26, 28]",154267285,Fe7Ni5P4
Co3Ni9P4,mp-1226652,0.0,9.15148411,0.04505109933035811,"{27: 3, 28: 9, 15: 4}","[15, 27, 28]",154273289,Co3Ni9P4
Co7NiP4,mp-1226111,0.0,8.62331637,0.02365561618055345,"{27: 7, 28: 1, 15: 4}","[15, 27, 28]",154277281,Co7Ni1P4
NiP4,mp-769108,0.0,8.48038343,0.07834155050000113,"{28: 1, 15: 4}","[15, 28]",154281,Ni1P4
Ce(Ni5P2)2,mp-582274,0.0,9.30668678,0.008032096850005388,"{58: 1, 28: 10, 15: 4}","[15, 28, 58]",1542810581,Ce1Ni10P4
Sr(NiP2)2,mp-1103788,0.0,6.77973104,0.0,"{38: 1, 28: 2, 15: 4}","[15, 28, 38]",154282381,Sr1Ni2P4
Zr9(NiP2)2,mp-505278,0.0,6.09658985,0.0,"{40: 9, 28: 2, 15: 4}","[15, 28, 40]",154282409,Zr9Ni2P4
Ba(NiP2)2,mp-571420,0.0,6.58222069,0.0,"{56: 1, 28: 2, 15: 4}","[15, 28, 56]",154282561,Ba1Ni2P4
Pr2Ni3P4,mp-1219846,0.0,7.57085625,0.0,"{59: 2, 28: 3, 15: 4}","[15, 28, 59]",154283592,Pr2Ni3P4
Nb5(NiP)4,mp-10430,0.0,8.462198,0.0,"{41: 5, 28: 4, 15: 4}","[15, 28, 41]",154284415,Nb5Ni4P4
Ta5(NiP)4,mp-1104139,0.0,9.1520801,0.0,"{73: 5, 28: 4, 15: 4}","[15, 28, 73]",154284735,Ta5Ni4P4
Ni5P4,mp-1920,0.0,9.3928422,0.0,"{28: 5, 15: 4}","[15, 28]",154285,Ni5P4
Ce2Ni7P4,mp-505789,0.0,9.50864592,0.0,"{58: 2, 28: 7, 15: 4}","[15, 28, 58]",154287582,Ce2Ni7P4
Pr2Ni7P4,mp-505805,0.0,7.97863116,0.0,"{59: 2, 28: 7, 15: 4}","[15, 28, 59]",154287592,Pr2Ni7P4
Nd2Ni7P4,mp-540986,0.0,8.00450016,0.0,"{60: 2, 28: 7, 15: 4}","[15, 28, 60]",154287602,Nd2Ni7P4
Eu2Ni7P4,mp-1213320,0.0,7.54779998,0.0,"{63: 2, 28: 7, 15: 4}","[15, 28, 63]",154287632,Eu2Ni7P4
Ti2NiP5,mp-505081,0.0,8.51588885,0.0,"{22: 2, 28: 1, 15: 5}","[15, 22, 28]",155222281,Ti2Ni1P5
Ni12P5,mp-2790,0.0,9.87798706,0.0,"{28: 12, 15: 5}","[15, 28]",1552812,Ni12P5
La2Ni12P5,mp-28821,0.0,9.38439359,0.0,"{57: 2, 28: 12, 15: 5}","[15, 28, 57]",1552812572,La2Ni12P5
Ce2Ni12P5,mp-1214085,0.0,9.19916628,0.0,"{58: 2, 28: 12, 15: 5}","[15, 28, 58]",1552812582,Ce2Ni12P5
Pr2Ni12P5,mp-1209747,0.0,8.21374309,0.0,"{59: 2, 28: 12, 15: 5}","[15, 28, 59]",1552812592,Pr2Ni12P5
Nd2Ni12P5,mp-1210070,0.0,8.17775312,0.0,"{60: 2, 28: 12, 15: 5}","[15, 28, 60]",1552812602,Nd2Ni12P5
Eu2Ni12P5,mp-1213550,0.0,7.75347452,0.0,"{63: 2, 28: 12, 15: 5}","[15, 28, 63]",1552812632,Eu2Ni12P5
Ni16GeP5,mp-1210211,0.0,9.46990965,0.0,"{28: 16, 32: 1, 15: 5}","[15, 28, 32]",1552816321,Ni16Ge1P5
Re3Ni2P5,mp-1219611,0.0,9.40834664,0.20929056833333348,"{75: 3, 28: 2, 15: 5}","[15, 28, 75]",155282753,Re3Ni2P5
La3Ni7P5,mp-1224382,0.0,9.01312377,0.03434120549999342,"{57: 3, 28: 7, 15: 5}","[15, 28, 57]",155287573,La3Ni7P5
Pr3Ni7P5,mp-1221265,0.0,7.06773231,0.015909900476186678,"{59: 3, 28: 7, 15: 5}","[15, 28, 59]",155287593,Pr3Ni7P5
Nd3Ni7P5,mp-1220848,0.0,7.04638392,0.01472727633334081,"{60: 3, 28: 7, 15: 5}","[15, 28, 60]",155287603,Nd3Ni7P5
Sm3Ni7P5,mp-1219454,0.0,7.10709798,0.3090883736666665,"{62: 3, 28: 7, 15: 5}","[15, 28, 62]",155287623,Sm3Ni7P5
Tb3Ni7P5,mp-1217778,0.0,7.32758716,0.007110398000006235,"{65: 3, 28: 7, 15: 5}","[15, 28, 65]",155287653,Tb3Ni7P5
SrNi9P5,mp-541294,0.0,8.08884049,0.0,"{38: 1, 28: 9, 15: 5}","[15, 28, 38]",155289381,Sr1Ni9P5
BaNi9P5,mp-3202,0.0,8.03265331,0.0,"{56: 1, 28: 9, 15: 5}","[15, 28, 56]",155289561,Ba1Ni9P5
NiH5CN(ClO)2,mp-1190493,0.0,0.51397847,0.01378812447916733,"{28: 1, 1: 5, 6: 1, 7: 1, 17: 2, 8: 2}","[1, 6, 7, 8, 17, 28]",15617182172281,Ni1H5C1N1Cl2O2
Mn3(Ni10P3)2,mp-21642,0.0,8.58377552,0.056800054413792544,"{25: 3, 28: 20, 15: 6}","[15, 25, 28]",1562532820,Mn3Ni20P6
FeNiP6,mp-1224986,0.0,8.10816528,0.0,"{26: 1, 28: 1, 15: 6}","[15, 26, 28]",156261281,Fe1Ni1P6
Sr(Ni5P3)2,mp-16156,0.0,8.13109026,0.00411745943626407,"{38: 1, 28: 10, 15: 6}","[15, 28, 38]",1562810381,Sr1Ni10P6
Ba(Ni5P3)2,mp-14765,0.0,8.01822161,0.005748857965688359,"{56: 1, 28: 10, 15: 6}","[15, 28, 56]",1562810561,Ba1Ni10P6
Eu(Ni5P3)2,mp-21672,0.0,8.114385,0.0,"{63: 1, 28: 10, 15: 6}","[15, 28, 63]",1562810631,Eu1Ni10P6
In2(Ni7P2)3,mp-21683,0.0,9.15757372,0.0,"{49: 2, 28: 21, 15: 6}","[15, 28, 49]",1562821492,In2Ni21P6
Ni21(SnP3)2,mp-568562,0.0,9.4008652,0.00046333942528686833,"{28: 21, 50: 2, 15: 6}","[15, 28, 50]",1562821502,Ni21Sn2P6
Ni7(Mo3P2)3,mp-1209818,0.0,9.96822146,0.017160603333334024,"{28: 7, 42: 9, 15: 6}","[15, 28, 42]",156287429,Ni7Mo9P6
Ca5Ni9P7,mp-1214124,0.0,7.13774741,0.03778060839827013,"{20: 5, 28: 9, 15: 7}","[15, 20, 28]",157205289,Ca5Ni9P7
Sc2Ni12P7,mp-3084,0.0,9.40307131,0.0,"{21: 2, 28: 12, 15: 7}","[15, 21, 28]",1572122812,Sc2Ni12P7
Mn6Ni16P7,mp-22372,0.0,8.93039028,0.006137160931037222,"{25: 6, 28: 16, 15: 7}","[15, 25, 28]",1572562816,Mn6Ni16P7
Y2Ni12P7,mp-1191078,0.0,9.18771221,0.0,"{39: 2, 28: 12, 15: 7}","[15, 28, 39]",1572812392,Y2Ni12P7
Zr2Ni12P7,mp-18648,0.0,9.51457352,0.0,"{40: 2, 28: 12, 15: 7}","[15, 28, 40]",1572812402,Zr2Ni12P7
Ni12Mo18P7,mp-1221709,0.0,9.2576477,0.06968558594594398,"{28: 12, 42: 18, 15: 7}","[15, 28, 42]",15728124218,Ni12Mo18P7
Ce2Ni12P7,mp-569521,0.0,9.85757946,0.0,"{58: 2, 28: 12, 15: 7}","[15, 28, 58]",1572812582,Ce2Ni12P7
Pr2Ni12P7,mp-1191876,0.0,8.77889716,0.0,"{59: 2, 28: 12, 15: 7}","[15, 28, 59]",1572812592,Pr2Ni12P7
Nd2Ni12P7,mp-1191438,0.0,8.85236275,0.0,"{60: 2, 28: 12, 15: 7}","[15, 28, 60]",1572812602,Nd2Ni12P7
Sm2Ni12P7,mp-1190918,0.0,8.87385266,0.22636293625000015,"{62: 2, 28: 12, 15: 7}","[15, 28, 62]",1572812622,Sm2Ni12P7
Eu2Ni12P7,mp-1191284,0.0,8.59171724,0.023309824935088486,"{63: 2, 28: 12, 15: 7}","[15, 28, 63]",1572812632,Eu2Ni12P7
Tb2Ni12P7,mp-1190664,0.0,9.03712661,0.0,"{65: 2, 28: 12, 15: 7}","[15, 28, 65]",1572812652,Tb2Ni12P7
Dy2Ni12P7,mp-864836,0.0,8.94689923,0.0,"{66: 2, 28: 12, 15: 7}","[15, 28, 66]",1572812662,Dy2Ni12P7
Ho2Ni12P7,mp-28412,0.0,9.05631339,0.0,"{67: 2, 28: 12, 15: 7}","[15, 28, 67]",1572812672,Ho2Ni12P7
Er2Ni12P7,mp-540772,0.0,9.08598641,0.0,"{68: 2, 28: 12, 15: 7}","[15, 28, 68]",1572812682,Er2Ni12P7
Tm2Ni12P7,mp-541971,0.0,9.08024886,0.0,"{69: 2, 28: 12, 15: 7}","[15, 28, 69]",1572812692,Tm2Ni12P7
Lu2Ni12P7,mp-974057,0.0,9.11740798,0.0,"{71: 2, 28: 12, 15: 7}","[15, 28, 71]",1572812712,Lu2Ni12P7
U2Ni12P7,mp-504856,0.0,10.4666208,0.0,"{92: 2, 28: 12, 15: 7}","[15, 28, 92]",1572812922,U2Ni12P7
Na2Ni4Mo4(HO4)5,mp-1173788,0.0045999999999999375,0.98966573,0.029302773075393418,"{11: 2, 28: 4, 42: 4, 1: 5, 8: 20}","[1, 8, 11, 28, 42]",15820112284424,Na2Ni4Mo4H5O20
NiMoP8,mp-5673,0.0,8.97341689,0.010993702916668013,"{28: 1, 42: 1, 15: 8}","[15, 28, 42]",158281421,Ni1Mo1P8
NiP8W,mp-1209791,0.0,9.00829653,0.0,"{28: 1, 15: 8, 74: 1}","[15, 28, 74]",158281741,Ni1P8W1
Ta5CrNiS10,mp-1219081,0.0,5.94161455,0.09448874500474425,"{73: 5, 24: 1, 28: 1, 16: 10}","[16, 24, 28, 73]",1610241281735,Ta5Cr1Ni1S10
Ni9S10,mp-767469,0.0,7.81235911,0.08902302263157758,"{28: 9, 16: 10}","[16, 28]",1610289,Ni9S10
Na2Mg2NiH6,mp-1180690,1.7138,2.06375066,0.0,"{11: 2, 12: 2, 28: 1, 1: 6}","[1, 11, 12, 28]",16112122281,Na2Mg2Ni1H6
NiS,mp-1547,0.0,7.99209344,0.014181840833332515,"{28: 1, 16: 1}","[16, 28]",161281,Ni1S1
NiAsS,mp-3830,0.0,7.11848588,0.0,"{28: 1, 33: 1, 16: 1}","[16, 28, 33]",161281331,Ni1As1S1
NiSeS,mp-1219948,0.0,7.02447268,0.06691299747584445,"{28: 1, 34: 1, 16: 1}","[16, 28, 34]",161281341,Ni1Se1S1
NiSbS,mp-3679,0.0,8.45948739,0.0,"{28: 1, 51: 1, 16: 1}","[16, 28, 51]",161281511,Ni1Sb1S1
Ni2S,mp-849078,0.0,9.39145968,0.37719355166666624,"{28: 2, 16: 1}","[16, 28]",161282,Ni2S1
Ni3S,mp-976881,0.0,9.41048685,0.370738363750001,"{28: 3, 16: 1}","[16, 28]",161283,Ni3S1
Ni3Pb2SeS,mp-1220092,0.0,6.84953504,0.11222259964285719,"{28: 3, 82: 2, 34: 1, 16: 1}","[16, 28, 34, 82]",161283341822,Ni3Pb2Se1S1
Ni8Bi8SI,mp-1105564,0.0,6.19387985,0.0,"{28: 8, 83: 8, 16: 1, 53: 1}","[16, 28, 53, 83]",161288531838,Ni8Bi8S1I1
Ni8Bi8SI2,mp-1220146,0.0,5.83706266,0.0,"{28: 8, 83: 8, 16: 1, 53: 2}","[16, 28, 53, 83]",161288532838,Ni8Bi8S1I2
Ni8Bi8S,mp-1220141,0.0,6.32201712,0.0,"{28: 8, 83: 8, 16: 1}","[16, 28, 83]",161288838,Ni8Bi8S1
Cr11NiS16,mp-1226263,0.0,5.75600995,0.013053152738095264,"{24: 11, 28: 1, 16: 16}","[16, 24, 28]",16162411281,Cr11Ni1S16
Cr8Fe2CuNiS16,mp-1226149,0.0,5.55216209,0.05981425925510386,"{24: 8, 26: 2, 29: 1, 28: 1, 16: 16}","[16, 24, 26, 28, 29]",1616248262281291,Cr8Fe2Cu1Ni1S16
Cr8Fe3NiS16,mp-1226423,0.0,4.94401076,0.2786572110408141,"{24: 8, 26: 3, 28: 1, 16: 16}","[16, 24, 26, 28]",1616248263281,Cr8Fe3Ni1S16
Cr8Co3NiS16,mp-1226110,0.0,5.33972367,0.014523267821425101,"{24: 8, 27: 3, 28: 1, 16: 16}","[16, 24, 27, 28]",1616248273281,Cr8Co3Ni1S16
Cr8Cu3NiS16,mp-1226091,0.0,5.07614224,0.0,"{24: 8, 29: 3, 28: 1, 16: 16}","[16, 24, 28, 29]",1616248281293,Cr8Cu3Ni1S16
FeCo16NiS16,mp-1225063,0.0,6.20848893,0.012802131151259388,"{26: 1, 27: 16, 28: 1, 16: 16}","[16, 26, 27, 28]",16162612716281,Fe1Co16Ni1S16
Fe5Ni7S16,mp-675307,0.0,6.3017702,0.11965514978571434,"{26: 5, 28: 7, 16: 16}","[16, 26, 28]",1616265287,Fe5Ni7S16
Ni18Bi3AsS16,mp-556357,0.0,7.7023283,0.011141253824011876,"{28: 18, 83: 3, 33: 1, 16: 16}","[16, 28, 33, 83]",16162818331833,Ni18Bi3As1S16
Ni(H3Cl)2,mp-1209896,0.9238,-1.10117722,0.18714908958333298,"{28: 1, 1: 6, 17: 2}","[1, 17, 28]",16172281,Ni1H6Cl2
U8NiS17,mp-1192888,0.0,7.91369809,0.0,"{92: 8, 28: 1, 16: 17}","[16, 28, 92]",1617281928,U8Ni1S17
Ni17S18,mp-28105,0.0,8.02642769,0.08686903723809447,"{28: 17, 16: 18}","[16, 28]",16182817,Ni17S18
Fe6Ni9S20,mp-530925,0.0,6.61091446,0.12012333182142854,"{26: 6, 28: 9, 16: 20}","[16, 26, 28]",1620266289,Fe6Ni9S20
La9Ni5S21,mp-1226993,0.0,6.20532695,0.1949824738452337,"{57: 9, 28: 5, 16: 21}","[16, 28, 57]",1621285579,La9Ni5S21
K(NiS)2,mp-558518,0.0,4.92003172,0.053632893000000514,"{19: 1, 28: 2, 16: 2}","[16, 19, 28]",162191282,K1Ni2S2
K2Ni3S2,mp-1213632,0.14069999999999983,2.70114985,0.31747713166666447,"{19: 2, 28: 3, 16: 2}","[16, 19, 28]",162192283,K2Ni3S2
ZrTi(NiH3)2,mp-1215245,0.0,5.98952228,0.0016320494999995105,"{40: 1, 22: 1, 28: 2, 1: 6}","[1, 22, 28, 40]",16221282401,Zr1Ti1Ni2H6
FeNiS2,mp-1224903,0.0,8.06035843,0.2784082347857142,"{26: 1, 28: 1, 16: 2}","[16, 26, 28]",162261281,Fe1Ni1S2
CoNi(AsS)2,mp-1226061,0.0,7.43489566,0.019258765416666712,"{27: 1, 28: 1, 33: 2, 16: 2}","[16, 27, 28, 33]",162271281332,Co1Ni1As2S2
CoNi(SbS)2,mp-1226074,0.0,8.67607662,0.022693946874997373,"{27: 1, 28: 1, 51: 2, 16: 2}","[16, 27, 28, 51]",162271281512,Co1Ni1Sb2S2
TlCoNiS2,mp-1216615,0.0,6.00398313,0.06715954638888899,"{81: 1, 27: 1, 28: 1, 16: 2}","[16, 27, 28, 81]",162271281811,Tl1Co1Ni1S2
NiS2,mp-1180046,0.24040000000000017,5.56203067,0.0,"{28: 1, 16: 2}","[16, 28]",162281,Ni1S2
BaNiS2,mp-7486,0.0,4.32964145,0.03956715291666324,"{56: 1, 28: 1, 16: 2}","[16, 28, 56]",162281561,Ba1Ni1S2
Tl2NiS2,mp-1207241,0.0,3.37797817,1.1349018027777764,"{81: 2, 28: 1, 16: 2}","[16, 28, 81]",162281812,Tl2Ni1S2
Tl(NiS)2,mp-559492,0.0,6.50348371,0.03690923972222393,"{81: 1, 28: 2, 16: 2}","[16, 28, 81]",162282811,Tl1Ni2S2
Ni3S2,mp-362,0.0,7.36047974,0.0,"{28: 3, 16: 2}","[16, 28]",162283,Ni3S2
In2Ni3S2,mp-20708,0.0,7.66072117,0.0,"{49: 2, 28: 3, 16: 2}","[16, 28, 49]",162283492,In2Ni3S2
Ni3(SnS)2,mp-5528,0.0,8.02916107,0.0,"{28: 3, 50: 2, 16: 2}","[16, 28, 50]",162283502,Ni3Sn2S2
Tl2Ni3S2,mp-554212,0.0,6.93473521,0.0019659596031731397,"{81: 2, 28: 3, 16: 2}","[16, 28, 81]",162283812,Tl2Ni3S2
Ni3(PbS)2,mp-22596,0.0,7.08951682,0.0,"{28: 3, 82: 2, 16: 2}","[16, 28, 82]",162283822,Ni3Pb2S2
Ni3(BiS)2,mp-642190,0.0,7.05610046,0.0,"{28: 3, 83: 2, 16: 2}","[16, 28, 83]",162283832,Ni3Bi2S2
Ni9(SnS)2,mp-1220083,0.0,8.65130786,0.004553491538461074,"{28: 9, 50: 2, 16: 2}","[16, 28, 50]",162289502,Ni9Sn2S2
Ba6Ni25S27,mp-9415,0.0,5.82366762,0.02639964456896582,"{56: 6, 28: 25, 16: 27}","[16, 28, 56]",16272825566,Ba6Ni25S27
LaNi5H6,mp-1222987,0.0,7.43167249,0.009014525937498519,"{57: 1, 28: 5, 1: 6}","[1, 28, 57]",16285571,La1Ni5H6
FeNi35S32,mp-1225604,0.0,7.06867112,0.0,"{26: 1, 28: 35, 16: 32}","[16, 26, 28]",16322612835,Fe1Ni35S32
CuNiSbS3,mp-1191203,0.33199999999999985,5.92496017,0.0,"{29: 1, 28: 1, 51: 1, 16: 3}","[16, 28, 29, 51]",163281291511,Cu1Ni1Sb1S3
UNiS3,mp-1189264,0.0,8.7120042,0.021444308541672008,"{92: 1, 28: 1, 16: 3}","[16, 28, 92]",163281921,U1Ni1S3
K2Ni3S4,mp-17228,0.7685999999999997,3.41967316,0.0,"{19: 2, 28: 3, 16: 4}","[16, 19, 28]",164192283,K2Ni3S4
Ca(NiS2)2,mp-1045498,0.0,4.76081663,0.23524712857142838,"{20: 1, 28: 2, 16: 4}","[16, 20, 28]",164201282,Ca1Ni2S4
Ti2NiS4,mp-1025263,0.0,6.72679617,0.0,"{22: 2, 28: 1, 16: 4}","[16, 22, 28]",164222281,Ti2Ni1S4
V2NiS4,mp-4909,0.0,7.23720666,0.039554076190477794,"{23: 2, 28: 1, 16: 4}","[16, 23, 28]",164232281,V2Ni1S4
CrInNiS4,mp-1226434,0.0,5.34859379,0.10350278264881041,"{24: 1, 49: 1, 28: 1, 16: 4}","[16, 24, 28, 49]",164241281491,Cr1In1Ni1S4
Cr2NiS4,mp-27512,0.0,7.58836712,0.05982087952380866,"{24: 2, 28: 1, 16: 4}","[16, 24, 28]",164242281,Cr2Ni1S4
FeNiS4,mp-1224893,0.0,8.20943521,0.034388392499999476,"{26: 1, 28: 1, 16: 4}","[16, 26, 28]",164261281,Fe1Ni1S4
Fe(NiS2)2,mp-37276,0.0,6.54843258,0.0918864835357125,"{26: 1, 28: 2, 16: 4}","[16, 26, 28]",164261282,Fe1Ni2S4
CoNiS4,mp-1226064,0.0,7.82746203,0.01982050749999953,"{27: 1, 28: 1, 16: 4}","[16, 27, 28]",164271281,Co1Ni1S4
CoCuNiS4,mp-1226116,0.0,6.07605058,0.0,"{27: 1, 29: 1, 28: 1, 16: 4}","[16, 27, 28, 29]",164271281291,Co1Cu1Ni1S4
Ba2CoNiS4,mp-1228387,0.0,4.37668556,0.09857614660714198,"{56: 2, 27: 1, 28: 1, 16: 4}","[16, 27, 28, 56]",164271281562,Ba2Co1Ni1S4
Co(NiS2)2,mp-674355,0.0,6.45392781,0.0,"{27: 1, 28: 2, 16: 4}","[16, 27, 28]",164271282,Co1Ni2S4
Co2NiS4,mp-22658,0.0,6.30251416,0.0,"{27: 2, 28: 1, 16: 4}","[16, 27, 28]",164272281,Co2Ni1S4
Cu2NiSnS4,mp-1225842,0.0,5.14116049,0.026222521458334036,"{29: 2, 28: 1, 50: 1, 16: 4}","[16, 28, 29, 50]",164281292501,Cu2Ni1Sn1S4
Ga2NiS4,mp-6959,0.0,4.30615611,0.04225467952380946,"{31: 2, 28: 1, 16: 4}","[16, 28, 31]",164281312,Ga2Ni1S4
Zr2NiS4,mp-1215577,0.0,5.30637068,0.0,"{40: 2, 28: 1, 16: 4}","[16, 28, 40]",164281402,Zr2Ni1S4
Nb2NiS4,mp-1194246,0.0,4.7033328,0.24839536559523445,"{41: 2, 28: 1, 16: 4}","[16, 28, 41]",164281412,Nb2Ni1S4
NiMo3S4,mp-685980,0.0,6.63630462,0.08578414541666479,"{28: 1, 42: 3, 16: 4}","[16, 28, 42]",164281423,Ni1Mo3S4
NiRuS4,mp-1220049,0.0,8.12918812,0.03002007541666707,"{28: 1, 44: 1, 16: 4}","[16, 28, 44]",164281441,Ni1Ru1S4
Ni(RhS2)2,mp-1104381,0.0,5.9773718,0.0,"{28: 1, 45: 2, 16: 4}","[16, 28, 45]",164281452,Ni1Rh2S4
In2NiS4,mp-674493,0.0,5.66971106,0.07320909648809515,"{49: 2, 28: 1, 16: 4}","[16, 28, 49]",164281492,In2Ni1S4
Hf2NiS4,mp-1224473,0.0,6.23236051,0.0915021657142816,"{72: 2, 28: 1, 16: 4}","[16, 28, 72]",164281722,Hf2Ni1S4
Ta2NiS4,mp-1218077,0.0,6.50471854,0.04542117786865418,"{73: 2, 28: 1, 16: 4}","[16, 28, 73]",164281732,Ta2Ni1S4
Zn(NiS2)2,mp-1443364,0.0,5.55777401,0.10940634142857064,"{30: 1, 28: 2, 16: 4}","[16, 28, 30]",164282301,Zn1Ni2S4
Ni2RhS4,mp-675691,0.0,6.11774148,0.0,"{28: 2, 45: 1, 16: 4}","[16, 28, 45]",164282451,Ni2Rh1S4
Ni3S4,mp-1050,0.0,6.91835082,0.0,"{28: 3, 16: 4}","[16, 28]",164283,Ni3S4
Rb2Ni3S4,mp-1079718,0.8026,3.47403028,0.0,"{37: 2, 28: 3, 16: 4}","[16, 28, 37]",164283372,Rb2Ni3S4
Cs2Ni3S4,mp-28486,0.9065999999999996,3.47529785,0.0,"{55: 2, 28: 3, 16: 4}","[16, 28, 55]",164283552,Cs2Ni3S4
K2Be2NiH6F8,mp-1238483,2.1842,1.08179488,0.3288154237149117,"{19: 2, 4: 2, 28: 1, 1: 6, 9: 8}","[1, 4, 9, 19, 28]",164298192281,K2Be2Ni1H6F8
Cr2Ni2H64N13Cl11O12,mp-1202441,3.7261,-1.49291933,0.03003406911057116,"{24: 2, 28: 2, 1: 64, 7: 13, 17: 11, 8: 12}","[1, 7, 8, 17, 24, 28]",1647138121711242282,Cr2Ni2H64N13Cl11O12
CaNi2S5,mp-1341750,0.0,3.18772757,0.13155004250000069,"{20: 1, 28: 2, 16: 5}","[16, 20, 28]",165201282,Ca1Ni2S5
Ta2NiS5,mp-28308,0.0,3.78012519,0.0,"{73: 2, 28: 1, 16: 5}","[16, 28, 73]",165281732,Ta2Ni1S5
ZnNi2S5,mp-1374814,0.0,4.01388916,0.1666680537500005,"{30: 1, 28: 2, 16: 5}","[16, 28, 30]",165282301,Zn1Ni2S5
Ni4As3S5,mp-1220013,0.0,7.37339578,0.0320918854427088,"{28: 4, 33: 3, 16: 5}","[16, 28, 33]",165284333,Ni4As3S5