formula,material_id,band_gap,efermi,energy_above_hull,comp_atoms,sorted_keys_comp_atoms,comp_number,new_formula
SrNiGe,mp-1102589,0.0,3.64472128,0.0,"{38: 1, 28: 1, 32: 1}","[28, 32, 38]",281321381,Sr1Ni1Ge1
YNiGe,mp-1103655,0.0,5.96448933,0.0,"{39: 1, 28: 1, 32: 1}","[28, 32, 39]",281321391,Y1Ni1Ge1
ZrNiGe,mp-1102687,0.0,6.70331158,0.0,"{40: 1, 28: 1, 32: 1}","[28, 32, 40]",281321401,Zr1Ni1Ge1
NbNiGe,mp-1101995,0.0,7.50162238,0.0,"{41: 1, 28: 1, 32: 1}","[28, 32, 41]",281321411,Nb1Ni1Ge1
NiGeMo,mp-1220233,0.0,9.13294045,0.21229940486110976,"{28: 1, 32: 1, 42: 1}","[28, 32, 42]",281321421,Ni1Ge1Mo1
NiGeRh2,mp-1097160,0.0,-3.86346918,2.8252893381249997,"{28: 1, 32: 1, 45: 2}","[28, 32, 45]",281321452,Ni1Ge1Rh2
NiGePd,mp-3274,0.0,7.45568832,0.0,"{28: 1, 32: 1, 46: 1}","[28, 32, 46]",281321461,Ni1Ge1Pd1
CeNiGe,mp-1076951,0.05679999999999996,7.504866,0.0,"{58: 1, 28: 1, 32: 1}","[28, 32, 58]",281321581,Ce1Ni1Ge1
PrNiGe,mp-1103115,0.0,5.71557006,0.017153149883333718,"{59: 1, 28: 1, 32: 1}","[28, 32, 59]",281321591,Pr1Ni1Ge1
NdNiGe,mp-1210049,0.0,5.60267895,0.0,"{60: 1, 28: 1, 32: 1}","[28, 32, 60]",281321601,Nd1Ni1Ge1
Pm2NiGe,mp-1186485,0.0,4.76315014,0.0,"{61: 2, 28: 1, 32: 1}","[28, 32, 61]",281321612,Pm2Ni1Ge1
SmNiGe,mp-1101817,0.0,5.532009,0.4593885983333301,"{62: 1, 28: 1, 32: 1}","[28, 32, 62]",281321621,Sm1Ni1Ge1
EuNiGe,mp-5887,0.0,4.82293644,0.0,"{63: 1, 28: 1, 32: 1}","[28, 32, 63]",281321631,Eu1Ni1Ge1
TbNiGe,mp-21424,0.0,5.82314656,0.0,"{65: 1, 28: 1, 32: 1}","[28, 32, 65]",281321651,Tb1Ni1Ge1
DyNiGe,mp-1102455,0.0,5.8593129,0.0,"{66: 1, 28: 1, 32: 1}","[28, 32, 66]",281321661,Dy1Ni1Ge1
HoNiGe,mp-542171,0.0,5.7751145,0.0,"{67: 1, 28: 1, 32: 1}","[28, 32, 67]",281321671,Ho1Ni1Ge1
ErNiGe,mp-20676,0.0,5.85550574,0.0,"{68: 1, 28: 1, 32: 1}","[28, 32, 68]",281321681,Er1Ni1Ge1
TmNiGe,mp-21157,0.0,5.83525089,0.0,"{69: 1, 28: 1, 32: 1}","[28, 32, 69]",281321691,Tm1Ni1Ge1
LuNiGe,mp-19922,0.0,5.91429468,0.0,"{71: 1, 28: 1, 32: 1}","[28, 32, 71]",281321711,Lu1Ni1Ge1
HfNiGe,mp-1102702,0.0,7.33099326,0.0,"{72: 1, 28: 1, 32: 1}","[28, 32, 72]",281321721,Hf1Ni1Ge1
TaNiGe,mp-22636,0.0,7.96965484,0.0,"{73: 1, 28: 1, 32: 1}","[28, 32, 73]",281321731,Ta1Ni1Ge1
NiGePt2,mp-29752,0.0,8.17006059,0.0,"{28: 1, 32: 1, 78: 2}","[28, 32, 78]",281321782,Ni1Ge1Pt2
Ac2NiGe,mp-983587,0.0,6.98621032,0.0,"{89: 2, 28: 1, 32: 1}","[28, 32, 89]",281321892,Ac2Ni1Ge1
UNiGe,mp-1102933,0.0,10.0132653,0.0,"{92: 1, 28: 1, 32: 1}","[28, 32, 92]",281321921,U1Ni1Ge1
NiGe2,mp-29900,0.0,7.67715159,0.08540651333333216,"{28: 1, 32: 2}","[28, 32]",281322,Ni1Ge2
SrNiGe2,mp-13513,0.0,5.10443782,0.0,"{38: 1, 28: 1, 32: 2}","[28, 32, 38]",281322381,Sr1Ni1Ge2
YNiGe2,mp-1079802,0.0,6.55944627,0.0,"{39: 1, 28: 1, 32: 2}","[28, 32, 39]",281322391,Y1Ni1Ge2
Y3NiGe2,mp-1207820,0.0,3.99883982,0.0,"{39: 3, 28: 1, 32: 2}","[28, 32, 39]",281322393,Y3Ni1Ge2
NiGe2Pd,mp-1220080,0.0,5.68574401,0.013299154374998956,"{28: 1, 32: 2, 46: 1}","[28, 32, 46]",281322461,Ni1Ge2Pd1
U2NiGe2Pd,mp-1216885,0.0,9.31197993,0.017018031666665934,"{92: 2, 28: 1, 32: 2, 46: 1}","[28, 32, 46, 92]",281322461922,U2Ni1Ge2Pd1
LaNiGe2,mp-21077,0.0,8.11292578,0.0,"{57: 1, 28: 1, 32: 2}","[28, 32, 57]",281322571,La1Ni1Ge2
CeNiGe2,mp-3541,0.0,7.93368537,0.0,"{58: 1, 28: 1, 32: 2}","[28, 32, 58]",281322581,Ce1Ni1Ge2
Ce3NiGe2,mp-1191014,0.0,7.32449864,0.0028509225641002445,"{58: 3, 28: 1, 32: 2}","[28, 32, 58]",281322583,Ce3Ni1Ge2
Ce5NiGe2,mp-616173,0.0,7.25394738,0.06898922458333434,"{58: 5, 28: 1, 32: 2}","[28, 32, 58]",281322585,Ce5Ni1Ge2
PrNiGe2,mp-975655,0.0,6.38748399,0.0,"{59: 1, 28: 1, 32: 2}","[28, 32, 59]",281322591,Pr1Ni1Ge2
Pr3NiGe2,mp-1209802,0.0,4.05536909,0.0,"{59: 3, 28: 1, 32: 2}","[28, 32, 59]",281322593,Pr3Ni1Ge2
NdNiGe2,mp-5215,0.0,6.27476188,0.0,"{60: 1, 28: 1, 32: 2}","[28, 32, 60]",281322601,Nd1Ni1Ge2
Nd3NiGe2,mp-1210073,0.0,3.86778929,0.0,"{60: 3, 28: 1, 32: 2}","[28, 32, 60]",281322603,Nd3Ni1Ge2
SmNiGe2,mp-980760,0.0,6.21190549,0.178831008333332,"{62: 1, 28: 1, 32: 2}","[28, 32, 62]",281322621,Sm1Ni1Ge2
Sm3NiGe2,mp-1209016,0.0,3.87239917,0.254972006833337,"{62: 3, 28: 1, 32: 2}","[28, 32, 62]",281322623,Sm3Ni1Ge2
EuNiGe2,mp-1080556,0.0,5.40243142,0.0,"{63: 1, 28: 1, 32: 2}","[28, 32, 63]",281322631,Eu1Ni1Ge2
TbNiGe2,mp-4288,0.0,6.46023542,0.0,"{65: 1, 28: 1, 32: 2}","[28, 32, 65]",281322651,Tb1Ni1Ge2
Tb3NiGe2,mp-1191273,0.0,4.71168268,0.0,"{65: 3, 28: 1, 32: 2}","[28, 32, 65]",281322653,Tb3Ni1Ge2
DyNiGe2,mp-1078577,0.0,6.47052961,0.0,"{66: 1, 28: 1, 32: 2}","[28, 32, 66]",281322661,Dy1Ni1Ge2
Dy3NiGe2,mp-1213457,0.0,3.88856384,0.0,"{66: 3, 28: 1, 32: 2}","[28, 32, 66]",281322663,Dy3Ni1Ge2
HoNiGe2,mp-974399,0.0,6.40675036,0.0,"{67: 1, 28: 1, 32: 2}","[28, 32, 67]",281322671,Ho1Ni1Ge2
Ho3NiGe2,mp-1190282,0.0,4.55826145,0.0,"{67: 3, 28: 1, 32: 2}","[28, 32, 67]",281322673,Ho3Ni1Ge2
ErNiGe2,mp-582572,0.0,6.55452653,0.0,"{68: 1, 28: 1, 32: 2}","[28, 32, 68]",281322681,Er1Ni1Ge2
Er3NiGe2,mp-1213162,0.0,3.87600496,0.0,"{68: 3, 28: 1, 32: 2}","[28, 32, 68]",281322683,Er3Ni1Ge2
TmNiGe2,mp-1207716,0.0,5.10260405,0.0,"{69: 1, 28: 1, 32: 2}","[28, 32, 69]",281322691,Tm1Ni1Ge2
LuNiGe2,mp-638051,0.0,6.62744938,0.0,"{71: 1, 28: 1, 32: 2}","[28, 32, 71]",281322711,Lu1Ni1Ge2
ThNiGe2,mp-1206093,0.0,8.1456828,0.0,"{90: 1, 28: 1, 32: 2}","[28, 32, 90]",281322901,Th1Ni1Ge2
NiGe3,mp-976774,0.0,7.37240248,0.4132755631249996,"{28: 1, 32: 3}","[28, 32]",281323,Ni1Ge3
YNiGe3,mp-8467,0.0,6.46665756,0.0,"{39: 1, 28: 1, 32: 3}","[28, 32, 39]",281323391,Y1Ni1Ge3
Y2NiGe3,mp-1216073,0.0,4.70127944,0.05231619249999753,"{39: 2, 28: 1, 32: 3}","[28, 32, 39]",281323392,Y2Ni1Ge3
LaNiGe3,mp-1207245,0.0,6.80770255,0.0,"{57: 1, 28: 1, 32: 3}","[28, 32, 57]",281323571,La1Ni1Ge3
La5NiGe3,mp-1211722,0.0,6.89325219,0.06521388281249774,"{57: 5, 28: 1, 32: 3}","[28, 32, 57]",281323575,La5Ni1Ge3
CeNiGe3,mp-1205748,0.0,6.00046587,0.01011681499999284,"{58: 1, 28: 1, 32: 3}","[28, 32, 58]",281323581,Ce1Ni1Ge3
Ce2NiGe3,mp-1102475,0.0,6.47544785,0.0031891675000039754,"{58: 2, 28: 1, 32: 3}","[28, 32, 58]",281323582,Ce2Ni1Ge3
PrNiGe3,mp-13073,0.0,6.15753984,0.0002521710000022992,"{59: 1, 28: 1, 32: 3}","[28, 32, 59]",281323591,Pr1Ni1Ge3
Pr2NiGe3,mp-1219874,0.0,5.62522903,0.14227640874999814,"{59: 2, 28: 1, 32: 3}","[28, 32, 59]",281323592,Pr2Ni1Ge3
NdNiGe3,mp-1079171,0.0,6.23634588,0.0,"{60: 1, 28: 1, 32: 3}","[28, 32, 60]",281323601,Nd1Ni1Ge3
Nd2NiGe3,mp-1220397,0.0,5.57439659,0.14294521916666536,"{60: 2, 28: 1, 32: 3}","[28, 32, 60]",281323602,Nd2Ni1Ge3
SmNiGe3,mp-8466,0.0,6.17490587,0.13441821166666568,"{62: 1, 28: 1, 32: 3}","[28, 32, 62]",281323621,Sm1Ni1Ge3
Sm2NiGe3,mp-1219188,0.0,4.38386401,0.20566969499999832,"{62: 2, 28: 1, 32: 3}","[28, 32, 62]",281323622,Sm2Ni1Ge3
EuNiGe3,mp-974769,0.0,6.28267669,0.0,"{63: 1, 28: 1, 32: 3}","[28, 32, 63]",281323631,Eu1Ni1Ge3
Eu2NiGe3,mp-1225476,0.0,4.76191416,0.09744249999999788,"{63: 2, 28: 1, 32: 3}","[28, 32, 63]",281323632,Eu2Ni1Ge3
GdNiGe3,mp-1079303,0.0,5.57110683,0.0,"{64: 1, 28: 1, 32: 3}","[28, 32, 64]",281323641,Gd1Ni1Ge3
TbNiGe3,mp-1087235,0.0,6.57753892,0.0,"{65: 1, 28: 1, 32: 3}","[28, 32, 65]",281323651,Tb1Ni1Ge3
DyNiGe3,mp-1087478,0.0,6.42254271,0.0,"{66: 1, 28: 1, 32: 3}","[28, 32, 66]",281323661,Dy1Ni1Ge3
HoNiGe3,mp-1079921,0.0,6.41871273,0.0,"{67: 1, 28: 1, 32: 3}","[28, 32, 67]",281323671,Ho1Ni1Ge3
ErNiGe3,mp-1078854,0.0,6.47885833,0.0008297035000000008,"{68: 1, 28: 1, 32: 3}","[28, 32, 68]",281323681,Er1Ni1Ge3
TmNiGe3,mp-1079044,0.0,6.50580295,0.005338511499999754,"{69: 1, 28: 1, 32: 3}","[28, 32, 69]",281323691,Tm1Ni1Ge3
LuNiGe3,mp-1079715,0.0,6.48756081,0.013156879999998594,"{71: 1, 28: 1, 32: 3}","[28, 32, 71]",281323711,Lu1Ni1Ge3
Y2NiGe6,mp-1205805,0.0,4.31559642,0.014394402777778481,"{39: 2, 28: 1, 32: 6}","[28, 32, 39]",281326392,Y2Ni1Ge6
Ce2NiGe6,mp-1206003,0.0,5.50723722,0.030968879305554253,"{58: 2, 28: 1, 32: 6}","[28, 32, 58]",281326582,Ce2Ni1Ge6
Pr2NiGe6,mp-1207027,0.0,4.03493779,0.030488458888889625,"{59: 2, 28: 1, 32: 6}","[28, 32, 59]",281326592,Pr2Ni1Ge6
Nd2NiGe6,mp-1205918,0.0,4.10205897,0.026904969722211902,"{60: 2, 28: 1, 32: 6}","[28, 32, 60]",281326602,Nd2Ni1Ge6
Tb2NiGe6,mp-1206011,0.0,4.28832926,0.012890770740741964,"{65: 2, 28: 1, 32: 6}","[28, 32, 65]",281326652,Tb2Ni1Ge6
Ho2NiGe6,mp-12987,0.0,5.97505764,0.019796521296298053,"{67: 2, 28: 1, 32: 6}","[28, 32, 67]",281326672,Ho2Ni1Ge6
Er2NiGe6,mp-1206391,0.0,4.23501586,0.007122391759261326,"{68: 2, 28: 1, 32: 6}","[28, 32, 68]",281326682,Er2Ni1Ge6
Tm2NiGe6,mp-1205942,0.0,4.31407952,0.014468452499998286,"{69: 2, 28: 1, 32: 6}","[28, 32, 69]",281326692,Tm2Ni1Ge6
Lu2NiGe6,mp-1206450,0.0,4.3552156,0.02118667666666596,"{71: 2, 28: 1, 32: 6}","[28, 32, 71]",281326712,Lu2Ni1Ge6
ZnNi13Ge8,mp-1200997,0.0,7.2954494,0.004841885378785271,"{30: 1, 28: 13, 32: 8}","[28, 30, 32]",2813301328,Zn1Ni13Ge8
NiAs,mp-590,0.0,7.54703614,0.007765813125001131,"{28: 1, 33: 1}","[28, 33]",281331,Ni1As1
NiAsSe,mp-10846,0.0,6.31662975,0.0,"{28: 1, 33: 1, 34: 1}","[28, 33, 34]",281331341,Ni1As1Se1
YNiAs,mp-1206718,0.0,5.89473062,0.0,"{39: 1, 28: 1, 33: 1}","[28, 33, 39]",281331391,Y1Ni1As1
ZrNiAs,mp-1207428,0.0,7.43209609,0.0,"{40: 1, 28: 1, 33: 1}","[28, 33, 40]",281331401,Zr1Ni1As1
NbNiAs,mp-1103243,0.0,7.9244288,0.0,"{41: 1, 28: 1, 33: 1}","[28, 33, 41]",281331411,Nb1Ni1As1
NiAsRh,mp-19768,0.0,7.98057303,0.0,"{28: 1, 33: 1, 45: 1}","[28, 33, 45]",281331451,Ni1As1Rh1
NiAsPd,mp-1079440,0.0,7.27093343,0.020285287129624407,"{28: 1, 33: 1, 46: 1}","[28, 33, 46]",281331461,Ni1As1Pd1
LaNiAs,mp-1211387,0.0,8.01090913,0.0,"{57: 1, 28: 1, 33: 1}","[28, 33, 57]",281331571,La1Ni1As1
CeNiAs,mp-1061766,0.0,7.86451043,0.0,"{58: 1, 28: 1, 33: 1}","[28, 33, 58]",281331581,Ce1Ni1As1
PrNiAs,mp-1209365,0.0,5.60847888,0.0,"{59: 1, 28: 1, 33: 1}","[28, 33, 59]",281331591,Pr1Ni1As1
NdNiAs,mp-1209847,0.0,5.53742365,0.0,"{60: 1, 28: 1, 33: 1}","[28, 33, 60]",281331601,Nd1Ni1As1
SmNiAs,mp-16734,0.0,5.59616231,0.046553173333332865,"{62: 1, 28: 1, 33: 1}","[28, 33, 62]",281331621,Sm1Ni1As1
GdNiAs,mp-1206977,0.0,5.6836558,0.0,"{64: 1, 28: 1, 33: 1}","[28, 33, 64]",281331641,Gd1Ni1As1
TbNiAs,mp-1206716,0.0,5.9533789,0.0,"{65: 1, 28: 1, 33: 1}","[28, 33, 65]",281331651,Tb1Ni1As1
DyNiAs,mp-1212806,0.0,5.69598603,0.0,"{66: 1, 28: 1, 33: 1}","[28, 33, 66]",281331661,Dy1Ni1As1
HoNiAs,mp-1212066,0.0,5.66835129,0.0,"{67: 1, 28: 1, 33: 1}","[28, 33, 67]",281331671,Ho1Ni1As1
ErNiAs,mp-1212933,0.0,5.74174698,0.0,"{68: 1, 28: 1, 33: 1}","[28, 33, 68]",281331681,Er1Ni1As1
TmNiAs,mp-1207672,0.0,5.71704707,0.0,"{69: 1, 28: 1, 33: 1}","[28, 33, 69]",281331691,Tm1Ni1As1
HfNiAs,mp-1212191,0.0,7.86800877,0.0,"{72: 1, 28: 1, 33: 1}","[28, 33, 72]",281331721,Hf1Ni1As1
TaNiAs,mp-1102844,0.0,8.64045821,0.043007646666669785,"{73: 1, 28: 1, 33: 1}","[28, 33, 73]",281331731,Ta1Ni1As1
Ga9Ni13,mp-21589,0.0,6.56733405,0.0,"{31: 9, 28: 13}","[28, 31]",2813319,Ga9Ni13
UNiAs,mp-1207854,0.0,9.62052874,0.0,"{92: 1, 28: 1, 33: 1}","[28, 33, 92]",281331921,U1Ni1As1
NiAs2,mp-19814,0.0,6.41190615,0.0,"{28: 1, 33: 2}","[28, 33]",281332,Ni1As2
Rb2NiAs2,mp-1205648,0.5596999999999999,2.59738137,0.0,"{37: 2, 28: 1, 33: 2}","[28, 33, 37]",281332372,Rb2Ni1As2
Zr2NiAs2,mp-8786,0.0,6.78600256,0.0,"{40: 2, 28: 1, 33: 2}","[28, 33, 40]",281332402,Zr2Ni1As2
NbNiAs2,mp-504835,0.0,7.18606647,0.0,"{41: 1, 28: 1, 33: 2}","[28, 33, 41]",281332411,Nb1Ni1As2
NiAs2Rh3,mp-1220148,0.0,7.66777256,0.09838035999999661,"{28: 1, 33: 2, 45: 3}","[28, 33, 45]",281332453,Ni1As2Rh3
Cs2NiAs2,mp-1206689,0.5567000000000002,3.22708766,0.0,"{55: 2, 28: 1, 33: 2}","[28, 33, 55]",281332552,Cs2Ni1As2
Tb2NiAs2,mp-1079205,0.0,5.17741504,0.0,"{65: 2, 28: 1, 33: 2}","[28, 33, 65]",281332652,Tb2Ni1As2
Dy2NiAs2,mp-1078556,0.0,5.18366212,0.0006279044999963901,"{66: 2, 28: 1, 33: 2}","[28, 33, 66]",281332662,Dy2Ni1As2
Ho2NiAs2,mp-8787,0.0,5.14800952,0.0017374734999968666,"{67: 2, 28: 1, 33: 2}","[28, 33, 67]",281332672,Ho2Ni1As2
Er2NiAs2,mp-1087228,0.0,5.24467001,0.006645473999996376,"{68: 2, 28: 1, 33: 2}","[28, 33, 68]",281332682,Er2Ni1As2
Tm2NiAs2,mp-11581,0.0,5.2073335,0.008104793999998527,"{69: 2, 28: 1, 33: 2}","[28, 33, 69]",281332692,Tm2Ni1As2
UNiAs2,mp-22159,0.0,9.12060549,0.0,"{92: 1, 28: 1, 33: 2}","[28, 33, 92]",281332921,U1Ni1As2
NiSe,mp-15651,0.0,6.55734533,0.0,"{28: 1, 34: 1}","[28, 34]",281341,Ni1Se1
NiSbSe,mp-10847,0.0,7.45885584,0.0,"{28: 1, 51: 1, 34: 1}","[28, 34, 51]",281341511,Ni1Sb1Se1
NiTeSe,mp-1220035,0.0,6.71054555,0.008450263333333652,"{28: 1, 52: 1, 34: 1}","[28, 34, 52]",281341521,Ni1Te1Se1
U8NiSe17,mp-1192861,0.0,6.71231959,0.0,"{92: 8, 28: 1, 34: 17}","[28, 34, 92]",2813417928,U8Ni1Se17
NiBiSe,mp-1103017,0.0,6.80465074,0.0243401683333353,"{28: 1, 83: 1, 34: 1}","[28, 34, 83]",281341831,Ni1Bi1Se1
NiSe2,mp-20901,0.0,6.29710288,0.0,"{28: 1, 34: 2}","[28, 34]",281342,Ni1Se2
NiAgSe2,mp-1018020,0.0,4.16178892,0.0895163920833344,"{28: 1, 47: 1, 34: 2}","[28, 34, 47]",281342471,Ni1Ag1Se2
Tl2NiSe2,mp-1206900,0.0,3.7258996,0.9097404184666722,"{81: 2, 28: 1, 34: 2}","[28, 34, 81]",281342812,Tl2Ni1Se2
UNiSe3,mp-1188256,0.0,7.094505,0.03453596508333856,"{92: 1, 28: 1, 34: 3}","[28, 34, 92]",281343921,U1Ni1Se3
Zr2NiSe4,mp-1215645,0.0,4.97057649,0.06795586857142766,"{40: 2, 28: 1, 34: 4}","[28, 34, 40]",281344402,Zr2Ni1Se4
Ni(RhSe2)2,mp-4852,0.0,5.59651277,0.042398661309519525,"{28: 1, 45: 2, 34: 4}","[28, 34, 45]",281344452,Ni1Rh2Se4
Ta2NiSe5,mp-541070,0.0,3.49245284,0.0,"{73: 2, 28: 1, 34: 5}","[28, 34, 73]",281345732,Ta2Ni1Se5
Nb3NiSe6,mp-1188620,0.0,4.99225848,0.011850771749998934,"{41: 3, 28: 1, 34: 6}","[28, 34, 41]",281346413,Nb3Ni1Se6
Ta2NiSe7,mp-541183,0.0,3.86160208,0.009090123749998291,"{73: 2, 28: 1, 34: 7}","[28, 34, 73]",281347732,Ta2Ni1Se7
Nb4NiSe8,mp-1193543,0.0,4.67006266,0.0,"{41: 4, 28: 1, 34: 8}","[28, 34, 41]",281348414,Nb4Ni1Se8
Ni(Mo3Se4)2,mp-1220110,0.03610000000000024,4.76519828,0.0654031588888877,"{28: 1, 42: 6, 34: 8}","[28, 34, 42]",281348426,Ni1Mo6Se8
Ta8NiSe8,mp-654199,0.0,5.45832529,0.0018987447549037029,"{73: 8, 28: 1, 34: 8}","[28, 34, 73]",281348738,Ta8Ni1Se8
In9Ni13,mp-641509,0.0,8.8430345,0.06179680954545219,"{49: 9, 28: 13}","[28, 49]",2813499,In9Ni13
Y6NiBr10,mp-1188648,0.48240000000000016,3.01036477,0.0,"{39: 6, 28: 1, 35: 10}","[28, 35, 39]",2813510396,Y6Ni1Br10
Tb6NiBr10,mp-1189005,0.4283000000000001,2.98323358,0.0,"{65: 6, 28: 1, 35: 10}","[28, 35, 65]",2813510656,Tb6Ni1Br10
Th6NiBr15,mp-1208385,0.0,3.23295827,0.0,"{90: 6, 28: 1, 35: 15}","[28, 35, 90]",2813515906,Th6Ni1Br15
NiBr2,mp-27637,0.0,3.09889213,0.0,"{28: 1, 35: 2}","[28, 35]",281352,Ni1Br2
NiRuBr2,mp-631488,0.0,7.05727373,1.0961713850000017,"{28: 1, 44: 1, 35: 2}","[28, 35, 44]",281352441,Ni1Ru1Br2
RbNiBr3,mp-27409,0.47230000000000016,1.24427153,0.0,"{37: 1, 28: 1, 35: 3}","[28, 35, 37]",281353371,Rb1Ni1Br3
CsNiBr3,mp-1080570,0.0,1.60249551,0.0,"{55: 1, 28: 1, 35: 3}","[28, 35, 55]",281353551,Cs1Ni1Br3
La3NiBr3,mp-866714,0.0,5.66107059,0.0,"{57: 3, 28: 1, 35: 3}","[28, 35, 57]",281353573,La3Ni1Br3
SrIn4Ni,mp-20479,0.0,6.7084313,0.00013014083333917625,"{38: 1, 49: 4, 28: 1}","[28, 38, 49]",281381494,Sr1In4Ni1
SrNiSn2,mp-862750,0.0,5.96577505,0.0,"{38: 1, 28: 1, 50: 2}","[28, 38, 50]",281381502,Sr1Ni1Sn2
SrNiSn3,mp-30805,0.0,6.92598601,0.0,"{38: 1, 28: 1, 50: 3}","[28, 38, 50]",281381503,Sr1Ni1Sn3
SrNiIr2,mp-631346,0.0,5.59752237,0.9290595887500004,"{38: 1, 28: 1, 77: 2}","[28, 38, 77]",281381772,Sr1Ni1Ir2
Sr2UNi,mp-1064703,0.0,4.32522015,1.2215499386718758,"{38: 2, 92: 1, 28: 1}","[28, 38, 92]",281382921,Sr2U1Ni1
Sr3Ni,mp-1187128,0.0,2.56335472,0.37619355,"{38: 3, 28: 1}","[28, 38]",281383,Sr3Ni1
YNi,mp-1364,0.0,4.79436289,0.0,"{39: 1, 28: 1}","[28, 39]",281391,Y1Ni1
Y10Cd3Ni,mp-1192560,0.0,3.28778326,0.0,"{39: 10, 48: 3, 28: 1}","[28, 39, 48]",2813910483,Y10Cd3Ni1
YInNi,mp-672299,0.0,6.320198,0.0,"{39: 1, 49: 1, 28: 1}","[28, 39, 49]",281391491,Y1In1Ni1
YIn2Ni,mp-22056,0.0,7.26983422,0.0,"{39: 1, 49: 2, 28: 1}","[28, 39, 49]",281391492,Y1In2Ni1
YNiSn,mp-22617,0.0,6.68832652,0.0,"{39: 1, 28: 1, 50: 1}","[28, 39, 50]",281391501,Y1Ni1Sn1
YNiSn2,mp-21981,0.0,7.21166578,0.0,"{39: 1, 28: 1, 50: 2}","[28, 39, 50]",281391502,Y1Ni1Sn2
YNiSb,mp-11520,0.2945000000000002,6.58644604,0.0,"{39: 1, 28: 1, 51: 1}","[28, 39, 51]",281391511,Y1Ni1Sb1
YNiBi,mp-30460,0.2016,6.10725711,0.0,"{39: 1, 28: 1, 83: 1}","[28, 39, 83]",281391831,Y1Ni1Bi1
Y2NiRu,mp-865641,0.0,4.68435374,0.01610984093750023,"{39: 2, 28: 1, 44: 1}","[28, 39, 44]",281392441,Y2Ni1Ru1
Y2NiRu3,mp-1216057,0.0,6.20051013,0.0,"{39: 2, 28: 1, 44: 3}","[28, 39, 44]",281392443,Y2Ni1Ru3
Y2NiRh,mp-1097198,0.0,-2.58116459,2.5740965268750013,"{39: 2, 28: 1, 45: 1}","[28, 39, 45]",281392451,Y2Ni1Rh1
Y2NiPd,mp-1095920,0.0,-2.54298411,2.520009405625001,"{39: 2, 28: 1, 46: 1}","[28, 39, 46]",281392461,Y2Ni1Pd1
Y2NiIr,mp-865432,0.0,5.01618643,0.026191693466797616,"{39: 2, 28: 1, 77: 1}","[28, 39, 77]",281392771,Y2Ni1Ir1
Y2NiPt,mp-1098698,0.0,-2.6351986,2.593354351875001,"{39: 2, 28: 1, 78: 1}","[28, 39, 78]",281392781,Y2Ni1Pt1
Y3Ni,mp-1105633,0.0,3.72943363,0.0,"{39: 3, 28: 1}","[28, 39]",281393,Y3Ni1
Y4Ni,mp-1207883,0.0,2.95015719,0.4476924234999995,"{39: 4, 28: 1}","[28, 39]",281394,Y4Ni1
Y4CdNi,mp-1207794,0.013399999999999856,3.52646328,0.0,"{39: 4, 48: 1, 28: 1}","[28, 39, 48]",281394481,Y4Cd1Ni1
Y4NiSn8,mp-1216215,0.0,6.95878292,0.02337091762820709,"{39: 4, 28: 1, 50: 8}","[28, 39, 50]",281394508,Y4Ni1Sn8
Y6NiI10,mp-1188535,0.4936999999999996,3.8536877,0.0,"{39: 6, 28: 1, 53: 10}","[28, 39, 53]",2813965310,Y6Ni1I10
ZrNi,mp-556,0.0,5.74414007,0.0,"{40: 1, 28: 1}","[28, 40]",281401,Zr1Ni1
Zr10NiSnSb4,mp-1215855,0.0,6.56090809,0.010954799062498743,"{40: 10, 28: 1, 50: 1, 51: 4}","[28, 40, 50, 51]",2814010501514,Zr10Ni1Sn1Sb4
ZrNiSn,mp-924129,0.49540000000000006,6.64599366,0.0,"{40: 1, 28: 1, 50: 1}","[28, 40, 50]",281401501,Zr1Ni1Sn1
ZrNiSb,mp-20697,0.0,8.19618547,0.0,"{40: 1, 28: 1, 51: 1}","[28, 40, 51]",281401511,Zr1Ni1Sb1
BaZrNi,mp-631542,0.0,3.35636101,0.978681016666668,"{56: 1, 40: 1, 28: 1}","[28, 40, 56]",281401561,Ba1Zr1Ni1
ZrNiBi,mp-31452,0.0,7.29878298,0.07089598224073956,"{40: 1, 28: 1, 83: 1}","[28, 40, 83]",281401831,Zr1Ni1Bi1
Zr2Ni,mp-328,0.0,5.02107207,0.0,"{40: 2, 28: 1}","[28, 40]",281402,Zr2Ni1
Zr2TcNi,mp-1188020,0.0,5.70404488,0.0,"{40: 2, 43: 1, 28: 1}","[28, 40, 43]",281402431,Zr2Tc1Ni1
Zr2In5Ni,mp-602268,0.0,7.35055924,0.0,"{40: 2, 49: 5, 28: 1}","[28, 40, 49]",281402495,Zr2In5Ni1
Zr3Ni,mp-1188073,0.0,4.73211834,0.2678923887500009,"{40: 3, 28: 1}","[28, 40]",281403,Zr3Ni1
Zr3NiSb7,mp-22174,0.0,7.97494677,0.0,"{40: 3, 28: 1, 51: 7}","[28, 40, 51]",281403517,Zr3Ni1Sb7
Zr4Ni,mp-1207489,0.0,3.76356076,0.6438371240000009,"{40: 4, 28: 1}","[28, 40]",281404,Zr4Ni1
Zr4NiMo,mp-1215917,0.0,4.8919886,0.009926580625000625,"{40: 4, 28: 1, 42: 1}","[28, 40, 42]",281404421,Zr4Ni1Mo1
Zr5NiSb3,mp-1106076,0.0,7.38872065,0.0,"{40: 5, 28: 1, 51: 3}","[28, 40, 51]",281405513,Zr5Ni1Sb3
Zr5NiSb9,mp-1192450,0.0,7.55124026,0.021544848833332964,"{40: 5, 28: 1, 51: 9}","[28, 40, 51]",281405519,Zr5Ni1Sb9
Zr6NiSn2,mp-1206510,0.0,5.72092959,0.0024196472222195453,"{40: 6, 28: 1, 50: 2}","[28, 40, 50]",281406502,Zr6Ni1Sn2
Zr6NiSb2,mp-1206964,0.0,6.10486344,0.0,"{40: 6, 28: 1, 51: 2}","[28, 40, 51]",281406512,Zr6Ni1Sb2
Zr6NiTe2,mp-1205792,0.0,6.52739598,0.0,"{40: 6, 28: 1, 52: 2}","[28, 40, 52]",281406522,Zr6Ni1Te2
Zr6NiBi2,mp-1205899,0.0,5.57555085,0.0,"{40: 6, 28: 1, 83: 2}","[28, 40, 83]",281406832,Zr6Ni1Bi2
Zr9NiMo4,mp-1193397,0.0,5.1970252,0.0,"{40: 9, 28: 1, 42: 4}","[28, 40, 42]",281409424,Zr9Ni1Mo4
NbNi,mp-1220799,0.0,6.46315747,0.01428379791025769,"{41: 1, 28: 1}","[28, 41]",281411,Nb1Ni1
NbInNi,mp-1055899,0.0,7.7268015,0.09176686190476246,"{41: 1, 49: 1, 28: 1}","[28, 41, 49]",281411491,Nb1In1Ni1
NbNiTe2,mp-20506,0.0,6.27098182,0.0,"{41: 1, 28: 1, 52: 2}","[28, 41, 52]",281411522,Nb1Ni1Te2
NbNiTe5,mp-8999,0.0,6.28254008,0.0,"{41: 1, 28: 1, 52: 5}","[28, 41, 52]",281411525,Nb1Ni1Te5
Nb2TcNi,mp-1093962,0.0,-3.56583583,3.9677448745833326,"{41: 2, 43: 1, 28: 1}","[28, 41, 43]",281412431,Nb2Tc1Ni1
Nb3Ni,mp-999396,0.0,5.51430857,0.14445807124999988,"{41: 3, 28: 1}","[28, 41]",281413,Nb3Ni1