formula,material_id,band_gap,efermi,energy_above_hull,comp_atoms,sorted_keys_comp_atoms,comp_number,new_formula
La3Ni2B2N3,mp-6114,0.0,8.85545947,0.004735910333343085,"{57: 3, 28: 2, 5: 2, 7: 3}","[5, 7, 28, 57]",5273282573,La3Ni2B2N3
Ce3Ni2B2N3,mp-21136,0.0,8.78573151,0.0,"{58: 3, 28: 2, 5: 2, 7: 3}","[5, 7, 28, 58]",5273282583,Ce3Ni2B2N3
TiNi5(BO5)2,mp-1217013,0.0,5.04985683,0.03449741305547693,"{22: 1, 28: 5, 5: 2, 8: 10}","[5, 8, 22, 28]",52810221285,Ti1Ni5B2O10
VNi5(BO5)2,mp-1216406,0.0,4.36474688,0.023944294722179293,"{23: 1, 28: 5, 5: 2, 8: 10}","[5, 8, 23, 28]",52810231285,V1Ni5B2O10
MnNi5(BO5)2,mp-1221366,0.0,4.1619965,0.0024043146111010216,"{25: 1, 28: 5, 5: 2, 8: 10}","[5, 8, 25, 28]",52810251285,Mn1Ni5B2O10
Mn5Ni(BO5)2,mp-1221544,0.10130000000000017,3.74193099,0.011532736111130149,"{25: 5, 28: 1, 5: 2, 8: 10}","[5, 8, 25, 28]",52810255281,Mn5Ni1B2O10
Ni5Ge(BO5)2,mp-1220232,0.07690000000000019,5.28609312,0.05569618888890027,"{28: 5, 32: 1, 5: 2, 8: 10}","[5, 8, 28, 32]",52810285321,Ni5Ge1B2O10
ZrNi5(BO5)2,mp-1215311,1.4703,4.60195263,0.051534562222209424,"{40: 1, 28: 5, 5: 2, 8: 10}","[5, 8, 28, 40]",52810285401,Zr1Ni5B2O10
Ni5Sn(BO5)2,mp-556514,2.5999,7.14857693,0.0,"{28: 5, 50: 1, 5: 2, 8: 10}","[5, 8, 28, 50]",52810285501,Ni5Sn1B2O10
Ni5B2SbO10,mp-1209850,0.0,5.84033256,0.07510141218750377,"{28: 5, 5: 2, 51: 1, 8: 10}","[5, 8, 28, 51]",52810285511,Ni5B2Sb1O10
HfNi5(BO5)2,mp-558963,3.1031000000000004,6.97143999,0.0,"{72: 1, 28: 5, 5: 2, 8: 10}","[5, 8, 28, 72]",52810285721,Hf1Ni5B2O10
Ni(BO2)2,mp-555102,0.0,4.84278775,0.005562201706351466,"{28: 1, 5: 2, 8: 4}","[5, 8, 28]",5284281,Ni1B2O4
Na3Ni(BO3)2,mp-772229,0.0,1.26443116,0.04475639104167062,"{11: 3, 28: 1, 5: 2, 8: 6}","[5, 8, 11, 28]",5286113281,Na3Ni1B2O6
Ni3(BO3)2,mp-18806,0.0,4.84456151,0.0,"{28: 3, 5: 2, 8: 6}","[5, 8, 28]",5286283,Ni3B2O6
Ni(BMo)3,mp-1105036,0.0,9.37699127,0.0,"{28: 1, 5: 3, 42: 3}","[5, 28, 42]",53281423,Ni1B3Mo3
Ni(BW)3,mp-1104181,0.0,8.79051293,0.0,"{28: 1, 5: 3, 74: 3}","[5, 28, 74]",53281743,Ni1B3W3
CeNi2B3,mp-1226793,0.0,7.80441218,0.12678639152776494,"{58: 1, 28: 2, 5: 3}","[5, 28, 58]",53282581,Ce1Ni2B3
Ni4B3,mp-640067,0.0,9.16743106,0.0,"{28: 4, 5: 3}","[5, 28]",53284,Ni4B3
La2(Ni2B)3,mp-1223681,0.0,8.38582019,0.12692067948617058,"{57: 2, 28: 6, 5: 3}","[5, 28, 57]",53286572,La2Ni6B3
ErNi7B3,mp-31130,0.0,7.65967314,0.0,"{68: 1, 28: 7, 5: 3}","[5, 28, 68]",53287681,Er1Ni7B3
Ni8Ge2B3,mp-22703,0.0,8.83659927,0.0,"{28: 8, 32: 2, 5: 3}","[5, 28, 32]",53288322,Ni8Ge2B3
Ni8B3SbO15,mp-1220223,0.0,6.02953088,0.010712602314806752,"{28: 8, 5: 3, 51: 1, 8: 15}","[5, 8, 28, 51]",53815288511,Ni8B3Sb1O15
Ca5Ni15B4,mp-28170,0.0,6.20596758,0.0,"{20: 5, 28: 15, 5: 4}","[5, 20, 28]",542052815,Ca5Ni15B4
ScNiB4,mp-21081,0.0,7.60198065,0.0,"{21: 1, 28: 1, 5: 4}","[5, 21, 28]",54211281,Sc1Ni1B4
YNiB4,mp-1190178,0.0,6.50246324,0.0,"{39: 1, 28: 1, 5: 4}","[5, 28, 39]",54281391,Y1Ni1B4
Nb5Ni(B2Ru5)2,mp-1220578,0.0,7.35376705,0.011120388357493738,"{41: 5, 28: 1, 5: 4, 44: 10}","[5, 28, 41, 44]",542814154410,Nb5Ni1B4Ru10
CeNiB4,mp-1191074,0.0,8.33042048,0.0,"{58: 1, 28: 1, 5: 4}","[5, 28, 58]",54281581,Ce1Ni1B4
PrNiB4,mp-861608,0.0,6.29091282,0.0,"{59: 1, 28: 1, 5: 4}","[5, 28, 59]",54281591,Pr1Ni1B4
NdNiB4,mp-1191368,0.0,6.3444978,0.0,"{60: 1, 28: 1, 5: 4}","[5, 28, 60]",54281601,Nd1Ni1B4
SmNiB4,mp-979948,0.0,6.20108251,0.0,"{62: 1, 28: 1, 5: 4}","[5, 28, 62]",54281621,Sm1Ni1B4
GdNiB4,mp-865177,0.0,6.07879613,0.8499812808238589,"{64: 1, 28: 1, 5: 4}","[5, 28, 64]",54281641,Gd1Ni1B4
TbNiB4,mp-972467,0.0,6.45175143,0.0,"{65: 1, 28: 1, 5: 4}","[5, 28, 65]",54281651,Tb1Ni1B4
DyNiB4,mp-1190599,0.0,6.41802889,0.0,"{66: 1, 28: 1, 5: 4}","[5, 28, 66]",54281661,Dy1Ni1B4
HoNiB4,mp-1192149,0.0,6.41357521,0.012027133789063171,"{67: 1, 28: 1, 5: 4}","[5, 28, 67]",54281671,Ho1Ni1B4
ErNiB4,mp-27895,0.0,6.42950118,0.0,"{68: 1, 28: 1, 5: 4}","[5, 28, 68]",54281681,Er1Ni1B4
TmNiB4,mp-1190739,0.0,6.76678803,0.0,"{69: 1, 28: 1, 5: 4}","[5, 28, 69]",54281691,Tm1Ni1B4
LuNiB4,mp-865491,0.0,6.86117746,0.0,"{71: 1, 28: 1, 5: 4}","[5, 28, 71]",54281711,Lu1Ni1B4
UNiB4,mp-972320,0.0,9.82740082,0.0,"{92: 1, 28: 1, 5: 4}","[5, 28, 92]",54281921,U1Ni1B4
La2Ni5B4,mp-3471,0.0,8.59175194,0.0,"{57: 2, 28: 5, 5: 4}","[5, 28, 57]",54285572,La2Ni5B4
Ce2Ni5B4,mp-1095458,0.0,8.4004395,0.025439502045452755,"{58: 2, 28: 5, 5: 4}","[5, 28, 58]",54285582,Ce2Ni5B4
Pr2Ni5B4,mp-1102902,0.0,6.31029744,0.0,"{59: 2, 28: 5, 5: 4}","[5, 28, 59]",54285592,Pr2Ni5B4
Nd2Ni5B4,mp-31029,0.0,6.34818175,0.0,"{60: 2, 28: 5, 5: 4}","[5, 28, 60]",54285602,Nd2Ni5B4
TbYNi4(B2C)2,mp-1217431,0.0,6.7890327,0.004127083333332671,"{65: 1, 39: 1, 28: 4, 5: 4, 6: 2}","[5, 6, 28, 39, 65]",5462284391651,Tb1Y1Ni4B4C2
Y3Ni4B4C3,mp-567692,0.0,6.07436639,0.004055582142844294,"{39: 3, 28: 4, 5: 4, 6: 3}","[5, 6, 28, 39]",5463284393,Y3Ni4B4C3
Ho2Ni(B2O5)2,mp-16779,3.904,3.61163614,0.0,"{67: 2, 28: 1, 5: 4, 8: 10}","[5, 8, 28, 67]",54810281672,Ho2Ni1B4O10
ZnNi3(B2O5)2,mp-1215679,4.0858,2.31279345,0.02145494604166398,"{30: 1, 28: 3, 5: 4, 8: 10}","[5, 8, 28, 30]",54810283301,Zn1Ni3B4O10
UNi7(BO4)4,mp-578723,0.7572000000000001,4.34275437,0.0,"{92: 1, 28: 7, 5: 4, 8: 16}","[5, 8, 28, 92]",54816287921,U1Ni7B4O16
NbNi11(BO5)4,mp-1211101,0.0,4.02123102,0.0,"{41: 1, 28: 11, 5: 4, 8: 20}","[5, 8, 28, 41]",548202811411,Nb1Ni11B4O20
TaNi11(BO5)4,mp-1208716,0.0,4.06238543,0.0,"{73: 1, 28: 11, 5: 4, 8: 20}","[5, 8, 28, 73]",548202811731,Ta1Ni11B4O20
NiB4O7,mp-557107,2.1422999999999996,3.96648379,0.011685367592596307,"{28: 1, 5: 4, 8: 7}","[5, 8, 28]",5487281,Ni1B4O7
Tb2(Ni2B)5,mp-1201581,0.0,7.09908105,0.002208977024900527,"{65: 2, 28: 10, 5: 5}","[5, 28, 65]",552810652,Tb2Ni10B5
Dy2(Ni2B)5,mp-1204635,0.0,7.09600733,0.0,"{66: 2, 28: 10, 5: 5}","[5, 28, 66]",552810662,Dy2Ni10B5
Ho2(Ni2B)5,mp-568440,0.0,7.07338759,0.19761567244747447,"{67: 2, 28: 10, 5: 5}","[5, 28, 67]",552810672,Ho2Ni10B5
Er2(Ni2B)5,mp-1197355,0.0,6.96046102,0.0,"{68: 2, 28: 10, 5: 5}","[5, 28, 68]",552810682,Er2Ni10B5
Tm2(Ni2B)5,mp-1203887,0.0,7.11897655,0.0,"{69: 2, 28: 10, 5: 5}","[5, 28, 69]",552810692,Tm2Ni10B5
NdNi(BO2)5,mp-19520,1.4747000000000003,3.47522719,0.0,"{60: 1, 28: 1, 5: 5, 8: 10}","[5, 8, 28, 60]",55810281601,Nd1Ni1B5O10
GdNi(BO2)5,mp-505232,3.132,2.3142502,0.0,"{64: 1, 28: 1, 5: 5, 8: 10}","[5, 8, 28, 64]",55810281641,Gd1Ni1B5O10
Mg3(Ni10B3)2,mp-10117,0.0,7.5560044,0.0,"{12: 3, 28: 20, 5: 6}","[5, 12, 28]",561232820,Mg3Ni20B6
Al2(Ni7B2)3,mp-1214897,0.0,8.38685331,0.0,"{13: 2, 28: 21, 5: 6}","[5, 13, 28]",561322821,Al2Ni21B6
Al3(Ni10B3)2,mp-505472,0.0,8.49856361,0.0,"{13: 3, 28: 20, 5: 6}","[5, 13, 28]",561332820,Al3Ni20B6
Ca(Ni2B)6,mp-21312,0.0,7.56716303,0.0,"{20: 1, 28: 12, 5: 6}","[5, 20, 28]",562012812,Ca1Ni12B6
Ca2(Ni7B2)3,mp-1193221,0.0,7.38726393,0.027331254482758638,"{20: 2, 28: 21, 5: 6}","[5, 20, 28]",562022821,Ca2Ni21B6
Sc2(Ni7B2)3,mp-647205,0.0,7.78777406,0.0,"{21: 2, 28: 21, 5: 6}","[5, 21, 28]",562122821,Sc2Ni21B6
Sc3(Ni10B3)2,mp-1194311,0.0,7.74791903,0.0,"{21: 3, 28: 20, 5: 6}","[5, 21, 28]",562132820,Sc3Ni20B6
Ti2(Ni7B2)3,mp-1193180,0.0,8.19615496,0.0,"{22: 2, 28: 21, 5: 6}","[5, 22, 28]",562222821,Ti2Ni21B6
Ti3(Ni10B3)2,mp-1193912,0.0,8.39794219,0.0,"{22: 3, 28: 20, 5: 6}","[5, 22, 28]",562232820,Ti3Ni20B6
V2(Ni7B2)3,mp-1207902,0.0,8.21397819,0.004256709310341833,"{23: 2, 28: 21, 5: 6}","[5, 23, 28]",562322821,V2Ni21B6
V3(Ni10B3)2,mp-1192799,0.0,8.35541665,0.0,"{23: 3, 28: 20, 5: 6}","[5, 23, 28]",562332820,V3Ni20B6
Cr2(NiB2)3,mp-1226092,0.0,8.96772735,0.026828243011363995,"{24: 2, 28: 3, 5: 6}","[5, 24, 28]",56242283,Cr2Ni3B6
Cr3NiB6,mp-1226349,0.0,8.93845694,0.04149630243750124,"{24: 3, 28: 1, 5: 6}","[5, 24, 28]",56243281,Cr3Ni1B6
Mn2(Ni7B2)3,mp-1193061,0.0,8.10314255,0.08072694840516981,"{25: 2, 28: 21, 5: 6}","[5, 25, 28]",562522821,Mn2Ni21B6
Mn3(Ni10B3)2,mp-1194237,0.0,8.03749073,0.09662836466953983,"{25: 3, 28: 20, 5: 6}","[5, 25, 28]",562532820,Mn3Ni20B6
Fe3(Ni10B3)2,mp-1193589,0.0,7.73009511,0.029960702931033367,"{26: 3, 28: 20, 5: 6}","[5, 26, 28]",562632820,Fe3Ni20B6
Sr(Ni2B)6,mp-16830,0.0,7.44028876,0.0,"{38: 1, 28: 12, 5: 6}","[5, 28, 38]",562812381,Sr1Ni12B6
Y(Ni2B)6,mp-1202784,0.0,7.5987725,0.0,"{39: 1, 28: 12, 5: 6}","[5, 28, 39]",562812391,Y1Ni12B6
Ba(Ni2B)6,mp-17236,0.0,7.3147391,0.0,"{56: 1, 28: 12, 5: 6}","[5, 28, 56]",562812561,Ba1Ni12B6
La(Ni2B)6,mp-14325,0.0,8.35904883,0.0,"{57: 1, 28: 12, 5: 6}","[5, 28, 57]",562812571,La1Ni12B6
Ce(Ni2B)6,mp-21695,0.0,8.27002449,0.0,"{58: 1, 28: 12, 5: 6}","[5, 28, 58]",562812581,Ce1Ni12B6
Pr(Ni2B)6,mp-1201639,0.0,7.54137349,0.0,"{59: 1, 28: 12, 5: 6}","[5, 28, 59]",562812591,Pr1Ni12B6
Nd(Ni2B)6,mp-1202698,0.0,7.48700459,0.0,"{60: 1, 28: 12, 5: 6}","[5, 28, 60]",562812601,Nd1Ni12B6
Sm(Ni2B)6,mp-1205147,0.0,7.51901081,0.2319352767105336,"{62: 1, 28: 12, 5: 6}","[5, 28, 62]",562812621,Sm1Ni12B6
Eu(Ni2B)6,mp-580731,0.0,7.60234543,0.0,"{63: 1, 28: 12, 5: 6}","[5, 28, 63]",562812631,Eu1Ni12B6
Gd(Ni2B)6,mp-1204079,0.0,7.13242422,0.0,"{64: 1, 28: 12, 5: 6}","[5, 28, 64]",562812641,Gd1Ni12B6
Tb(Ni2B)6,mp-10124,0.0,7.68242576,0.0,"{65: 1, 28: 12, 5: 6}","[5, 28, 65]",562812651,Tb1Ni12B6
Dy(Ni2B)6,mp-1202380,0.0,7.56312276,0.0,"{66: 1, 28: 12, 5: 6}","[5, 28, 66]",562812661,Dy1Ni12B6
Ho(Ni2B)6,mp-1212548,0.0,7.61287138,0.07669957131578986,"{67: 1, 28: 12, 5: 6}","[5, 28, 67]",562812671,Ho1Ni12B6
Ho2(Ni5B2)3,mp-567285,0.0,7.65968235,0.18222658826086935,"{67: 2, 28: 15, 5: 6}","[5, 28, 67]",562815672,Ho2Ni15B6
Lu5Ni19B6,mp-8531,0.0,6.82091094,0.01670645267328652,"{71: 5, 28: 19, 5: 6}","[5, 28, 71]",562819715,Lu5Ni19B6
Zn3(Ni10B3)2,mp-10131,0.0,7.36844577,0.0,"{30: 3, 28: 20, 5: 6}","[5, 28, 30]",562820303,Zn3Ni20B6
Ga3(Ni10B3)2,mp-977324,0.0,7.86162872,0.0,"{31: 3, 28: 20, 5: 6}","[5, 28, 31]",562820313,Ga3Ni20B6
Zr3(Ni10B3)2,mp-1193952,0.0,7.73385296,0.0,"{40: 3, 28: 20, 5: 6}","[5, 28, 40]",562820403,Zr3Ni20B6
Nb3(Ni10B3)2,mp-1210153,0.0,8.05791984,0.0,"{41: 3, 28: 20, 5: 6}","[5, 28, 41]",562820413,Nb3Ni20B6
Ni20(SnB2)3,mp-29724,0.0,9.18373043,0.009313329949709015,"{28: 20, 50: 3, 5: 6}","[5, 28, 50]",562820503,Ni20Sn3B6
Hf3(Ni10B3)2,mp-1193581,0.0,7.99443782,0.039822545459762715,"{72: 3, 28: 20, 5: 6}","[5, 28, 72]",562820723,Hf3Ni20B6
Ta3(Ni10B3)2,mp-1194177,0.0,8.35409846,0.0,"{73: 3, 28: 20, 5: 6}","[5, 28, 73]",562820733,Ta3Ni20B6
Ga2(Ni7B2)3,mp-1193255,0.0,7.92866485,0.0,"{31: 2, 28: 21, 5: 6}","[5, 28, 31]",562821312,Ga2Ni21B6
Ni21(GeB3)2,mp-1209988,0.0,8.16658676,0.0,"{28: 21, 32: 2, 5: 6}","[5, 28, 32]",562821322,Ni21Ge2B6
Zr2(Ni7B2)3,mp-5172,0.0,7.91207237,0.0,"{40: 2, 28: 21, 5: 6}","[5, 28, 40]",562821402,Zr2Ni21B6
Nb2(Ni7B2)3,mp-1210179,0.0,8.09495709,0.0,"{41: 2, 28: 21, 5: 6}","[5, 28, 41]",562821412,Nb2Ni21B6
In2(Ni7B2)3,mp-21551,0.0,8.55893408,0.0,"{49: 2, 28: 21, 5: 6}","[5, 28, 49]",562821492,In2Ni21B6
Ni21(SnB3)2,mp-21573,0.0,8.86129026,0.0,"{28: 21, 50: 2, 5: 6}","[5, 28, 50]",562821502,Ni21Sn2B6
Ni21(B3Sb)2,mp-10123,0.0,9.0158008,0.0,"{28: 21, 5: 6, 51: 2}","[5, 28, 51]",562821512,Ni21B6Sb2
Ce2(Ni7B2)3,mp-541851,0.0,8.59520618,0.00454954998433621,"{58: 2, 28: 21, 5: 6}","[5, 28, 58]",562821582,Ce2Ni21B6
Er2(Ni7B2)3,mp-1193830,0.0,7.61673418,0.003944033749992748,"{68: 2, 28: 21, 5: 6}","[5, 28, 68]",562821682,Er2Ni21B6
Tm2(Ni7B2)3,mp-21608,0.0,7.59311837,0.0,"{69: 2, 28: 21, 5: 6}","[5, 28, 69]",562821692,Tm2Ni21B6
Lu2(Ni7B2)3,mp-1193129,0.0,7.45557226,0.0,"{71: 2, 28: 21, 5: 6}","[5, 28, 71]",562821712,Lu2Ni21B6
Hf2(Ni7B2)3,mp-1194313,0.0,8.18513596,0.0,"{72: 2, 28: 21, 5: 6}","[5, 28, 72]",562821722,Hf2Ni21B6
Ta2(Ni7B2)3,mp-1192512,0.0,8.29919716,0.0,"{73: 2, 28: 21, 5: 6}","[5, 28, 73]",562821732,Ta2Ni21B6
U2(Ni7B2)3,mp-10130,0.0,9.20874926,0.0,"{92: 2, 28: 21, 5: 6}","[5, 28, 92]",562821922,U2Ni21B6
In(Ni11B3)2,mp-1224500,0.0,8.42338221,0.0129119222413685,"{49: 1, 28: 22, 5: 6}","[5, 28, 49]",562822491,In1Ni22B6
Ni23B6,mp-20962,0.0,7.98581129,0.025791950344828507,"{28: 23, 5: 6}","[5, 28]",562823,Ni23B6
Tb2(NiB2)3,mp-1102097,0.0,6.53352439,0.00985271000002097,"{65: 2, 28: 3, 5: 6}","[5, 28, 65]",56283652,Tb2Ni3B6
Dy2(NiB2)3,mp-1103438,0.0,6.61058512,0.002454742500010987,"{66: 2, 28: 3, 5: 6}","[5, 28, 66]",56283662,Dy2Ni3B6
Ho2(NiB2)3,mp-1095435,0.0,6.43582723,0.11329343477982956,"{67: 2, 28: 3, 5: 6}","[5, 28, 67]",56283672,Ho2Ni3B6
Er2(NiB2)3,mp-4071,0.0,6.50844046,0.0,"{68: 2, 28: 3, 5: 6}","[5, 28, 68]",56283682,Er2Ni3B6
Tm2(NiB2)3,mp-1102968,0.0,6.4729907,0.0,"{69: 2, 28: 3, 5: 6}","[5, 28, 69]",56283692,Tm2Ni3B6
Lu2(NiB2)3,mp-8771,0.0,6.49671824,0.0,"{71: 2, 28: 3, 5: 6}","[5, 28, 71]",56283712,Lu2Ni3B6
Ba2(Ni3B2)3,mp-29219,0.0,6.16413334,0.011178452205885314,"{56: 2, 28: 9, 5: 6}","[5, 28, 56]",56289562,Ba2Ni9B6
TbY2Ni6(B2C)3,mp-1217435,0.0,6.73612058,0.004487653888886278,"{65: 1, 39: 2, 28: 6, 5: 6, 6: 3}","[5, 6, 28, 39, 65]",5663286392651,Tb1Y2Ni6B6C3
Ni(BO3)6,mp-1202601,0.1089,-1.78733697,0.8602168266722261,"{28: 1, 5: 6, 8: 18}","[5, 8, 28]",56818281,Ni1B6O18
Ni3B7ClO13,mp-556141,3.1031999999999997,3.4803055,0.0,"{28: 3, 5: 7, 17: 1, 8: 13}","[5, 8, 17, 28]",57813171283,Ni3B7Cl1O13
Ni3B7BrO13,mp-554323,3.1527999999999996,5.73451078,0.0,"{28: 3, 5: 7, 35: 1, 8: 13}","[5, 8, 28, 35]",57813283351,Ni3B7Br1O13
Ni3B7IO13,mp-504714,2.3700000000000006,3.59314004,0.0,"{28: 3, 5: 7, 53: 1, 8: 13}","[5, 8, 28, 53]",57813283531,Ni3B7I1O13
Al(Ni3B2)4,mp-866315,0.0,8.90995502,0.0,"{13: 1, 28: 12, 5: 8}","[5, 13, 28]",581312812,Al1Ni12B8
AlNi9B8,mp-1194505,0.0,9.05640105,0.012936473560605677,"{13: 1, 28: 9, 5: 8}","[5, 13, 28]",58131289,Al1Ni9B8
Ti8Ni3(B4Ru9)2,mp-1217553,0.0,7.6790076,0.04485079190540553,"{22: 8, 28: 3, 5: 8, 44: 18}","[5, 22, 28, 44]",582282834418,Ti8Ni3B8Ru18
Ti9Ni2(B4Ru9)2,mp-1199093,0.0,7.57848192,0.02956294370270207,"{22: 9, 28: 2, 5: 8, 44: 18}","[5, 22, 28, 44]",582292824418,Ti9Ni2B8Ru18
Ga(Ni3B2)4,mp-1213377,0.0,8.54865862,0.005147155171258966,"{31: 1, 28: 12, 5: 8}","[5, 28, 31]",582812311,Ga1Ni12B8
Zn10Ni(B4Rh9)2,mp-1203945,0.0,5.74091266,0.015445494502454693,"{30: 10, 28: 1, 5: 8, 45: 18}","[5, 28, 30, 45]",5828130104518,Zn10Ni1B8Rh18
GaNi9B8,mp-1194536,0.0,8.61819936,0.011486997881944738,"{31: 1, 28: 9, 5: 8}","[5, 28, 31]",58289311,Ga1Ni9B8
TbY3Ni8(B2C)4,mp-1217451,0.0,6.82404745,0.005113272500000043,"{65: 1, 39: 3, 28: 8, 5: 8, 6: 4}","[5, 6, 28, 39, 65]",5864288393651,Tb1Y3Ni8B8C4
Y2(Ni5B3)3,mp-1204725,0.0,7.89931758,0.016858252204142055,"{39: 2, 28: 15, 5: 9}","[5, 28, 39]",592815392,Y2Ni15B9
Tb2(Ni5B3)3,mp-1199398,0.0,7.91024769,0.017033840687868285,"{65: 2, 28: 15, 5: 9}","[5, 28, 65]",592815652,Tb2Ni15B9
Dy2(Ni5B3)3,mp-1198877,0.0,7.86175312,0.011657191984892457,"{66: 2, 28: 15, 5: 9}","[5, 28, 66]",592815662,Dy2Ni15B9
Ho2(Ni5B3)3,mp-5571,0.0,7.81927601,0.11360279223557068,"{67: 2, 28: 15, 5: 9}","[5, 28, 67]",592815672,Ho2Ni15B9
Er2(Ni5B3)3,mp-1199522,0.0,7.85765629,0.0,"{68: 2, 28: 15, 5: 9}","[5, 28, 68]",592815682,Er2Ni15B9
Tm2(Ni5B3)3,mp-1203552,0.0,7.7838343,0.0,"{69: 2, 28: 15, 5: 9}","[5, 28, 69]",592815692,Tm2Ni15B9
Lu2(Ni5B3)3,mp-1201139,0.0,7.89456374,0.0,"{71: 2, 28: 15, 5: 9}","[5, 28, 71]",592815712,Lu2Ni15B9
MgNi3C,mp-10700,0.0,6.56970386,0.0,"{12: 1, 28: 3, 6: 1}","[6, 12, 28]",61121283,Mg1Ni3C1
Mg14NiC,mp-1028369,0.0,3.53112674,0.22434809286458357,"{12: 14, 28: 1, 6: 1}","[6, 12, 28]",611214281,Mg14Ni1C1
Mg6NiC,mp-1021906,0.0,3.97027538,0.3472024288541671,"{12: 6, 28: 1, 6: 1}","[6, 12, 28]",61126281,Mg6Ni1C1
AlNi3C,mp-1207084,0.0,8.44677892,0.16590739049999925,"{13: 1, 28: 3, 6: 1}","[6, 13, 28]",61131283,Al1Ni3C1
Ti3Al2NiC,mp-505538,0.0,7.1848728,0.0,"{22: 3, 13: 2, 28: 1, 6: 1}","[6, 13, 22, 28]",61132223281,Ti3Al2Ni1C1
Al3Ni9C,mp-1229029,0.0,8.61664312,0.044407541730770994,"{13: 3, 28: 9, 6: 1}","[6, 13, 28]",61133289,Al3Ni9C1
Al4Ni12C,mp-1228788,0.0,8.52433566,0.03829723191176271,"{13: 4, 28: 12, 6: 1}","[6, 13, 28]",611342812,Al4Ni12C1
Ni2P4C11S2(OF8)3,mp-705014,4.396599999999999,-0.04718094,0.5968167710131995,"{28: 2, 15: 4, 6: 11, 16: 2, 8: 3, 9: 24}","[6, 8, 9, 15, 16, 28]",61183924154162282,Ni2P4C11S2O3F24
Ti2Nb2Ni2C,mp-1217366,0.0,6.26696185,0.00470090000000134,"{22: 2, 41: 2, 28: 2, 6: 1}","[6, 22, 28, 41]",61222282412,Ti2Nb2Ni2C1
Ta2Ti2Ni2C,mp-1218255,0.0,6.61844889,0.0024609307142853254,"{73: 2, 22: 2, 28: 2, 6: 1}","[6, 22, 28, 73]",61222282732,Ta2Ti2Ni2C1
Fe2NiC,mp-1189517,0.0,7.40775579,0.11529365500000033,"{26: 2, 28: 1, 6: 1}","[6, 26, 28]",61262281,Fe2Ni1C1
NiC,mp-1009582,0.0,8.88794318,1.09046414125,"{28: 1, 6: 1}","[6, 28]",61281,Ni1C1
Nb4Ni2C,mp-864841,0.0,5.93077979,0.0,"{41: 4, 28: 2, 6: 1}","[6, 28, 41]",61282414,Nb4Ni2C1
Ni2Mo4C,mp-21536,0.0,8.48550239,0.0,"{28: 2, 42: 4, 6: 1}","[6, 28, 42]",61282424,Ni2Mo4C1
Ta4Ni2C,mp-867754,0.0,6.50883599,0.0,"{73: 4, 28: 2, 6: 1}","[6, 28, 73]",61282734,Ta4Ni2C1
Ni2W4C,mp-974038,0.0,7.84439502,0.0,"{28: 2, 74: 4, 6: 1}","[6, 28, 74]",61282744,Ni2W4C1
Ni3C,mp-7586,0.0,8.16174219,0.05891355562500067,"{28: 3, 6: 1}","[6, 28]",61283,Ni3C1
ZnNi3C,mp-16290,0.0,6.53066678,0.04252874849999966,"{30: 1, 28: 3, 6: 1}","[6, 28, 30]",61283301,Zn1Ni3C1
GaNi3C,mp-1206991,0.0,7.29300695,0.1577100584999993,"{31: 1, 28: 3, 6: 1}","[6, 28, 31]",61283311,Ga1Ni3C1
Ni3GeC,mp-8370,0.0,8.2784633,0.3200863424999998,"{28: 3, 32: 1, 6: 1}","[6, 28, 32]",61283321,Ni3Ge1C1
Nb3Ni3C,mp-1194349,0.0,6.6141282,0.07361272000000518,"{41: 3, 28: 3, 6: 1}","[6, 28, 41]",61283413,Nb3Ni3C1
Ni3Mo3C,mp-569179,0.0,8.38732077,0.04524338750000467,"{28: 3, 42: 3, 6: 1}","[6, 28, 42]",61283423,Ni3Mo3C1
CdNi3C,mp-1206343,0.0,6.3006412,0.02746820850000109,"{48: 1, 28: 3, 6: 1}","[6, 28, 48]",61283481,Cd1Ni3C1
Ni3W3C,mp-1194387,0.0,7.80169646,0.06632543642857236,"{28: 3, 74: 3, 6: 1}","[6, 28, 74]",61283743,Ni3W3C1
Ni3W6C,mp-1220975,0.0,7.56180263,0.043081967124999565,"{28: 3, 74: 6, 6: 1}","[6, 28, 74]",61283746,Ni3W6C1
Ni6Mo6C,mp-30052,0.0,8.46859333,0.0,"{28: 6, 42: 6, 6: 1}","[6, 28, 42]",61286426,Ni6Mo6C1
In2Ni6C,mp-1224072,0.0,8.948956,0.021881861388890478,"{49: 2, 28: 6, 6: 1}","[6, 28, 49]",61286492,In2Ni6C1
Ni6W6C,mp-1194082,0.0,7.8794708,0.0,"{28: 6, 74: 6, 6: 1}","[6, 28, 74]",61286746,Ni6W6C1
NiC14S2N2O3,mp-1201562,0.4472,0.20748415,1.1038984216531365,"{28: 1, 6: 14, 16: 2, 7: 2, 8: 3}","[6, 7, 8, 16, 28]",6147283162281,Ni1C14S2N2O3
Ni2C15Se4S16N,mp-1220770,0.0,0.86075167,0.4365929804041295,"{28: 2, 6: 15, 34: 4, 16: 16, 7: 1}","[6, 7, 16, 28, 34]",615711616282344,Ni2C15Se4S16N1
Ni4Mo6CN,mp-1220098,0.0,8.27309276,0.013342655624994038,"{28: 4, 42: 6, 6: 1, 7: 1}","[6, 7, 28, 42]",6171284426,Ni4Mo6C1N1
NiCN2,mp-567262,0.0,5.18001559,0.15561277812499874,"{28: 1, 6: 1, 7: 2}","[6, 7, 28]",6172281,Ni1C1N2
Ni4CN4,mp-1246802,0.0,5.31432749,0.2078091186111095,"{28: 4, 6: 1, 7: 4}","[6, 7, 28]",6174284,Ni4C1N4
NiRu5C17O16,mp-1196196,1.9236999999999997,-0.44005729,0.2612902175320553,"{28: 1, 44: 5, 6: 17, 8: 16}","[6, 8, 28, 44]",617816281445,Ni1Ru5C17O16
Mg14NiCO16,mp-1034743,0.8719000000000001,5.28328706,0.2504870906250005,"{12: 14, 28: 1, 6: 1, 8: 16}","[6, 8, 12, 28]",618161214281,Mg14Ni1C1O16
Mg30NiCO32,mp-1036823,2.4239999999999995,4.66119885,0.12433393875000043,"{12: 30, 28: 1, 6: 1, 8: 32}","[6, 8, 12, 28]",618321230281,Mg30Ni1C1O32
NiCO3,mp-19147,0.0,4.39487297,0.0,"{28: 1, 6: 1, 8: 3}","[6, 8, 28]",6183281,Ni1C1O3
NiCO4,mp-752591,0.0,1.82315403,0.37102564083332723,"{28: 1, 6: 1, 8: 4}","[6, 8, 28]",6184281,Ni1C1O4
Na5NiCO5,mp-1220779,1.6222,1.01623831,0.057130653576390245,"{11: 5, 28: 1, 6: 1, 8: 5}","[6, 8, 11, 28]",6185115281,Na5Ni1C1O5
NaNiCSO7,mp-863078,0.07330000000000003,-0.61734264,0.04521493806818189,"{11: 1, 28: 1, 6: 1, 16: 1, 8: 7}","[6, 8, 11, 16, 28]",6187111161281,Na1Ni1C1S1O7
Na2NiPCO7,mp-774783,0.04859999999999998,0.80859241,0.040048379097203934,"{11: 2, 28: 1, 15: 1, 6: 1, 8: 7}","[6, 8, 11, 15, 28]",6187112151281,Na2Ni1P1C1O7
Na2NiCSO7,mp-768598,2.6726,1.17255477,0.03501061562498098,"{11: 2, 28: 1, 6: 1, 16: 1, 8: 7}","[6, 8, 11, 16, 28]",6187112161281,Na2Ni1C1S1O7
Na2NiAsCO7,mp-772551,0.6108000000000001,0.35656995,0.01689792602831286,"{11: 2, 28: 1, 33: 1, 6: 1, 8: 7}","[6, 8, 11, 28, 33]",6187112281331,Na2Ni1As1C1O7