formula,material_id,band_gap,efermi,energy_above_hull,comp_atoms,sorted_keys_comp_atoms,comp_number,new_formula
Y5Mn3(NiO6)3,mp-1324685,0.0,2.98815731,0.08222985499384272,"{39: 5, 25: 3, 28: 3, 8: 18}","[8, 25, 28, 39]",818253283395,Y5Mn3Ni3O18
Ni(SbO9)2,mp-1201267,0.0,0.93488589,1.009523347619048,"{28: 1, 51: 2, 8: 18}","[8, 28, 51]",818281512,Ni1Sb2O18
Ni4(BiO2)9,mp-690570,0.0,4.0119917,0.17737246427421027,"{28: 4, 83: 9, 8: 18}","[8, 28, 83]",818284839,Ni4Bi9O18
Zn4Ni5(TeO6)3,mp-1046551,1.2330000000000005,3.7876264,0.002668768092593865,"{30: 4, 28: 5, 52: 3, 8: 18}","[8, 28, 30, 52]",818285304523,Zn4Ni5Te3O18
Ni5(TeO6)3,mp-1046640,0.0,2.67715095,0.3085685236538458,"{28: 5, 52: 3, 8: 18}","[8, 28, 52]",818285523,Ni5Te3O18
Cd2Ni6Te3PbO18,mp-1194532,1.5835999999999997,4.61382634,0.0,"{48: 2, 28: 6, 52: 3, 82: 1, 8: 18}","[8, 28, 48, 52, 82]",818286482523821,Cd2Ni6Te3Pb1O18
Ni6OF11,mp-754507,0.9058999999999999,0.78689609,0.03549810518518193,"{28: 6, 8: 1, 9: 11}","[8, 9, 28]",81911286,Ni6O1F11
NiOF,mp-1147690,0.0,1.49625345,0.3610287244444432,"{28: 1, 8: 1, 9: 1}","[8, 9, 28]",8191281,Ni1O1F1
NiOF2,mp-754037,0.3167,-1.18673839,0.1553707081249991,"{28: 1, 8: 1, 9: 2}","[8, 9, 28]",8192281,Ni1O1F2
Ni4Mo4O19,mp-1220121,0.205,-0.44174705,0.21483828398147864,"{28: 4, 42: 4, 8: 19}","[8, 28, 42]",819284424,Ni4Mo4O19
La9Ni5O19,mp-757549,0.0,4.3864431,0.08483659575758296,"{57: 9, 28: 5, 8: 19}","[8, 28, 57]",819285579,La9Ni5O19
La9Ni6O19,mp-1223566,0.0,8.11120541,0.18182958113970304,"{57: 9, 28: 6, 8: 19}","[8, 28, 57]",819286579,La9Ni6O19
CsTiNiOF5,mp-41473,3.1081,-0.06196089,0.0,"{55: 1, 22: 1, 28: 1, 8: 1, 9: 5}","[8, 9, 22, 28, 55]",8195221281551,Cs1Ti1Ni1O1F5
Ni3OF5,mp-763299,0.3336,0.76922802,0.06627739203703875,"{28: 3, 8: 1, 9: 5}","[8, 9, 28]",8195283,Ni3O1F5
KVNiOF6,mp-1223516,0.1426,-0.25962436,0.3568814075000004,"{19: 1, 23: 1, 28: 1, 8: 1, 9: 6}","[8, 9, 19, 23, 28]",8196191231281,K1V1Ni1O1F6
KCrNiOF6,mp-1223657,0.4728000000000001,-1.87468345,0.237152866499998,"{19: 1, 24: 1, 28: 1, 8: 1, 9: 6}","[8, 9, 19, 24, 28]",8196191241281,K1Cr1Ni1O1F6
Ni2Hg2OF6,mp-504704,0.996,0.21048172,0.0,"{28: 2, 80: 2, 8: 1, 9: 6}","[8, 9, 28, 80]",8196282802,Ni2Hg2O1F6
Na2Ni(PO5)4,mp-1199950,0.0,-1.1259444,0.6924509866358068,"{11: 2, 28: 1, 15: 4, 8: 20}","[8, 11, 15, 28]",820112154281,Na2Ni1P4O20
Na7(NiO2)10,mp-760203,0.0,3.03503687,0.006805489414414723,"{11: 7, 28: 10, 8: 20}","[8, 11, 28]",8201172810,Na7Ni10O20
Na9Ni11O20,mp-760849,0.0,3.89891386,0.015626280562503148,"{11: 9, 28: 11, 8: 20}","[8, 11, 28]",8201192811,Na9Ni11O20
Ti4Ni(PO5)4,mp-766392,0.0,1.34783066,0.06384213028736774,"{22: 4, 28: 1, 15: 4, 8: 20}","[8, 15, 22, 28]",820154224281,Ti4Ni1P4O20
Mn(Ni9O10)2,mp-758680,1.3258999999999999,5.46062252,0.02806254756407789,"{25: 1, 28: 18, 8: 20}","[8, 25, 28]",8202512818,Mn1Ni18O20
Fe13(NiO10)2,mp-757258,0.0,4.02828007,0.0685092608571427,"{26: 13, 28: 2, 8: 20}","[8, 26, 28]",8202613282,Fe13Ni2O20
Ni(Bi3O5)4,mp-1209935,0.0,4.26576564,0.06292179606061499,"{28: 1, 83: 12, 8: 20}","[8, 28, 83]",8202818312,Ni1Bi12O20
Ni3(BiO2)10,mp-675540,0.0,3.95144156,0.16794612772727735,"{28: 3, 83: 10, 8: 20}","[8, 28, 83]",8202838310,Ni3Bi10O20
Sr5La5Cu(NiO5)4,mp-690554,0.0,4.94416172,0.011994663249991433,"{38: 5, 57: 5, 29: 1, 28: 4, 8: 20}","[8, 28, 29, 38, 57]",820284291385575,Sr5La5Cu1Ni4O20
Sr5Nd5Cu(NiO5)4,mp-694919,0.0,3.31975904,0.16512611310716796,"{38: 5, 60: 5, 29: 1, 28: 4, 8: 20}","[8, 28, 29, 38, 60]",820284291385605,Sr5Nd5Cu1Ni4O20
La7SmNi6(AgO10)2,mp-1099871,0.0,5.81725396,0.2854870701215262,"{57: 7, 62: 1, 28: 6, 47: 2, 8: 20}","[8, 28, 47, 57, 62]",820286472577621,La7Sm1Ni6Ag2O20
La4Sm4Ni7AgO20,mp-1076765,0.0,5.56204086,0.14346803111110784,"{57: 4, 62: 4, 28: 7, 47: 1, 8: 20}","[8, 28, 47, 57, 62]",820287471574624,La4Sm4Ni7Ag1O20
La5Sm3Ni7AgO20,mp-1076656,0.0,5.87115691,0.13889298133680583,"{57: 5, 62: 3, 28: 7, 47: 1, 8: 20}","[8, 28, 47, 57, 62]",820287471575623,La5Sm3Ni7Ag1O20
NaMgNiO2,mp-2226994,0.0,4.50390042,0.3813150694999985,"{11: 1, 12: 1, 28: 1, 8: 2}","[8, 11, 12, 28]",82111121281,Na1Mg1Ni1O2
NaNiO2,mp-19149,0.42040000000000033,3.8003646,0.0,"{11: 1, 28: 1, 8: 2}","[8, 11, 28]",82111281,Na1Ni1O2
KNa2NiO2,mp-558824,1.5423999999999998,1.58119673,0.07774222541666909,"{19: 1, 11: 2, 28: 1, 8: 2}","[8, 11, 19, 28]",82112191281,K1Na2Ni1O2
Na2NiO2,mp-778404,2.8401,-0.70056042,0.0410575495000014,"{11: 2, 28: 1, 8: 2}","[8, 11, 28]",82112281,Na2Ni1O2
RbNa2NiO2,mp-546033,0.0,3.11901827,0.2520188437499993,"{37: 1, 11: 2, 28: 1, 8: 2}","[8, 11, 28, 37]",82112281371,Rb1Na2Ni1O2
Na3NiO2,mp-759317,1.1456000000000002,0.95516142,0.07915583583333419,"{11: 3, 28: 1, 8: 2}","[8, 11, 28]",82113281,Na3Ni1O2
Na5NiSO2,mp-18912,0.0,2.55718587,0.20204069111111078,"{11: 5, 28: 1, 16: 1, 8: 2}","[8, 11, 16, 28]",82115161281,Na5Ni1S1O2
MgNiO2,mp-1221953,3.4026000000000005,4.97490352,0.0017110899999970286,"{12: 1, 28: 1, 8: 2}","[8, 12, 28]",82121281,Mg1Ni1O2
MgNiAgO2,mp-2225602,0.0,3.48395204,0.49973597366666667,"{12: 1, 28: 1, 47: 1, 8: 2}","[8, 12, 28, 47]",82121281471,Mg1Ni1Ag1O2
Ba5Er8Ni4O21,mp-1214489,2.4221000000000004,2.88152397,0.0,"{56: 5, 68: 8, 28: 4, 8: 21}","[8, 28, 56, 68]",821284565688,Ba5Er8Ni4O21
Ba5Tm8Ni4O21,mp-1214595,2.3991,2.88709065,0.0,"{56: 5, 69: 8, 28: 4, 8: 21}","[8, 28, 56, 69]",821284565698,Ba5Tm8Ni4O21
Ba5Lu8Ni4O21,mp-1214642,1.4777000000000005,3.42288181,0.1618670315131494,"{56: 5, 71: 8, 28: 4, 8: 21}","[8, 28, 56, 71]",821284565718,Ba5Lu8Ni4O21
Sr9(NiO3)7,mp-759887,1.3374000000000001,2.90919632,0.0002844486486486275,"{38: 9, 28: 7, 8: 21}","[8, 28, 38]",821287389,Sr9Ni7O21
La3Ni4(P2O)2,mp-1210896,0.0,8.330403,0.6068071532847084,"{57: 3, 28: 4, 15: 4, 8: 2}","[8, 15, 28, 57]",82154284573,La3Ni4P4O2
K2CuNi2(SO)2,mp-1232337,0.0,3.14110824,0.6029537952777773,"{19: 2, 29: 1, 28: 2, 16: 2, 8: 2}","[8, 16, 19, 28, 29]",82162192282291,K2Cu1Ni2S2O2
Sr2Cu2Ni(SO)2,mp-505611,0.0,5.11563683,0.17976277263889173,"{38: 2, 29: 2, 28: 1, 16: 2, 8: 2}","[8, 16, 28, 29, 38]",82162281292382,Sr2Cu2Ni1S2O2
Ni(ClO)2,mp-1079447,0.0,0.2554249,0.397350711125001,"{28: 1, 17: 2, 8: 2}","[8, 17, 28]",82172281,Ni1Cl2O2
K2NiO2,mp-19252,0.577,0.74960464,0.0,"{19: 2, 28: 1, 8: 2}","[8, 19, 28]",82192281,K2Ni1O2
K3NiO2,mp-505153,1.632,1.21981297,0.035289159583332896,"{19: 3, 28: 1, 8: 2}","[8, 19, 28]",82193281,K3Ni1O2
CaNiO2,mp-1046307,2.0855,3.37313197,0.15984391687500032,"{20: 1, 28: 1, 8: 2}","[8, 20, 28]",82201281,Ca1Ni1O2
NaNi4(P2O11)2,mp-1222793,0.0,-0.3415899,0.5019582044758035,"{11: 1, 28: 4, 15: 4, 8: 22}","[8, 11, 15, 28]",822111154284,Na1Ni4P4O22
Na4Ni5(P3O11)2,mp-554790,3.6644000000000005,5.84286342,0.0,"{11: 4, 28: 5, 15: 6, 8: 22}","[8, 11, 15, 28]",822114156285,Na4Ni5P6O22
U2Ni(PO11)2,mp-1201255,0.0,-1.13802311,0.7366072887962956,"{92: 2, 28: 1, 15: 2, 8: 22}","[8, 15, 28, 92]",822152281922,U2Ni1P2O22
Ni5(P3O11)2,mp-26314,0.0,1.18493782,0.08423000856060625,"{28: 5, 15: 6, 8: 22}","[8, 15, 28]",822156285,Ni5P6O22
KV5NiO22,mp-1204947,0.05020000000000002,-1.1864199,0.42509427672413747,"{19: 1, 23: 5, 28: 1, 8: 22}","[8, 19, 23, 28]",822191235281,K1V5Ni1O22
Sr2V11NiO22,mp-1218689,0.7712000000000003,4.88484298,0.04004796197917493,"{38: 2, 23: 11, 28: 1, 8: 22}","[8, 23, 28, 38]",8222311281382,Sr2V11Ni1O22
Ba2Fe8Ni3(SbO11)2,mp-1228686,0.6247999999999996,4.50763708,0.06396995570944952,"{56: 2, 26: 8, 28: 3, 51: 2, 8: 22}","[8, 26, 28, 51, 56]",822268283512562,Ba2Fe8Ni3Sb2O22
Pr10Ni5O22,mp-1173634,0.4491000000000005,5.57331798,0.433951057871627,"{59: 10, 28: 5, 8: 22}","[8, 28, 59]",8222855910,Pr10Ni5O22
MnNiO2,mp-752562,0.0,6.02979698,0.09590608000000067,"{25: 1, 28: 1, 8: 2}","[8, 25, 28]",82251281,Mn1Ni1O2
CoNiO2,mp-1238777,0.0,5.86248727,0.2502311756250011,"{27: 1, 28: 1, 8: 2}","[8, 27, 28]",82271281,Co1Ni1O2
NiO2,mp-35925,1.8142,-1.50536455,0.12753631888888783,"{28: 1, 8: 2}","[8, 28]",82281,Ni1O2
CuNiO2,mp-1178369,0.0,5.4741692,0.06671483374999987,"{29: 1, 28: 1, 8: 2}","[8, 28, 29]",82281291,Cu1Ni1O2
ZnNiO2,mp-1215685,0.0,5.20860523,0.0833115362500001,"{30: 1, 28: 1, 8: 2}","[8, 28, 30]",82281301,Zn1Ni1O2
RbNiO2,mp-1232303,0.4196,1.01486187,0.21447066625000044,"{37: 1, 28: 1, 8: 2}","[8, 28, 37]",82281371,Rb1Ni1O2
Rb2NiO2,mp-19167,2.8076,-0.06701135,0.0,"{37: 2, 28: 1, 8: 2}","[8, 28, 37]",82281372,Rb2Ni1O2
Rb3NiO2,mp-1103360,1.3115,1.35898934,0.026020371249999563,"{37: 3, 28: 1, 8: 2}","[8, 28, 37]",82281373,Rb3Ni1O2
SrNiO2,mp-19190,0.0,2.68347081,0.12897453250000002,"{38: 1, 28: 1, 8: 2}","[8, 28, 38]",82281381,Sr1Ni1O2
NiAgO2,mp-19284,0.0,2.97876164,0.030738713750000812,"{28: 1, 47: 1, 8: 2}","[8, 28, 47]",82281471,Ni1Ag1O2
Ni(AgO)2,mp-19405,0.0,3.45611301,0.0664712560000007,"{28: 1, 47: 2, 8: 2}","[8, 28, 47]",82281472,Ni1Ag2O2
CdNiO2,mp-1226706,0.0,3.1975459,0.180487523750001,"{48: 1, 28: 1, 8: 2}","[8, 28, 48]",82281481,Cd1Ni1O2
CsNiO2,mp-1232310,0.41369999999999973,1.8424254,0.1866075924999997,"{55: 1, 28: 1, 8: 2}","[8, 28, 55]",82281551,Cs1Ni1O2
Cs2NiO2,mp-755100,2.6343,0.95445764,0.0,"{55: 2, 28: 1, 8: 2}","[8, 28, 55]",82281552,Cs2Ni1O2
BaNiO2,mp-18943,2.0426,2.73956975,0.11702138124999983,"{56: 1, 28: 1, 8: 2}","[8, 28, 56]",82281561,Ba1Ni1O2
LaNiO2,mp-20392,0.0,8.65200144,0.36207892593749946,"{57: 1, 28: 1, 8: 2}","[8, 28, 57]",82281571,La1Ni1O2
NdNiO2,mp-31063,0.0,5.68453935,0.38370497656249736,"{60: 1, 28: 1, 8: 2}","[8, 28, 60]",82281601,Nd1Ni1O2
NiPtO2,mp-1101675,0.0,5.63289277,0.031908653875002635,"{28: 1, 78: 1, 8: 2}","[8, 28, 78]",82281781,Ni1Pt1O2
NiAuO2,mp-997095,0.0,4.66318167,0.0,"{28: 1, 79: 1, 8: 2}","[8, 28, 79]",82281791,Ni1Au1O2
NiHgO2,mp-754490,0.0,3.86546093,0.01503971937500026,"{28: 1, 80: 1, 8: 2}","[8, 28, 80]",82281801,Ni1Hg1O2
NaSr12Ni7O23,mp-1221033,0.8698000000000001,2.13072176,0.06480330267442014,"{11: 1, 38: 12, 28: 7, 8: 23}","[8, 11, 28, 38]",8231112873812,Na1Sr12Ni7O23
V5NiO23,mp-1201984,0.19510000000000005,-1.29421161,0.6384443321120701,"{23: 5, 28: 1, 8: 23}","[8, 23, 28]",823235281,V5Ni1O23
KNaCaSi8Ni5O24,mp-1223575,0.46030000000000015,3.08376057,0.001963115781254743,"{19: 1, 11: 1, 20: 1, 14: 8, 28: 5, 8: 24}","[8, 11, 14, 19, 20, 28]",824111148191201285,K1Na1Ca1Si8Ni5O24
Na13Ni11O24,mp-768107,0.0,3.14593268,0.023823115920139415,"{11: 13, 28: 11, 8: 24}","[8, 11, 28]",82411132811,Na13Ni11O24
Na4Ni(PO4)6,mp-1201128,0.0,-0.18688236,0.3230252843095167,"{11: 4, 28: 1, 15: 6, 8: 24}","[8, 11, 15, 28]",824114156281,Na4Ni1P6O24
Na4Ni7(PO4)6,mp-19470,3.3516999999999997,2.77577113,0.008354526829275066,"{11: 4, 28: 7, 15: 6, 8: 24}","[8, 11, 15, 28]",824114156287,Na4Ni7P6O24
Na7Ni17O24,mp-760117,0.0,4.34894475,0.03694624536458235,"{11: 7, 28: 17, 8: 24}","[8, 11, 28]",8241172817,Na7Ni17O24
Ca4MgSi8(NiO8)3,mp-1227573,4.7986,3.2674955,0.004685872312503392,"{20: 4, 12: 1, 14: 8, 28: 3, 8: 24}","[8, 12, 14, 20, 28]",824121148204283,Ca4Mg1Si8Ni3O24
MgCr2Fe3Ni(PO4)6,mp-2216304,0.5038,2.857027,0.10034209342342137,"{12: 1, 24: 2, 26: 3, 28: 1, 15: 6, 8: 24}","[8, 12, 15, 24, 26, 28]",824121156242263281,Mg1Cr2Fe3Ni1P6O24
MgFe3Ni2Sb(PO4)6,mp-1233991,1.5014000000000003,2.92293884,0.0851390252477282,"{12: 1, 26: 3, 28: 2, 51: 1, 15: 6, 8: 24}","[8, 12, 15, 26, 28, 51]",824121156263282511,Mg1Fe3Ni2Sb1P6O24
MgTi8(NiO3)8,mp-2220227,0.05750000000000011,6.22063795,0.14383442152438874,"{12: 1, 22: 8, 28: 8, 8: 24}","[8, 12, 22, 28]",824121228288,Mg1Ti8Ni8O24
Ca4Mg3Si8NiO24,mp-1227614,4.7374,3.07999556,0.0017329684375013699,"{20: 4, 12: 3, 14: 8, 28: 1, 8: 24}","[8, 12, 14, 20, 28]",824123148204281,Ca4Mg3Si8Ni1O24
Ca4CoSi8(NiO8)3,mp-1227711,3.8886,3.87180511,0.007684386895832063,"{20: 4, 27: 1, 14: 8, 28: 3, 8: 24}","[8, 14, 20, 27, 28]",824148204271283,Ca4Co1Si8Ni3O24
Ca4Co3Si8NiO24,mp-1227707,3.1496000000000004,6.85159403,0.010052342937497905,"{20: 4, 27: 3, 14: 8, 28: 1, 8: 24}","[8, 14, 20, 27, 28]",824148204273281,Ca4Co3Si8Ni1O24
Ba3V2Ni6(PO6)4,mp-1228520,3.1273999999999997,5.41049732,0.004875298205118561,"{56: 3, 23: 2, 28: 6, 15: 4, 8: 24}","[8, 15, 23, 28, 56]",824154232286563,Ba3V2Ni6P4O24
K4Ti3Ni(PO4)6,mp-698691,2.2488,1.54923302,0.013671450624989312,"{19: 4, 22: 3, 28: 1, 15: 6, 8: 24}","[8, 15, 19, 22, 28]",824156194223281,K4Ti3Ni1P6O24
TiCr2Ni3(PO4)6,mp-776057,0.0,1.59233199,0.09019147461804078,"{22: 1, 24: 2, 28: 3, 15: 6, 8: 24}","[8, 15, 22, 24, 28]",824156221242283,Ti1Cr2Ni3P6O24
TiMn2Ni3(PO4)6,mp-776680,0.0,1.20349219,0.08844991754628939,"{22: 1, 25: 2, 28: 3, 15: 6, 8: 24}","[8, 15, 22, 25, 28]",824156221252283,Ti1Mn2Ni3P6O24
TiMn3Ni2(PO4)6,mp-776019,0.04259999999999975,2.44832149,0.04708127733797696,"{22: 1, 25: 3, 28: 2, 15: 6, 8: 24}","[8, 15, 22, 25, 28]",824156221253282,Ti1Mn3Ni2P6O24
TiFe2Ni3(PO4)6,mp-776008,0.007099999999999884,1.52897027,0.09202147208335987,"{22: 1, 26: 2, 28: 3, 15: 6, 8: 24}","[8, 15, 22, 26, 28]",824156221262283,Ti1Fe2Ni3P6O24
TiFe3Ni2(PO4)6,mp-775984,0.0,1.24673907,0.031275008680553995,"{22: 1, 26: 3, 28: 2, 15: 6, 8: 24}","[8, 15, 22, 26, 28]",824156221263282,Ti1Fe3Ni2P6O24
TiNi3Sn2(PO4)6,mp-777082,1.9098000000000002,2.46505028,0.08654517011573759,"{22: 1, 28: 3, 50: 2, 15: 6, 8: 24}","[8, 15, 22, 28, 50]",824156221283502,Ti1Ni3Sn2P6O24
TiNi3Sb2(PO4)6,mp-775992,0.5878000000000001,2.14132949,0.09708180999997218,"{22: 1, 28: 3, 51: 2, 15: 6, 8: 24}","[8, 15, 22, 28, 51]",824156221283512,Ti1Ni3Sb2P6O24
TiNi5(PO4)6,mp-772277,0.0,1.22130132,0.08576887347221618,"{22: 1, 28: 5, 15: 6, 8: 24}","[8, 15, 22, 28]",824156221285,Ti1Ni5P6O24
Ti3VNi2(PO4)6,mp-1101293,0.0,4.2080761,0.028261467361115677,"{22: 3, 23: 1, 28: 2, 15: 6, 8: 24}","[8, 15, 22, 23, 28]",824156223231282,Ti3V1Ni2P6O24
Ti3V2Ni(PO4)6,mp-780859,0.5794999999999999,3.84526181,0.0220444317592694,"{22: 3, 23: 2, 28: 1, 15: 6, 8: 24}","[8, 15, 22, 23, 28]",824156223232281,Ti3V2Ni1P6O24
Ti3CrNi2(PO4)6,mp-777498,0.04949999999999921,4.35682972,0.023555554861111716,"{22: 3, 24: 1, 28: 2, 15: 6, 8: 24}","[8, 15, 22, 24, 28]",824156223241282,Ti3Cr1Ni2P6O24
Ti3Cr2Ni(PO4)6,mp-1101367,0.0,3.59408919,0.05922795842593054,"{22: 3, 24: 2, 28: 1, 15: 6, 8: 24}","[8, 15, 22, 24, 28]",824156223242281,Ti3Cr2Ni1P6O24
Ti3MnNi2(PO4)6,mp-1101299,1.1616999999999997,2.66671074,0.03226724317130625,"{22: 3, 25: 1, 28: 2, 15: 6, 8: 24}","[8, 15, 22, 25, 28]",824156223251282,Ti3Mn1Ni2P6O24
Ti3Mn2Ni(PO4)6,mp-775759,2.0286,1.44661311,0.010499978356488526,"{22: 3, 25: 2, 28: 1, 15: 6, 8: 24}","[8, 15, 22, 25, 28]",824156223252281,Ti3Mn2Ni1P6O24
Ti3FeNi2(PO4)6,mp-778326,0.6998000000000002,3.37337596,0.027154545763881544,"{22: 3, 26: 1, 28: 2, 15: 6, 8: 24}","[8, 15, 22, 26, 28]",824156223261282,Ti3Fe1Ni2P6O24
Ti3Fe2Ni(PO4)6,mp-775987,1.9837000000000002,1.92085759,0.01753458090275828,"{22: 3, 26: 2, 28: 1, 15: 6, 8: 24}","[8, 15, 22, 26, 28]",824156223262281,Ti3Fe2Ni1P6O24
Ti3CoNi2(PO4)6,mp-774435,0.0,3.80566798,0.04521765486111384,"{22: 3, 27: 1, 28: 2, 15: 6, 8: 24}","[8, 15, 22, 27, 28]",824156223271282,Ti3Co1Ni2P6O24
Ti3Co2Ni(PO4)6,mp-849245,0.02210000000000001,2.50136094,0.066227244999995,"{22: 3, 27: 2, 28: 1, 15: 6, 8: 24}","[8, 15, 22, 27, 28]",824156223272281,Ti3Co2Ni1P6O24
Ti3Cu2Ni(PO4)6,mp-777517,0.0,1.614078,0.047690354583323824,"{22: 3, 29: 2, 28: 1, 15: 6, 8: 24}","[8, 15, 22, 28, 29]",824156223281292,Ti3Cu2Ni1P6O24
Ti3NiSn2(PO4)6,mp-777890,2.0712,2.14693416,0.001896006435178954,"{22: 3, 28: 1, 50: 2, 15: 6, 8: 24}","[8, 15, 22, 28, 50]",824156223281502,Ti3Ni1Sn2P6O24
Ti3NiSb2(PO4)6,mp-1101388,0.0,4.69908331,0.0849082508518757,"{22: 3, 28: 1, 51: 2, 15: 6, 8: 24}","[8, 15, 22, 28, 51]",824156223281512,Ti3Ni1Sb2P6O24
Ti3CuNi2(PO4)6,mp-774936,0.0,2.80519809,0.037668506319458395,"{22: 3, 29: 1, 28: 2, 15: 6, 8: 24}","[8, 15, 22, 28, 29]",824156223282291,Ti3Cu1Ni2P6O24
Ti3NbNi2(PO4)6,mp-1101686,0.0,4.50556962,0.10690987555555864,"{22: 3, 41: 1, 28: 2, 15: 6, 8: 24}","[8, 15, 22, 28, 41]",824156223282411,Ti3Nb1Ni2P6O24
Ti5Ni(PO4)6,mp-778504,0.0,4.27271274,0.1108980683796279,"{22: 5, 28: 1, 15: 6, 8: 24}","[8, 15, 22, 28]",824156225281,Ti5Ni1P6O24
VCr2Ni3(PO4)6,mp-780465,0.0,1.68430024,0.08999538722221434,"{23: 1, 24: 2, 28: 3, 15: 6, 8: 24}","[8, 15, 23, 24, 28]",824156231242283,V1Cr2Ni3P6O24
Mn2VNi3(PO4)6,mp-759208,0.0,1.20399808,0.08448449138889291,"{25: 2, 23: 1, 28: 3, 15: 6, 8: 24}","[8, 15, 23, 25, 28]",824156231252283,Mn2V1Ni3P6O24
Mn3VNi2(PO4)6,mp-867954,0.04739999999999989,1.99010231,0.04777657006944391,"{25: 3, 23: 1, 28: 2, 15: 6, 8: 24}","[8, 15, 23, 25, 28]",824156231253282,Mn3V1Ni2P6O24
VFe2Ni3(PO4)6,mp-764497,0.0,1.62803612,0.0956229212499986,"{23: 1, 26: 2, 28: 3, 15: 6, 8: 24}","[8, 15, 23, 26, 28]",824156231262283,V1Fe2Ni3P6O24
VFe3Ni2(PO4)6,mp-758851,1.2288000000000001,1.54946602,0.03105199236108991,"{23: 1, 26: 3, 28: 2, 15: 6, 8: 24}","[8, 15, 23, 26, 28]",824156231263282,V1Fe3Ni2P6O24
VNi3Sn2(PO4)6,mp-775213,1.4981999999999998,2.36136275,0.09855975851853405,"{23: 1, 28: 3, 50: 2, 15: 6, 8: 24}","[8, 15, 23, 28, 50]",824156231283502,V1Ni3Sn2P6O24
VNi3Sb2(PO4)6,mp-757444,0.0027000000000003688,2.07336461,0.09594519517360744,"{23: 1, 28: 3, 51: 2, 15: 6, 8: 24}","[8, 15, 23, 28, 51]",824156231283512,V1Ni3Sb2P6O24
VNi5(PO4)6,mp-768351,0.0,1.30699288,0.0827335256944215,"{23: 1, 28: 5, 15: 6, 8: 24}","[8, 15, 23, 28]",824156231285,V1Ni5P6O24
V2Fe3Ni(PO4)6,mp-1101236,0.0,2.17570031,0.09427647791667493,"{23: 2, 26: 3, 28: 1, 15: 6, 8: 24}","[8, 15, 23, 26, 28]",824156232263281,V2Fe3Ni1P6O24
V3CrNi2(PO4)6,mp-766813,0.12189999999999968,2.83618774,0.00727946597221063,"{23: 3, 24: 1, 28: 2, 15: 6, 8: 24}","[8, 15, 23, 24, 28]",824156233241282,V3Cr1Ni2P6O24
V3Cr2Ni(PO4)6,mp-774829,0.0,3.13290194,0.07922597006942489,"{23: 3, 24: 2, 28: 1, 15: 6, 8: 24}","[8, 15, 23, 24, 28]",824156233242281,V3Cr2Ni1P6O24
MnV3Ni2(PO4)6,mp-757080,0.10460000000000003,2.78922638,0.030254264270835662,"{25: 1, 23: 3, 28: 2, 15: 6, 8: 24}","[8, 15, 23, 25, 28]",824156233251282,Mn1V3Ni2P6O24
Mn2V3Ni(PO4)6,mp-774360,0.8851,1.58922395,0.007802924722223992,"{25: 2, 23: 3, 28: 1, 15: 6, 8: 24}","[8, 15, 23, 25, 28]",824156233252281,Mn2V3Ni1P6O24
V3FeNi2(PO4)6,mp-1101188,0.0,3.16529984,0.021290061180561537,"{23: 3, 26: 1, 28: 2, 15: 6, 8: 24}","[8, 15, 23, 26, 28]",824156233261282,V3Fe1Ni2P6O24
V3Fe2Ni(PO4)6,mp-774828,0.0,3.02933975,0.02836675131946187,"{23: 3, 26: 2, 28: 1, 15: 6, 8: 24}","[8, 15, 23, 26, 28]",824156233262281,V3Fe2Ni1P6O24
V3CoNi2(PO4)6,mp-759445,0.06329999999999991,2.84378426,0.03356191627314953,"{23: 3, 27: 1, 28: 2, 15: 6, 8: 24}","[8, 15, 23, 27, 28]",824156233271282,V3Co1Ni2P6O24
V3Ni(PO4)6,mp-774649,0.0,0.19766094,0.04306268411764691,"{23: 3, 28: 1, 15: 6, 8: 24}","[8, 15, 23, 28]",824156233281,V3Ni1P6O24
V3Cu2Ni(PO4)6,mp-775338,0.0,2.07947293,0.04503678317129811,"{23: 3, 29: 2, 28: 1, 15: 6, 8: 24}","[8, 15, 23, 28, 29]",824156233281292,V3Cu2Ni1P6O24
V3Ni2P6WO24,mp-1101187,1.7489,2.48384779,0.02188934625000094,"{23: 3, 28: 2, 15: 6, 74: 1, 8: 24}","[8, 15, 23, 28, 74]",824156233282741,V3Ni2P6W1O24
V5Ni(PO4)6,mp-1101285,0.3405,2.61045801,0.05789396590278706,"{23: 5, 28: 1, 15: 6, 8: 24}","[8, 15, 23, 28]",824156235281,V5Ni1P6O24
Mn2CrNi3(PO4)6,mp-760233,0.0,1.16732354,0.09307274912036245,"{25: 2, 24: 1, 28: 3, 15: 6, 8: 24}","[8, 15, 24, 25, 28]",824156241252283,Mn2Cr1Ni3P6O24
Mn3CrNi2(PO4)6,mp-758927,0.0,2.2681013,0.030171997800923833,"{25: 3, 24: 1, 28: 2, 15: 6, 8: 24}","[8, 15, 24, 25, 28]",824156241253282,Mn3Cr1Ni2P6O24
CrFe3Ni2(PO4)6,mp-850902,0.0,1.35659274,0.03980358715278509,"{24: 1, 26: 3, 28: 2, 15: 6, 8: 24}","[8, 15, 24, 26, 28]",824156241263282,Cr1Fe3Ni2P6O24
CrNi5(PO4)6,mp-771940,0.0,1.28602734,0.08975548548611378,"{24: 1, 28: 5, 15: 6, 8: 24}","[8, 15, 24, 28]",824156241285,Cr1Ni5P6O24
MnCr2Ni3(PO4)6,mp-777895,0.0,1.58002157,0.1014020176504582,"{25: 1, 24: 2, 28: 3, 15: 6, 8: 24}","[8, 15, 24, 25, 28]",824156242251283,Mn1Cr2Ni3P6O24
Mn3Cr2Ni(PO4)6,mp-776047,0.02090000000000014,2.21528989,0.0809008022338027,"{25: 3, 24: 2, 28: 1, 15: 6, 8: 24}","[8, 15, 24, 25, 28]",824156242253281,Mn3Cr2Ni1P6O24
Cr2Fe3Ni(PO4)6,mp-776011,0.0,1.42576974,0.07288802944444761,"{24: 2, 26: 3, 28: 1, 15: 6, 8: 24}","[8, 15, 24, 26, 28]",824156242263281,Cr2Fe3Ni1P6O24