formula,material_id,band_gap,efermi,energy_above_hull,comp_atoms,sorted_keys_comp_atoms,comp_number,new_formula
Nb5Ni,mp-669699,0.0,5.12045555,0.2134582179166653,"{41: 5, 28: 1}","[28, 41]",281415,Nb5Ni1
Hf2NiMo,mp-1093970,0.0,-2.85269546,3.8869065632291644,"{72: 2, 28: 1, 42: 1}","[28, 42, 72]",281421722,Hf2Ni1Mo1
Hf9NiMo4,mp-1194426,0.0,5.53764841,0.0,"{72: 9, 28: 1, 42: 4}","[28, 42, 72]",281424729,Hf9Ni1Mo4
Ni(Te4Mo3)2,mp-1220151,0.0,6.5012003,0.0009231562222211664,"{28: 1, 52: 8, 42: 6}","[28, 42, 52]",281426528,Ni1Te8Mo6
TcNi,mp-1217408,0.0,8.10684343,0.14294642416666647,"{43: 1, 28: 1}","[28, 43]",281431,Tc1Ni1
Lu2Ga3Ni14,mp-1200461,0.0,6.46382133,0.006223572565787983,"{71: 2, 31: 3, 28: 14}","[28, 31, 71]",2814313712,Lu2Ga3Ni14
Hf2TcNi,mp-1184612,0.0,6.16254005,0.011364907499995525,"{72: 2, 43: 1, 28: 1}","[28, 43, 72]",281431722,Hf2Tc1Ni1
TcNiW,mp-631523,0.0,5.78634092,0.7317725344444419,"{43: 1, 28: 1, 74: 1}","[28, 43, 74]",281431741,Tc1Ni1W1
Tc3Ni,mp-867357,0.0,8.6895804,0.0,"{43: 3, 28: 1}","[28, 43]",281433,Tc3Ni1
NiRu,mp-1219922,0.0,7.94215612,0.15575465500000263,"{28: 1, 44: 1}","[28, 44]",281441,Ni1Ru1
NiSb6Ru,mp-1219954,0.0682999999999998,7.11019058,0.0,"{28: 1, 51: 6, 44: 1}","[28, 44, 51]",281441516,Ni1Sb6Ru1
NdNiRu,mp-1220082,0.0,5.92336262,0.0,"{60: 1, 28: 1, 44: 1}","[28, 44, 60]",281441601,Nd1Ni1Ru1
Pm2NiRu,mp-863717,0.0,4.66375387,0.0,"{61: 2, 28: 1, 44: 1}","[28, 44, 61]",281441612,Pm2Ni1Ru1
Sm2NiRu,mp-1187018,0.0,4.36724869,0.4845567248660707,"{62: 2, 28: 1, 44: 1}","[28, 44, 62]",281441622,Sm2Ni1Ru1
Gd2NiRu,mp-1184370,0.0,4.58186015,0.0,"{64: 2, 28: 1, 44: 1}","[28, 44, 64]",281441642,Gd2Ni1Ru1
Dy2NiRu,mp-864917,0.0,4.72254393,0.0024636642968758338,"{66: 2, 28: 1, 44: 1}","[28, 44, 66]",281441662,Dy2Ni1Ru1
Ho2NiRu,mp-1184689,0.0,4.62332026,0.0,"{67: 2, 28: 1, 44: 1}","[28, 44, 67]",281441672,Ho2Ni1Ru1
Er2NiRu,mp-862615,0.0,4.63367799,0.0,"{68: 2, 28: 1, 44: 1}","[28, 44, 68]",281441682,Er2Ni1Ru1
Tm2NiRu,mp-865367,0.0,4.56031885,0.0,"{69: 2, 28: 1, 44: 1}","[28, 44, 69]",281441692,Tm2Ni1Ru1
Lu2NiRu,mp-865335,0.0,4.64631176,0.0,"{71: 2, 28: 1, 44: 1}","[28, 44, 71]",281441712,Lu2Ni1Ru1
Ce2NiRu3,mp-1226785,0.0,8.82755649,0.0,"{58: 2, 28: 1, 44: 3}","[28, 44, 58]",281443582,Ce2Ni1Ru3
NiRh,mp-1220054,0.0,7.07303019,0.09386531999999903,"{28: 1, 45: 1}","[28, 45]",281451,Ni1Rh1
Pm2NiRh,mp-863714,0.0,4.54791371,0.0,"{61: 2, 28: 1, 45: 1}","[28, 45, 61]",281451612,Pm2Ni1Rh1
Hf2NiRh,mp-1095886,0.0,-2.86850208,3.5208345325000003,"{72: 2, 28: 1, 45: 1}","[28, 45, 72]",281451722,Hf2Ni1Rh1
Hf4NiRh,mp-1224677,0.0,5.75449357,0.002748419166664462,"{72: 4, 28: 1, 45: 1}","[28, 45, 72]",281451724,Hf4Ni1Rh1
NiBi6Rh,mp-1220131,0.0,6.35721937,0.010188662721357211,"{28: 1, 83: 6, 45: 1}","[28, 45, 83]",281451836,Ni1Bi6Rh1
NiSnRh2,mp-11519,0.0,8.36733945,0.020375088749998937,"{28: 1, 50: 1, 45: 2}","[28, 45, 50]",281452501,Ni1Sn1Rh2
NiPd,mp-1220057,0.0,5.59732998,0.04264195000000015,"{28: 1, 46: 1}","[28, 46]",281461,Ni1Pd1
NiTePd,mp-569511,0.0,8.08581785,0.011888061666663674,"{28: 1, 52: 1, 46: 1}","[28, 46, 52]",281461521,Ni1Te1Pd1
Pm2NiPd,mp-1186481,0.0,4.33421985,0.0,"{61: 2, 28: 1, 46: 1}","[28, 46, 61]",281461612,Pm2Ni1Pd1
Ni(TePd)2,mp-12463,0.0,7.55205673,0.0,"{28: 1, 52: 2, 46: 2}","[28, 46, 52]",281462522,Ni1Te2Pd2
Dy3NiPd2,mp-1225399,0.0,4.35217715,0.0,"{66: 3, 28: 1, 46: 2}","[28, 46, 66]",281462663,Dy3Ni1Pd2
NiPd3,mp-973983,0.0,5.2401661,0.06770055249999984,"{28: 1, 46: 3}","[28, 46]",281463,Ni1Pd3
NiAgTe2,mp-976804,0.0,5.64674045,0.11126073083333665,"{28: 1, 47: 1, 52: 2}","[28, 47, 52]",281471522,Ni1Ag1Te2
NiAg3,mp-976762,0.0,3.59017703,0.18496715750000092,"{28: 1, 47: 3}","[28, 47]",281473,Ni1Ag3
CdNi,mp-985556,0.0,4.6665169,0.006270499166667776,"{48: 1, 28: 1}","[28, 48]",281481,Cd1Ni1
La4CdNi,mp-1211864,0.0,7.36306971,0.0,"{57: 4, 48: 1, 28: 1}","[28, 48, 57]",281481574,La4Cd1Ni1
Ce4CdNi,mp-1214047,0.0,7.06527402,0.061638104166668484,"{58: 4, 48: 1, 28: 1}","[28, 48, 58]",281481584,Ce4Cd1Ni1
Pr4CdNi,mp-1209942,0.017400000000000304,3.82403583,0.0,"{59: 4, 48: 1, 28: 1}","[28, 48, 59]",281481594,Pr4Cd1Ni1
Nd4CdNi,mp-1210076,0.03370000000000006,3.83384438,0.0,"{60: 4, 48: 1, 28: 1}","[28, 48, 60]",281481604,Nd4Cd1Ni1
Sm4CdNi,mp-1208939,0.09850000000000003,3.59600851,0.21977598499999917,"{62: 4, 48: 1, 28: 1}","[28, 48, 62]",281481624,Sm4Cd1Ni1
Tb4CdNi,mp-1208455,0.06040000000000001,3.66354633,0.0,"{65: 4, 48: 1, 28: 1}","[28, 48, 65]",281481654,Tb4Cd1Ni1
Dy4CdNi,mp-1212922,0.036799999999999944,3.6313818,0.0,"{66: 4, 48: 1, 28: 1}","[28, 48, 66]",281481664,Dy4Cd1Ni1
Ho4CdNi,mp-1212299,0.015600000000000058,3.49135521,0.0,"{67: 4, 48: 1, 28: 1}","[28, 48, 67]",281481674,Ho4Cd1Ni1
Er4CdNi,mp-1212924,0.0,3.4359723,0.0,"{68: 4, 48: 1, 28: 1}","[28, 48, 68]",281481684,Er4Cd1Ni1
Tm4CdNi,mp-1207915,0.0,3.41033082,0.0,"{69: 4, 48: 1, 28: 1}","[28, 48, 69]",281481694,Tm4Cd1Ni1
Lu4CdNi,mp-1210662,0.052899999999999725,3.33475703,0.0,"{71: 4, 48: 1, 28: 1}","[28, 48, 71]",281481714,Lu4Cd1Ni1
Cd3Ni,mp-1183624,0.0,3.44411395,0.09107569833333073,"{48: 3, 28: 1}","[28, 48]",281483,Cd3Ni1
Cd5Ni,mp-1229280,0.0,2.84623914,0.05052089243055846,"{48: 5, 28: 1}","[28, 48]",281485,Cd5Ni1
InNi,mp-19876,0.0,7.72437644,0.0,"{49: 1, 28: 1}","[28, 49]",281491,In1Ni1
LaInNi,mp-1078593,0.0,8.4837637,0.0,"{57: 1, 49: 1, 28: 1}","[28, 49, 57]",281491571,La1In1Ni1
CeInNi,mp-21492,0.0,8.56248756,0.0,"{58: 1, 49: 1, 28: 1}","[28, 49, 58]",281491581,Ce1In1Ni1
PrInNi,mp-1079387,0.0,6.24670093,0.0,"{59: 1, 49: 1, 28: 1}","[28, 49, 59]",281491591,Pr1In1Ni1
NdInNi,mp-1078673,0.0,6.26638049,0.0,"{60: 1, 49: 1, 28: 1}","[28, 49, 60]",281491601,Nd1In1Ni1
SmInNi,mp-1078856,0.0,6.09183397,0.0,"{62: 1, 49: 1, 28: 1}","[28, 49, 62]",281491621,Sm1In1Ni1
TbInNi,mp-582293,0.0,6.38376542,0.0,"{65: 1, 49: 1, 28: 1}","[28, 49, 65]",281491651,Tb1In1Ni1
DyInNi,mp-569086,0.0,6.3586722,0.0,"{66: 1, 49: 1, 28: 1}","[28, 49, 66]",281491661,Dy1In1Ni1
HoInNi,mp-31426,0.0,6.32090687,0.0,"{67: 1, 49: 1, 28: 1}","[28, 49, 67]",281491671,Ho1In1Ni1
ErInNi,mp-31427,0.0,6.37045277,0.0,"{68: 1, 49: 1, 28: 1}","[28, 49, 68]",281491681,Er1In1Ni1
TmInNi,mp-1101052,0.0,6.28560299,0.0,"{69: 1, 49: 1, 28: 1}","[28, 49, 69]",281491691,Tm1In1Ni1
LuInNi,mp-1206494,0.0,6.3570078,0.0,"{71: 1, 49: 1, 28: 1}","[28, 49, 71]",281491711,Lu1In1Ni1
TaInNi,mp-961692,0.0,5.92825939,0.9593527880000003,"{73: 1, 49: 1, 28: 1}","[28, 49, 73]",281491731,Ta1In1Ni1
ThInNi,mp-1078804,0.0,8.33779027,0.0,"{90: 1, 49: 1, 28: 1}","[28, 49, 90]",281491901,Th1In1Ni1
PrIn2Ni,mp-1198662,0.0,6.74945524,0.014132983875000171,"{59: 1, 49: 2, 28: 1}","[28, 49, 59]",281492591,Pr1In2Ni1
NdIn2Ni,mp-1211207,0.0,6.78028677,0.014970115499999714,"{60: 1, 49: 2, 28: 1}","[28, 49, 60]",281492601,Nd1In2Ni1
EuIn2Ni,mp-19997,0.0,6.32064506,0.0,"{63: 1, 49: 2, 28: 1}","[28, 49, 63]",281492631,Eu1In2Ni1
TbIn2Ni,mp-672325,0.0,7.2182739,0.0,"{65: 1, 49: 2, 28: 1}","[28, 49, 65]",281492651,Tb1In2Ni1
DyIn2Ni,mp-1079916,0.0,7.22476931,0.0,"{66: 1, 49: 2, 28: 1}","[28, 49, 66]",281492661,Dy1In2Ni1
In3Ni,mp-1184929,0.0,8.33216398,0.33448642916666316,"{49: 3, 28: 1}","[28, 49]",281493,In3Ni1
Pr2In3Ni,mp-1220025,0.0,5.94706225,0.06722533541666476,"{59: 2, 49: 3, 28: 1}","[28, 49, 59]",281493592,Pr2In3Ni1
Nd2In3Ni,mp-1220448,0.0,6.0071326,0.06743782124999687,"{60: 2, 49: 3, 28: 1}","[28, 49, 60]",281493602,Nd2In3Ni1
Sm2In3Ni,mp-1219354,0.0,6.01539647,0.3530893205952417,"{62: 2, 49: 3, 28: 1}","[28, 49, 62]",281493622,Sm2In3Ni1
Eu2In3Ni,mp-1225919,0.0,5.19906524,0.0584442689444451,"{63: 2, 49: 3, 28: 1}","[28, 49, 63]",281493632,Eu2In3Ni1
LaIn4Ni,mp-20303,0.0,8.44302282,0.0,"{57: 1, 49: 4, 28: 1}","[28, 49, 57]",281494571,La1In4Ni1
CeIn4Ni,mp-1102039,0.0,8.42814322,0.010248429999999864,"{58: 1, 49: 4, 28: 1}","[28, 49, 58]",281494581,Ce1In4Ni1
PrIn4Ni,mp-1102576,0.0,7.63925404,0.006321190000003085,"{59: 1, 49: 4, 28: 1}","[28, 49, 59]",281494591,Pr1In4Ni1
NdIn4Ni,mp-1103113,0.0,7.65897018,0.011337770833336425,"{60: 1, 49: 4, 28: 1}","[28, 49, 60]",281494601,Nd1In4Ni1
EuIn4Ni,mp-1103002,0.0,7.00705977,0.0,"{63: 1, 49: 4, 28: 1}","[28, 49, 63]",281494631,Eu1In4Ni1
NiSn,mp-680646,0.0,9.59306804,0.00790212258928591,"{28: 1, 50: 1}","[28, 50]",281501,Ni1Sn1
LaNiSn,mp-12613,0.0,8.79569518,0.0,"{57: 1, 28: 1, 50: 1}","[28, 50, 57]",281501571,La1Ni1Sn1
CeNiSn,mp-21119,0.0,8.59133784,0.0,"{58: 1, 28: 1, 50: 1}","[28, 50, 58]",281501581,Ce1Ni1Sn1
PrNiSn,mp-22164,0.0,6.45086084,0.0,"{59: 1, 28: 1, 50: 1}","[28, 50, 59]",281501591,Pr1Ni1Sn1
NdNiSn,mp-20490,0.0,6.37222767,0.0,"{60: 1, 28: 1, 50: 1}","[28, 50, 60]",281501601,Nd1Ni1Sn1
SmNiSn,mp-1104463,0.0,6.3486545,0.49004276404761793,"{62: 1, 28: 1, 50: 1}","[28, 50, 62]",281501621,Sm1Ni1Sn1
TbNiSn,mp-22299,0.0,6.67991399,0.0,"{65: 1, 28: 1, 50: 1}","[28, 50, 65]",281501651,Tb1Ni1Sn1
DyNiSn,mp-510152,0.0,6.66545358,0.0,"{66: 1, 28: 1, 50: 1}","[28, 50, 66]",281501661,Dy1Ni1Sn1
HoNiSn,mp-31176,0.0,6.79657481,0.0,"{67: 1, 28: 1, 50: 1}","[28, 50, 67]",281501671,Ho1Ni1Sn1
ErNiSn,mp-622620,0.0,6.67348928,0.0,"{68: 1, 28: 1, 50: 1}","[28, 50, 68]",281501681,Er1Ni1Sn1
TmNiSn,mp-1102179,0.0,6.81445094,0.0,"{69: 1, 28: 1, 50: 1}","[28, 50, 69]",281501691,Tm1Ni1Sn1
LuNiSn,mp-977588,0.0,6.81398192,0.0,"{71: 1, 28: 1, 50: 1}","[28, 50, 71]",281501711,Lu1Ni1Sn1
HfNiSn,mp-924128,0.3868999999999998,7.18349144,0.0,"{72: 1, 28: 1, 50: 1}","[28, 50, 72]",281501721,Hf1Ni1Sn1
ThNiSn,mp-22786,0.26750000000000007,7.38321914,0.0,"{90: 1, 28: 1, 50: 1}","[28, 50, 90]",281501901,Th1Ni1Sn1
UNiSn,mp-1217516,0.0,10.55785062,0.0,"{92: 1, 28: 1, 50: 1}","[28, 50, 92]",281501921,U1Ni1Sn1
NpNiSn,mp-600232,0.0,10.89834027,0.054787412951387005,"{93: 1, 28: 1, 50: 1}","[28, 50, 93]",281501931,Np1Ni1Sn1
LaNiSn2,mp-1084757,0.0,8.73040129,0.0,"{57: 1, 28: 1, 50: 2}","[28, 50, 57]",281502571,La1Ni1Sn2
CeNiSn2,mp-1025558,0.0,8.56533294,0.011627063250001513,"{58: 1, 28: 1, 50: 2}","[28, 50, 58]",281502581,Ce1Ni1Sn2
Ce2NiSn2Pt,mp-1227353,0.0,8.5409975,0.004856434166666368,"{58: 2, 28: 1, 50: 2, 78: 1}","[28, 50, 58, 78]",281502582781,Ce2Ni1Sn2Pt1
TbNiSn2,mp-1198844,0.0,7.14319704,0.0,"{65: 1, 28: 1, 50: 2}","[28, 50, 65]",281502651,Tb1Ni1Sn2
DyNiSn2,mp-580525,0.0,7.18940306,0.0,"{66: 1, 28: 1, 50: 2}","[28, 50, 66]",281502661,Dy1Ni1Sn2
HoNiSn2,mp-1199966,0.0,7.195428,0.0,"{67: 1, 28: 1, 50: 2}","[28, 50, 67]",281502671,Ho1Ni1Sn2
ErNiSn2,mp-1196661,0.0,7.31406502,0.0,"{68: 1, 28: 1, 50: 2}","[28, 50, 68]",281502681,Er1Ni1Sn2
TmNiSn2,mp-1197522,0.0,7.31413358,0.0,"{69: 1, 28: 1, 50: 2}","[28, 50, 69]",281502691,Tm1Ni1Sn2
LuNiSn2,mp-7736,0.0,7.41575452,0.0,"{71: 1, 28: 1, 50: 2}","[28, 50, 71]",281502711,Lu1Ni1Sn2
NiSn2Au,mp-1206638,0.0,7.88640649,0.0,"{28: 1, 50: 2, 79: 1}","[28, 50, 79]",281502791,Ni1Sn2Au1
BaNiSn3,mp-11879,0.0,6.7267524,0.0,"{56: 1, 28: 1, 50: 3}","[28, 50, 56]",281503561,Ba1Ni1Sn3
Hf5NiSn3,mp-1212523,0.0,7.06101119,0.019575682333332622,"{72: 5, 28: 1, 50: 3}","[28, 50, 72]",281503725,Hf5Ni1Sn3
La2NiSn4,mp-1223308,0.0,8.37284424,0.009478329404773334,"{57: 2, 28: 1, 50: 4}","[28, 50, 57]",281504572,La2Ni1Sn4
Ce2NiSn4,mp-1227379,0.0,8.22812897,0.010009558214283842,"{58: 2, 28: 1, 50: 4}","[28, 50, 58]",281504582,Ce2Ni1Sn4
Sm2NiSn4,mp-645182,0.0,6.9118952,0.15430204438775785,"{62: 2, 28: 1, 50: 4}","[28, 50, 62]",281504622,Sm2Ni1Sn4
TbNiSn4,mp-1208362,0.0,7.66779814,0.03623978305555564,"{65: 1, 28: 1, 50: 4}","[28, 50, 65]",281504651,Tb1Ni1Sn4
DyNiSn4,mp-1212896,0.0,7.67080988,0.044642046333330576,"{66: 1, 28: 1, 50: 4}","[28, 50, 66]",281504661,Dy1Ni1Sn4
HoNiSn4,mp-1212090,0.0,7.65025344,0.03712386708333426,"{67: 1, 28: 1, 50: 4}","[28, 50, 67]",281504671,Ho1Ni1Sn4
ErNiSn4,mp-1212981,0.0,7.72261327,0.03969216972222256,"{68: 1, 28: 1, 50: 4}","[28, 50, 68]",281504681,Er1Ni1Sn4
TmNiSn4,mp-1207718,0.0,7.82352664,0.04423086069444526,"{69: 1, 28: 1, 50: 4}","[28, 50, 69]",281504691,Tm1Ni1Sn4
LuNiSn4,mp-31433,0.0,7.86018786,0.04372865777777868,"{71: 1, 28: 1, 50: 4}","[28, 50, 71]",281504711,Lu1Ni1Sn4
Dy2NiSn6,mp-1079605,0.0,7.44997975,0.007366918444444259,"{66: 2, 28: 1, 50: 6}","[28, 50, 66]",281506662,Dy2Ni1Sn6
Er2NiSn6,mp-1079596,0.0,7.5218683,0.0001910846296304669,"{68: 2, 28: 1, 50: 6}","[28, 50, 68]",281506682,Er2Ni1Sn6
Tm2NiSn6,mp-1079270,0.0,7.52878842,0.00132819324073985,"{69: 2, 28: 1, 50: 6}","[28, 50, 69]",281506692,Tm2Ni1Sn6
Lu2NiSn6,mp-31136,0.0,7.53975142,0.00475705796296122,"{71: 2, 28: 1, 50: 6}","[28, 50, 71]",281506712,Lu2Ni1Sn6
Nd3NiSn7,mp-1220380,0.0,7.02311151,0.0,"{60: 3, 28: 1, 50: 7}","[28, 50, 60]",281507603,Nd3Ni1Sn7
Dy4NiSn8,mp-1225917,0.0,6.91865323,0.02399484782051431,"{66: 4, 28: 1, 50: 8}","[28, 50, 66]",281508664,Dy4Ni1Sn8
Ho4NiSn8,mp-1224552,0.0,6.89687094,0.02909936673077418,"{67: 4, 28: 1, 50: 8}","[28, 50, 67]",281508674,Ho4Ni1Sn8
Er4NiSn8,mp-1225872,0.0,6.89651898,0.03429833602562837,"{68: 4, 28: 1, 50: 8}","[28, 50, 68]",281508684,Er4Ni1Sn8
NiSb,mp-810,0.0,9.5047695,0.0,"{28: 1, 51: 1}","[28, 51]",281511,Ni1Sb1
LaNiSb,mp-9235,0.0,8.57473915,0.0,"{57: 1, 28: 1, 51: 1}","[28, 51, 57]",281511571,La1Ni1Sb1
CeNiSb,mp-1226516,0.0,8.37773854,0.0,"{58: 1, 28: 1, 51: 1}","[28, 51, 58]",281511581,Ce1Ni1Sb1
PrNiSb,mp-1024955,0.0,6.53534123,0.0,"{59: 1, 28: 1, 51: 1}","[28, 51, 59]",281511591,Pr1Ni1Sb1
NdNiSb,mp-1025087,0.0,6.5387754,0.0,"{60: 1, 28: 1, 51: 1}","[28, 51, 60]",281511601,Nd1Ni1Sb1
SmNiSb,mp-1206264,0.0,6.43246807,0.03519468833333761,"{62: 1, 28: 1, 51: 1}","[28, 51, 62]",281511621,Sm1Ni1Sb1
GdNiSb,mp-569197,0.0,5.62423298,0.0,"{64: 1, 28: 1, 51: 1}","[28, 51, 64]",281511641,Gd1Ni1Sb1
TbNiSb,mp-3716,0.3309999999999995,6.57062342,0.0,"{65: 1, 28: 1, 51: 1}","[28, 51, 65]",281511651,Tb1Ni1Sb1
DyNiSb,mp-4510,0.31230000000000047,6.56310384,0.0,"{66: 1, 28: 1, 51: 1}","[28, 51, 66]",281511661,Dy1Ni1Sb1
HoNiSb,mp-4174,0.2919999999999998,6.53564665,0.0,"{67: 1, 28: 1, 51: 1}","[28, 51, 67]",281511671,Ho1Ni1Sb1
ErNiSb,mp-21272,0.27390000000000025,6.64537391,0.0,"{68: 1, 28: 1, 51: 1}","[28, 51, 68]",281511681,Er1Ni1Sb1
TmNiSb,mp-4025,0.2551999999999994,6.59049888,0.0,"{69: 1, 28: 1, 51: 1}","[28, 51, 69]",281511691,Tm1Ni1Sb1
LuNiSb,mp-20185,0.2145999999999999,6.76159322,0.0,"{71: 1, 28: 1, 51: 1}","[28, 51, 71]",281511711,Lu1Ni1Sb1
HfNiSb,mp-1212231,0.0,8.65616634,0.0515097887499989,"{72: 1, 28: 1, 51: 1}","[28, 51, 72]",281511721,Hf1Ni1Sb1
NiSb2,mp-19895,0.0,8.34130775,0.0,"{28: 1, 51: 2}","[28, 51]",281512,Ni1Sb2
LaNiSb2,mp-1079572,0.0,8.31732161,0.0,"{57: 1, 28: 1, 51: 2}","[28, 51, 57]",281512571,La1Ni1Sb2
CeNiSb2,mp-22539,0.0,8.53240146,0.0,"{58: 1, 28: 1, 51: 2}","[28, 51, 58]",281512581,Ce1Ni1Sb2
PrNiSb2,mp-1080568,0.0,6.94373177,0.0,"{59: 1, 28: 1, 51: 2}","[28, 51, 59]",281512591,Pr1Ni1Sb2
Pr5NiSb2,mp-1210359,0.0,5.0561411,0.010445135104165892,"{59: 5, 28: 1, 51: 2}","[28, 51, 59]",281512595,Pr5Ni1Sb2
NdNiSb2,mp-1078507,0.0,6.95483427,0.004881264999999857,"{60: 1, 28: 1, 51: 2}","[28, 51, 60]",281512601,Nd1Ni1Sb2
SmNiSb2,mp-1079250,0.0,7.04053864,0.04890439624999843,"{62: 1, 28: 1, 51: 2}","[28, 51, 62]",281512621,Sm1Ni1Sb2
TbNiSb2,mp-1079028,0.0,7.38652084,0.017003303750000143,"{65: 1, 28: 1, 51: 2}","[28, 51, 65]",281512651,Tb1Ni1Sb2
DyNiSb2,mp-1079636,0.0,7.42864194,0.021572154166666913,"{66: 1, 28: 1, 51: 2}","[28, 51, 66]",281512661,Dy1Ni1Sb2
HoNiSb2,mp-1092222,0.0,7.31856111,0.023476692499999174,"{67: 1, 28: 1, 51: 2}","[28, 51, 67]",281512671,Ho1Ni1Sb2
Ho5NiSb2,mp-640383,0.0,5.06439286,0.0,"{67: 5, 28: 1, 51: 2}","[28, 51, 67]",281512675,Ho5Ni1Sb2
Hf6NiSb2,mp-15297,0.0,6.79038414,0.0,"{72: 6, 28: 1, 51: 2}","[28, 51, 72]",281512726,Hf6Ni1Sb2
UNiSb2,mp-1080551,0.0,10.08915504,0.03158106850000486,"{92: 1, 28: 1, 51: 2}","[28, 51, 92]",281512921,U1Ni1Sb2
NiSb3,mp-1106023,0.0,7.40043538,0.01561135500000077,"{28: 1, 51: 3}","[28, 51]",281513,Ni1Sb3
LaNiSb3,mp-569538,0.0,8.31817635,0.0,"{57: 1, 28: 1, 51: 3}","[28, 51, 57]",281513571,La1Ni1Sb3
CeNiSb3,mp-568237,0.0,8.45456096,0.0,"{58: 1, 28: 1, 51: 3}","[28, 51, 58]",281513581,Ce1Ni1Sb3
PrNiSb3,mp-570394,0.0,7.27922861,0.0,"{59: 1, 28: 1, 51: 3}","[28, 51, 59]",281513591,Pr1Ni1Sb3
NdNiSb3,mp-571167,0.0,7.33687847,0.0,"{60: 1, 28: 1, 51: 3}","[28, 51, 60]",281513601,Nd1Ni1Sb3
SmNiSb3,mp-568805,0.0,7.38111995,0.012778112999999536,"{62: 1, 28: 1, 51: 3}","[28, 51, 62]",281513621,Sm1Ni1Sb3
Hf5NiSb3,mp-1188693,0.0,7.74748202,0.0036473174999986924,"{72: 5, 28: 1, 51: 3}","[28, 51, 72]",281513725,Hf5Ni1Sb3
Tb2NiSb4,mp-1217712,0.0,6.63465741,0.0,"{65: 2, 28: 1, 51: 4}","[28, 51, 65]",281514652,Tb2Ni1Sb4
Dy2NiSb4,mp-1225313,0.0,6.71122398,0.0,"{66: 2, 28: 1, 51: 4}","[28, 51, 66]",281514662,Dy2Ni1Sb4
Ho2NiSb4,mp-1223952,0.0,6.80185793,0.00013317142856905662,"{67: 2, 28: 1, 51: 4}","[28, 51, 67]",281514672,Ho2Ni1Sb4
U2NiSb4,mp-1216654,0.0,9.53381212,0.0,"{92: 2, 28: 1, 51: 4}","[28, 51, 92]",281514922,U2Ni1Sb4
Er10NiSb5,mp-1225477,0.0,5.23682697,0.004734112578126393,"{68: 10, 28: 1, 51: 5}","[28, 51, 68]",2815156810,Er10Ni1Sb5
Hf10NiSb5,mp-1224579,0.0,7.19988542,0.011411441093745367,"{72: 10, 28: 1, 51: 5}","[28, 51, 72]",2815157210,Hf10Ni1Sb5
Hf3NiSb7,mp-1195404,0.0,8.10825812,0.0,"{72: 3, 28: 1, 51: 7}","[28, 51, 72]",281517723,Hf3Ni1Sb7
NiTe,mp-10264,0.0,7.03435205,0.0,"{28: 1, 52: 1}","[28, 52]",281521,Ni1Te1
NiTe2,mp-2578,0.0,7.81585839,0.0,"{28: 1, 52: 2}","[28, 52]",281522,Ni1Te2
TaNiTe2,mp-19810,0.0,6.55231862,0.0,"{73: 1, 28: 1, 52: 2}","[28, 52, 73]",281522731,Ta1Ni1Te2
Ta4NiTe4,mp-1197091,0.0,5.12278567,0.0,"{73: 4, 28: 1, 52: 4}","[28, 52, 73]",281524734,Ta4Ni1Te4
TaNiTe5,mp-8998,0.0,6.22830881,0.0,"{73: 1, 28: 1, 52: 5}","[28, 52, 73]",281525731,Ta1Ni1Te5
GaCu4Ni15,mp-1224944,0.0,7.47057244,0.030587893000001642,"{31: 1, 29: 4, 28: 15}","[28, 29, 31]",2815294311,Ga1Cu4Ni15
NiI,mp-973936,0.0,5.87763512,0.23212941999999837,"{28: 1, 53: 1}","[28, 53]",281531,Ni1I1
Er6NiI10,mp-1188388,0.6135000000000002,4.04040921,0.0,"{68: 6, 28: 1, 53: 10}","[28, 53, 68]",2815310686,Er6Ni1I10
Tb7NiI12,mp-1106228,0.0,4.48944571,0.0,"{65: 7, 28: 1, 53: 12}","[28, 53, 65]",2815312657,Tb7Ni1I12
NiI2,mp-27638,0.0,4.42185907,0.0,"{28: 1, 53: 2}","[28, 53]",281532,Ni1I2
La4Zr8Ni15As16,mp-1223533,0.0,7.38915751,0.0,"{57: 4, 40: 8, 28: 15, 33: 16}","[28, 33, 40, 57]",28153316408574,La4Zr8Ni15As16
Pr4NiI5,mp-618999,0.0,4.46353486,0.0,"{59: 4, 28: 1, 53: 5}","[28, 53, 59]",281535594,Pr4Ni1I5
YZr2Ni15,mp-1216007,0.0,6.64681784,0.04007497888888789,"{39: 1, 40: 2, 28: 15}","[28, 39, 40]",2815391402,Y1Zr2Ni15
La2In11Ni15,mp-1226684,0.0,8.83534073,0.031130784515306154,"{57: 2, 49: 11, 28: 15}","[28, 49, 57]",28154911572,La2In11Ni15
Cs3Ni,mp-985605,0.0,1.60618765,0.7009771015517252,"{55: 3, 28: 1}","[28, 55]",281553,Cs3Ni1
LaNi,mp-1064719,0.0,8.86719878,0.0,"{57: 1, 28: 1}","[28, 57]",281571,La1Ni1
LaCeNiPt,mp-1223014,0.0,7.84882532,0.03692658125000037,"{57: 1, 58: 1, 28: 1, 78: 1}","[28, 57, 58, 78]",281571581781,La1Ce1Ni1Pt1
La2NiIr,mp-1093985,0.0,-2.10180969,2.212379143125,"{57: 2, 28: 1, 77: 1}","[28, 57, 77]",281572771,La2Ni1Ir1
La2NiPt,mp-1223202,0.0,8.03152718,0.003918211249999359,"{57: 2, 28: 1, 78: 1}","[28, 57, 78]",281572781,La2Ni1Pt1
La3Ni,mp-1189497,0.0,8.05315522,0.0036061577083312812,"{57: 3, 28: 1}","[28, 57]",281573,La3Ni1
La4Ni,mp-1213461,0.0,6.82549133,0.29581252266666613,"{57: 4, 28: 1}","[28, 57]",281574,La4Ni1
La5NiPb3,mp-542804,0.0,7.45738809,0.018664484444438578,"{57: 5, 28: 1, 82: 3}","[28, 57, 82]",281575823,La5Ni1Pb3
CeNi,mp-21188,0.0,8.05305856,0.0,"{58: 1, 28: 1}","[28, 58]",281581,Ce1Ni1
CeNiPt,mp-1103296,0.0,7.865254,0.09573395766667048,"{58: 1, 28: 1, 78: 1}","[28, 58, 78]",281581781,Ce1Ni1Pt1
Ce2NiPt,mp-1226780,0.0,7.87293443,0.006686189999999925,"{58: 2, 28: 1, 78: 1}","[28, 58, 78]",281582781,Ce2Ni1Pt1
Ce4Ni,mp-1214244,0.0,7.83480012,0.4127245550000014,"{58: 4, 28: 1}","[28, 58]",281584,Ce4Ni1
Ce5NiPb3,mp-640447,0.0,7.51297893,0.0,"{58: 5, 28: 1, 82: 3}","[28, 58, 82]",281585823,Ce5Ni1Pb3
PrNi,mp-11799,0.0,4.8591185,0.0,"{59: 1, 28: 1}","[28, 59]",281591,Pr1Ni1
PrNiBi,mp-1206667,0.3337999999999992,5.78049177,0.0,"{59: 1, 28: 1, 83: 1}","[28, 59, 83]",281591831,Pr1Ni1Bi1