formula,material_id,band_gap,efermi,energy_above_hull,comp_atoms,sorted_keys_comp_atoms,comp_number,new_formula
Co(NiN)2,mp-1247156,0.0,7.53368059,0.2947584743333316,"{27: 1, 28: 2, 7: 2}","[7, 27, 28]",72271282,Co1Ni2N2
Co2NiN2,mp-1245646,0.0,5.59323036,0.08339870010000183,"{27: 2, 28: 1, 7: 2}","[7, 27, 28]",72272281,Co2Ni1N2
Zn2NiN2,mp-1392436,0.0,3.38523407,0.19630703502702662,"{30: 2, 28: 1, 7: 2}","[7, 28, 30]",72281302,Zn2Ni1N2
NiGeN2,mp-1245842,0.0,5.50845015,0.23359035256944338,"{28: 1, 32: 1, 7: 2}","[7, 28, 32]",72281321,Ni1Ge1N2
Ni(GeN)2,mp-1246858,0.0,5.41762963,0.29625738262499546,"{28: 1, 32: 2, 7: 2}","[7, 28, 32]",72281322,Ni1Ge2N2
Sr2NiN2,mp-1218737,0.019500000000000295,3.34363829,0.006901978166668599,"{38: 2, 28: 1, 7: 2}","[7, 28, 38]",72281382,Sr2Ni1N2
In2NiN2,mp-1246644,0.2151999999999994,8.86728574,0.3194412640000017,"{49: 2, 28: 1, 7: 2}","[7, 28, 49]",72281492,In2Ni1N2
Ni(SnN)2,mp-1247230,0.0,7.88405917,0.2465318364999991,"{28: 1, 50: 2, 7: 2}","[7, 28, 50]",72281502,Ni1Sn2N2
Ni(IN)2,mp-1207283,0.0,5.5419483,1.33501761512,"{28: 1, 53: 2, 7: 2}","[7, 28, 53]",72281532,Ni1I2N2
Ba2NiN2,mp-1245840,0.0,3.33212037,0.14231580266666644,"{56: 2, 28: 1, 7: 2}","[7, 28, 56]",72281562,Ba2Ni1N2
ReNiN2,mp-1245632,0.0,8.53830912,0.14351227041666448,"{75: 1, 28: 1, 7: 2}","[7, 28, 75]",72281751,Re1Ni1N2
NiOsN2,mp-1246809,0.0,7.1774132,0.3102453608333313,"{28: 1, 76: 1, 7: 2}","[7, 28, 76]",72281761,Ni1Os1N2
Zn(NiN)2,mp-1425224,0.0,3.72752281,0.4886443854999998,"{30: 1, 28: 2, 7: 2}","[7, 28, 30]",72282301,Zn1Ni2N2
Sr(NiN)2,mp-1245437,0.0,6.13510529,0.2931553051333342,"{38: 1, 28: 2, 7: 2}","[7, 28, 38]",72282381,Sr1Ni2N2
Ba(NiN)2,mp-1247460,0.0,4.22561124,0.09363261499999798,"{56: 1, 28: 2, 7: 2}","[7, 28, 56]",72282561,Ba1Ni2N2
Ba2Ni3N2,mp-1228421,0.0,4.2604544,0.0,"{56: 2, 28: 3, 7: 2}","[7, 28, 56]",72283562,Ba2Ni3N2
Ni4Se3N2,mp-1247275,0.0,5.73880188,0.2446674273148126,"{28: 4, 34: 3, 7: 2}","[7, 28, 34]",72284343,Ni4Se3N2
Ni4Te3N2,mp-1246215,0.0,7.4169447,0.25678213152778007,"{28: 4, 52: 3, 7: 2}","[7, 28, 52]",72284523,Ni4Te3N2
Ni2S3(NO6)2,mp-1210176,0.0,-0.04962004,0.6438813539912305,"{28: 2, 16: 3, 7: 2, 8: 12}","[7, 8, 16, 28]",72812163282,Ni2S3N2O12
NiP2N2(O6F)2,mp-1180704,0.841,-1.16638698,0.70580338652631,"{28: 1, 15: 2, 7: 2, 8: 12, 9: 2}","[7, 8, 9, 15, 28]",7281292152281,Ni1P2N2O12F2
NiS2(NO7)2,mp-1180178,0.0,-1.21425228,0.8589301467982384,"{28: 1, 16: 2, 7: 2, 8: 14}","[7, 8, 16, 28]",72814162281,Ni1S2N2O14
Ni3P4(NO8)2,mp-1204236,0.5793,0.14393822,0.3284852208999913,"{28: 3, 15: 4, 7: 2, 8: 16}","[7, 8, 15, 28]",72816154283,Ni3P4N2O16
NiP4N2O19,mp-1196542,0.0,-1.36552285,0.5777925550480871,"{28: 1, 15: 4, 7: 2, 8: 19}","[7, 8, 15, 28]",72819154281,Ni1P4N2O19
Ni(NO3)2,mp-504722,3.1637,0.0897157,0.0,"{28: 1, 7: 2, 8: 6}","[7, 8, 28]",7286281,Ni1N2O6
NiP2(NO4)2,mp-1204481,0.009099999999999997,-0.85843345,1.1816200619230601,"{28: 1, 15: 2, 7: 2, 8: 8}","[7, 8, 15, 28]",7288152281,Ni1P2N2O8
Ni(NO4)2,mp-1191910,0.5516,-0.92037236,0.30311674545454625,"{28: 1, 7: 2, 8: 8}","[7, 8, 28]",7288281,Ni1N2O8
Ni(NF7)2,mp-27806,2.3025,-1.76406292,0.0,"{28: 1, 7: 2, 9: 14}","[7, 9, 28]",72914281,Ni1N2F14
Ni(NF2)2,mp-1206377,0.0,-2.31839793,1.6153764342857135,"{28: 1, 7: 2, 9: 4}","[7, 9, 28]",7294281,Ni1N2F4
Al2NiN3,mp-1246782,0.008599999999999497,6.41731513,0.32305538555555735,"{13: 2, 28: 1, 7: 3}","[7, 13, 28]",73132281,Al2Ni1N3
Ca3NiN3,mp-1246203,0.0,3.89748802,0.10770081625000039,"{20: 3, 28: 1, 7: 3}","[7, 20, 28]",73203281,Ca3Ni1N3
VNi2N3,mp-1247484,0.0,6.65713278,0.2269358177777807,"{23: 1, 28: 2, 7: 3}","[7, 23, 28]",73231282,V1Ni2N3
CrNi2N3,mp-1246517,0.0,6.18110459,0.09688508444444643,"{24: 1, 28: 2, 7: 3}","[7, 24, 28]",73241282,Cr1Ni2N3
Cr(NiN)3,mp-1245402,0.0,6.78431994,0.29159674928571633,"{24: 1, 28: 3, 7: 3}","[7, 24, 28]",73241283,Cr1Ni3N3
Mn(NiN)3,mp-1245483,0.0,4.98698133,0.15045426785714255,"{25: 1, 28: 3, 7: 3}","[7, 25, 28]",73251283,Mn1Ni3N3
Fe(NiN)3,mp-1245580,0.0,5.78059142,0.22421638857142767,"{26: 1, 28: 3, 7: 3}","[7, 26, 28]",73261283,Fe1Ni3N3
Ga2NiN3,mp-1247292,0.0,4.49484775,0.3067803380555567,"{31: 2, 28: 1, 7: 3}","[7, 28, 31]",73281312,Ga2Ni1N3
Sr3NiN3,mp-1246578,0.0,3.41329934,0.11413541369047486,"{38: 3, 28: 1, 7: 3}","[7, 28, 38]",73281383,Sr3Ni1N3
NiMoN3,mp-1246271,0.0,1.07017263,0.3369084868000023,"{28: 1, 42: 1, 7: 3}","[7, 28, 42]",73281421,Ni1Mo1N3
Ba3NiN3,mp-1246177,0.0,3.29303641,0.15436865238095,"{56: 3, 28: 1, 7: 3}","[7, 28, 56]",73281563,Ba3Ni1N3
ReNi2N3,mp-1246880,0.0,3.90713487,0.15357934666667106,"{75: 1, 28: 2, 7: 3}","[7, 28, 75]",73282751,Re1Ni2N3
Ni4N3,mp-1094084,0.0,7.98707375,0.2944701640476204,"{28: 4, 7: 3}","[7, 28]",73284,Ni4N3
MgNi5N4,mp-1246916,0.0,6.69233909,0.24426901879166696,"{12: 1, 28: 5, 7: 4}","[7, 12, 28]",74121285,Mg1Ni5N4
Mg5NiN4,mp-1247521,0.08510000000000018,3.29976951,0.2423730824583341,"{12: 5, 28: 1, 7: 4}","[7, 12, 28]",74125281,Mg5Ni1N4
Ni(SN)4,mp-1196211,0.7497,0.07192136,0.5420336887499992,"{28: 1, 16: 4, 7: 4}","[7, 16, 28]",74164281,Ni1S4N4
Ca3(NiN2)2,mp-1246156,0.0,5.12276302,0.26001595972222535,"{20: 3, 28: 2, 7: 4}","[7, 20, 28]",74203282,Ca3Ni2N4
Ca5NiN4,mp-1246733,0.6082999999999998,2.1478181,0.1811004764375026,"{20: 5, 28: 1, 7: 4}","[7, 20, 28]",74205281,Ca5Ni1N4
Ti(NiN)4,mp-1245900,0.0,6.77107567,0.2638685677777781,"{22: 1, 28: 4, 7: 4}","[7, 22, 28]",74221284,Ti1Ni4N4
V(NiN)4,mp-1247423,0.0,6.19377279,0.21090279703703807,"{23: 1, 28: 4, 7: 4}","[7, 23, 28]",74231284,V1Ni4N4
Cr2Ni3N4,mp-1245694,0.0,7.53209438,0.20138104666666834,"{24: 2, 28: 3, 7: 4}","[7, 24, 28]",74242283,Cr2Ni3N4
MnNi5N4,mp-1245431,0.0,6.45052286,0.10628129116666507,"{25: 1, 28: 5, 7: 4}","[7, 25, 28]",74251285,Mn1Ni5N4
Mn5NiN4,mp-1245394,0.0,5.94446315,0.1581568329999996,"{25: 5, 28: 1, 7: 4}","[7, 25, 28]",74255281,Mn5Ni1N4
FeNi5N4,mp-1246672,0.0,6.62535484,0.15732410699999821,"{26: 1, 28: 5, 7: 4}","[7, 26, 28]",74261285,Fe1Ni5N4
Fe2Ni3N4,mp-1246184,0.0,7.23270655,0.27158073222222434,"{26: 2, 28: 3, 7: 4}","[7, 26, 28]",74262283,Fe2Ni3N4
Fe5NiN4,mp-1247266,0.0,6.8516427,0.24664537849999668,"{26: 5, 28: 1, 7: 4}","[7, 26, 28]",74265281,Fe5Ni1N4
CoNi5N4,mp-1246265,0.0,6.35611423,0.16472383716666528,"{27: 1, 28: 5, 7: 4}","[7, 27, 28]",74271285,Co1Ni5N4
Co5NiN4,mp-1246516,0.0,6.56305465,0.14649536269999963,"{27: 5, 28: 1, 7: 4}","[7, 27, 28]",74275281,Co5Ni1N4
Zn5NiN4,mp-1245758,0.26919999999999966,2.24080001,0.23945987159285842,"{30: 5, 28: 1, 7: 4}","[7, 28, 30]",74281305,Zn5Ni1N4
Sr5NiN4,mp-1246281,0.0017000000000000348,2.09836278,0.35158701433333306,"{38: 5, 28: 1, 7: 4}","[7, 28, 38]",74281385,Sr5Ni1N4
Sr3(NiN2)2,mp-1245725,0.0,4.59366202,0.3091046921296279,"{38: 3, 28: 2, 7: 4}","[7, 28, 38]",74282383,Sr3Ni2N4
Y2Ni3N4,mp-1246796,0.0,4.84344271,0.17581233111111239,"{39: 2, 28: 3, 7: 4}","[7, 28, 39]",74283392,Y2Ni3N4
Zr(NiN)4,mp-1246335,0.0,6.37910398,0.2505989855555555,"{40: 1, 28: 4, 7: 4}","[7, 28, 40]",74284401,Zr1Ni4N4
Ni4RuN4,mp-1247328,0.0,6.94382944,0.23362485981481385,"{28: 4, 44: 1, 7: 4}","[7, 28, 44]",74284441,Ni4Ru1N4
Ni4IrN4,mp-1245696,0.0,7.018399,0.2769080148148131,"{28: 4, 77: 1, 7: 4}","[7, 28, 77]",74284771,Ni4Ir1N4
ZnNi5N4,mp-1246248,0.0,5.46617999,0.27991508999999937,"{30: 1, 28: 5, 7: 4}","[7, 28, 30]",74285301,Zn1Ni5N4
SrNi5N4,mp-1246747,0.0,5.81394295,0.22125427503333128,"{38: 1, 28: 5, 7: 4}","[7, 28, 38]",74285381,Sr1Ni5N4
K2Ni(NO3)4,mp-556059,3.1695,-0.73822277,0.0,"{19: 2, 28: 1, 7: 4, 8: 12}","[7, 8, 19, 28]",74812192281,K2Ni1N4O12
Cs2Ni(NO3)4,mp-557503,2.7215,2.33963452,0.0,"{55: 2, 28: 1, 7: 4, 8: 12}","[7, 8, 28, 55]",74812281552,Cs2Ni1N4O12
NiP6(N2O11)2,mp-1180193,0.017199999999999993,-0.63099121,0.9397727148485009,"{28: 1, 15: 6, 7: 4, 8: 22}","[7, 8, 15, 28]",74822156281,Ni1P6N4O22
Ni(NO2)4,mp-1210164,0.0,-1.04954371,0.2071406423076958,"{28: 1, 7: 4, 8: 8}","[7, 8, 28]",7488281,Ni1N4O8
NiAs2S6N4(OF2)8,mp-560084,4.369199999999999,-1.87064898,0.19516940878378364,"{28: 1, 33: 2, 16: 6, 7: 4, 8: 8, 9: 16}","[7, 8, 9, 16, 28, 33]",7488916166281332,Ni1As2S6N4O8F16
Ca3Ni3N5,mp-1247456,0.0,5.17427114,0.2662776454545446,"{20: 3, 28: 3, 7: 5}","[7, 20, 28]",75203283,Ca3Ni3N5
NiMo4N5,mp-1220138,0.0,9.69462474,0.09155154260000131,"{28: 1, 42: 4, 7: 5}","[7, 28, 42]",75281424,Ni1Mo4N5
Sr3Ni3N5,mp-1245839,0.0,4.36388095,0.24917181065151617,"{38: 3, 28: 3, 7: 5}","[7, 28, 38]",75283383,Sr3Ni3N5
Ba3Ni3N5,mp-1247433,0.0,4.31874213,0.2678906195454509,"{56: 3, 28: 3, 7: 5}","[7, 28, 56]",75283563,Ba3Ni3N5
K3Ni(NO2)5,mp-1223825,1.9658,1.97702521,0.1493213117105281,"{19: 3, 28: 1, 7: 5, 8: 10}","[7, 8, 19, 28]",75810193281,K3Ni1N5O10
Na4NiAg2S8N5O12,mp-1221251,0.0,0.0457628,0.8594597605691972,"{11: 4, 28: 1, 47: 2, 16: 8, 7: 5, 8: 12}","[7, 8, 11, 16, 28, 47]",75812114168281472,Na4Ni1Ag2S8N5O12
Cu8NiSb3S13N6,mp-1213576,0.0,1.92775051,0.8462067087096816,"{29: 8, 28: 1, 51: 3, 16: 13, 7: 6}","[7, 16, 28, 29, 51]",761613281298513,Cu8Ni1Sb3S13N6
Ni(N3Cl)2,mp-1084748,0.0,2.11187188,2.841556701111113,"{28: 1, 7: 6, 17: 2}","[7, 17, 28]",76172281,Ni1N6Cl2
Ni(I5N3)2,mp-1211426,0.7492000000000001,1.54325979,1.055170635882352,"{28: 1, 53: 10, 7: 6}","[7, 28, 53]",762815310,Ni1I10N6
Ni(IN)6,mp-1210513,0.0,3.12182992,1.1843753569230753,"{28: 1, 53: 6, 7: 6}","[7, 28, 53]",76281536,Ni1I6N6
K2CaNi(NO2)6,mp-22650,1.7049,1.10671885,0.11515626599999518,"{19: 2, 20: 1, 28: 1, 7: 6, 8: 12}","[7, 8, 19, 20, 28]",76812192201281,K2Ca1Ni1N6O12
K2SrNi(NO2)6,mp-19374,2.1937,0.83499098,0.11352103397726854,"{19: 2, 38: 1, 28: 1, 7: 6, 8: 12}","[7, 8, 19, 28, 38]",76812192281381,K2Sr1Ni1N6O12
K2BaNi(NO2)6,mp-690607,1.4136000000000002,0.40021099,0.16564214445454084,"{19: 2, 56: 1, 28: 1, 7: 6, 8: 12}","[7, 8, 19, 28, 56]",76812192281561,K2Ba1Ni1N6O12
K2NiPb(NO2)6,mp-22139,1.7504,1.55511957,0.11326514274998978,"{19: 2, 28: 1, 82: 1, 7: 6, 8: 12}","[7, 8, 19, 28, 82]",76812192281821,K2Ni1Pb1N6O12
K4Ni(NO2)6,mp-558721,1.8294,-0.12126186,0.12488074213768119,"{19: 4, 28: 1, 7: 6, 8: 12}","[7, 8, 19, 28]",76812194281,K4Ni1N6O12
Sr2Ni(NO2)6,mp-21150,0.0,1.3357015,1.8508698526190468,"{38: 2, 28: 1, 7: 6, 8: 12}","[7, 8, 28, 38]",76812281382,Sr2Ni1N6O12
Ba2Ni(NO2)6,mp-22733,0.0,1.09122193,1.8577353730000006,"{56: 2, 28: 1, 7: 6, 8: 12}","[7, 8, 28, 56]",76812281562,Ba2Ni1N6O12
NiPb2(NO2)6,mp-20720,0.0,2.29235942,1.928501467166667,"{28: 1, 82: 2, 7: 6, 8: 12}","[7, 8, 28, 82]",76812281822,Ni1Pb2N6O12
ThNi(N3O13)2,mp-1208508,0.015599999999999836,-1.51278042,0.3193428693382385,"{90: 1, 28: 1, 7: 6, 8: 26}","[7, 8, 28, 90]",76826281901,Th1Ni1N6O26
Ni(N3O2)2,mp-1103006,2.1516,-0.81552001,0.2514795072727285,"{28: 1, 7: 6, 8: 4}","[7, 8, 28]",7684281,Ni1N6O4
Ta2Ni(NF2)6,mp-818598,0.0,-5.80775946,1.7495092066666729,"{73: 2, 28: 1, 7: 6, 9: 12}","[7, 9, 28, 73]",76912281732,Ta2Ni1N6F12
NiAs2S6(NF3)6,mp-558770,2.435,-1.91235037,0.20947151920214324,"{28: 1, 33: 2, 16: 6, 7: 6, 9: 18}","[7, 9, 16, 28, 33]",76918166281332,Ni1As2S6N6F18
Ba8Ni6N7,mp-28685,0.0,3.90130697,0.0036146826190455172,"{56: 8, 28: 6, 7: 7}","[7, 28, 56]",77286568,Ba8Ni6N7
Rb3Ni2(NO3)7,mp-1196286,2.9288,-0.06896493,0.0,"{37: 3, 28: 2, 7: 7, 8: 21}","[7, 8, 28, 37]",77821282373,Rb3Ni2N7O21
Si5(NiN4)2,mp-1245337,0.0,5.54513003,0.2211021571111118,"{14: 5, 28: 2, 7: 8}","[7, 14, 28]",78145282,Si5Ni2N8
Mn10NiN8,mp-1246926,0.0,6.69459335,0.28705759355263183,"{25: 10, 28: 1, 7: 8}","[7, 25, 28]",782510281,Mn10Ni1N8
Mn2Ni9N8,mp-1246594,0.0,7.49561792,0.26958104815789596,"{25: 2, 28: 9, 7: 8}","[7, 25, 28]",78252289,Mn2Ni9N8
Fe10NiN8,mp-1245751,0.0,6.66864468,0.2885582467105241,"{26: 10, 28: 1, 7: 8}","[7, 26, 28]",782610281,Fe10Ni1N8
Fe2Ni9N8,mp-1246451,0.0,5.1217722,0.25166821447368637,"{26: 2, 28: 9, 7: 8}","[7, 26, 28]",78262289,Fe2Ni9N8
Sr8Ni3N8,mp-1246821,0.0,3.4417917,0.08174921960526227,"{38: 8, 28: 3, 7: 8}","[7, 28, 38]",78283388,Sr8Ni3N8
Ni(N4O3)2,mp-1104404,0.0,4.17565492,2.7508603460000014,"{28: 1, 7: 8, 8: 6}","[7, 8, 28]",7886281,Ni1N8O6
Mn3Ni8N9,mp-1245427,0.0,5.93164973,0.2490459400833327,"{25: 3, 28: 8, 7: 9}","[7, 25, 28]",79253288,Mn3Ni8N9
NaNi2P3O10,mp-761044,0.7697000000000003,3.89082045,0.00845828130208126,"{11: 1, 28: 2, 15: 3, 8: 10}","[8, 11, 15, 28]",810111153282,Na1Ni2P3O10
NaNi2(MoO5)2,mp-1210175,0.06549999999999989,1.20001364,0.14855485486111686,"{11: 1, 28: 2, 42: 2, 8: 10}","[8, 11, 28, 42]",810111282422,Na1Ni2Mo2O10
Na2Mg(NiO2)5,mp-2229155,0.5751000000000004,3.11852789,0.06974239555554185,"{11: 2, 12: 1, 28: 5, 8: 10}","[8, 11, 12, 28]",810112121285,Na2Mg1Ni5O10
Na2Si4NiO10,mp-505307,1.3731,1.75798676,0.008655802205885799,"{11: 2, 14: 4, 28: 1, 8: 10}","[8, 11, 14, 28]",810112144281,Na2Si4Ni1O10
Na2(NiO2)5,mp-760161,0.07240000000000002,2.15204019,0.008464842745097734,"{11: 2, 28: 5, 8: 10}","[8, 11, 28]",810112285,Na2Ni5O10
Na3Mg(NiO2)5,mp-2231103,0.26339999999999986,3.56265804,0.07386603114035672,"{11: 3, 12: 1, 28: 5, 8: 10}","[8, 11, 12, 28]",810113121285,Na3Mg1Ni5O10
Na3(NiO2)5,mp-759923,0.0,2.77559702,0.006990582129618339,"{11: 3, 28: 5, 8: 10}","[8, 11, 28]",810113285,Na3Ni5O10
Na4Mg(Ni2O5)2,mp-2231875,0.4664999999999999,3.129539,0.037428732763157946,"{11: 4, 12: 1, 28: 4, 8: 10}","[8, 11, 12, 28]",810114121284,Na4Mg1Ni4O10
Na4Mg(NiO2)5,mp-2230006,0.5008999999999997,3.75637887,0.0705180955000051,"{11: 4, 12: 1, 28: 5, 8: 10}","[8, 11, 12, 28]",810114121285,Na4Mg1Ni5O10
Na4Ni3(SbO5)2,mp-1221170,0.0,4.66210033,0.013964595526315904,"{11: 4, 28: 3, 51: 2, 8: 10}","[8, 11, 28, 51]",810114283512,Na4Ni3Sb2O10
Na4(NiO2)5,mp-753301,0.3153999999999999,3.68830391,0.0,"{11: 4, 28: 5, 8: 10}","[8, 11, 28]",810114285,Na4Ni5O10
MgSi4NiO10,mp-1043541,3.1467,2.41476329,0.1279699696874923,"{12: 1, 14: 4, 28: 1, 8: 10}","[8, 12, 14, 28]",810121144281,Mg1Si4Ni1O10
MgNi2(PO5)2,mp-1044099,0.02400000000000002,2.50379876,0.23531778111110846,"{12: 1, 28: 2, 15: 2, 8: 10}","[8, 12, 15, 28]",810121152282,Mg1Ni2P2O10
MgV2Ni(TeO5)2,mp-2233001,1.5287999999999995,4.21767873,0.1489360619270821,"{12: 1, 23: 2, 28: 1, 52: 2, 8: 10}","[8, 12, 23, 28, 52]",810121232281522,Mg1V2Ni1Te2O10
Ba2Mg2Tl2Ni3O10,mp-1046522,0.0,3.76601644,0.16812805250000107,"{56: 2, 12: 2, 81: 2, 28: 3, 8: 10}","[8, 12, 28, 56, 81]",810122283562812,Ba2Mg2Tl2Ni3O10
CaSi4NiO10,mp-1043642,3.3088,2.0583125,0.14351124005208504,"{20: 1, 14: 4, 28: 1, 8: 10}","[8, 14, 20, 28]",810144201281,Ca1Si4Ni1O10
Si4NiO10,mp-1325790,0.0,0.43655857,0.2201520037222231,"{14: 4, 28: 1, 8: 10}","[8, 14, 28]",810144281,Si4Ni1O10
ZnSi4NiO10,mp-1043543,2.703,2.79579358,0.158455941875002,"{30: 1, 14: 4, 28: 1, 8: 10}","[8, 14, 28, 30]",810144281301,Zn1Si4Ni1O10
KNiPO10,mp-1193290,0.2871999999999999,-1.14054608,0.5693916132692332,"{19: 1, 28: 1, 15: 1, 8: 10}","[8, 15, 19, 28]",810151191281,K1Ni1P1O10
K2NiP2WO10,mp-556502,1.1528,1.82492843,0.0,"{19: 2, 28: 1, 15: 2, 74: 1, 8: 10}","[8, 15, 19, 28, 74]",810152192281741,K2Ni1P2W1O10
CaNi2(PO5)2,mp-1378551,0.0,2.50104011,0.3338816303148091,"{20: 1, 28: 2, 15: 2, 8: 10}","[8, 15, 20, 28]",810152201282,Ca1Ni2P2O10
Ti2Ni(PO5)2,mp-18281,2.6241,1.82004382,0.0,"{22: 2, 28: 1, 15: 2, 8: 10}","[8, 15, 22, 28]",810152222281,Ti2Ni1P2O10
V2Ni(PO5)2,mp-554784,1.2062,2.38755359,0.0,"{23: 2, 28: 1, 15: 2, 8: 10}","[8, 15, 23, 28]",810152232281,V2Ni1P2O10
Ni(PO5)2,mp-1210328,0.014200000000000101,-0.63263224,0.5242856182692126,"{28: 1, 15: 2, 8: 10}","[8, 15, 28]",810152281,Ni1P2O10
ZnNi2(PO5)2,mp-1044127,0.0,2.28026789,0.246699185111118,"{30: 1, 28: 2, 15: 2, 8: 10}","[8, 15, 28, 30]",810152282301,Zn1Ni2P2O10
Ni2P3O10,mp-25269,0.0,1.85585345,0.055445558333334866,"{28: 2, 15: 3, 8: 10}","[8, 15, 28]",810153282,Ni2P3O10
NiSO10,mp-1197146,0.0,-1.1117557,0.8076633458333271,"{28: 1, 16: 1, 8: 10}","[8, 16, 28]",810161281,Ni1S1O10
Ni3Se4(ClO5)2,mp-1105005,3.1114000000000006,1.675298,0.0,"{28: 3, 34: 4, 17: 2, 8: 10}","[8, 17, 28, 34]",810172283344,Ni3Se4Cl2O10
K2Cr2NiO10,mp-1103927,0.17879999999999985,-1.12846095,0.20454200277777534,"{19: 2, 24: 2, 28: 1, 8: 10}","[8, 19, 24, 28]",810192242281,K2Cr2Ni1O10
Ba2CaEr3(NiO5)2,mp-1228555,0.2859999999999996,3.17133705,0.00981757213888379,"{56: 2, 20: 1, 68: 3, 28: 2, 8: 10}","[8, 20, 28, 56, 68]",810201282562683,Ba2Ca1Er3Ni2O10
Ba2Ca2Tl2Ni3O10,mp-1046512,0.0,4.15507287,0.16847584618421063,"{56: 2, 20: 2, 81: 2, 28: 3, 8: 10}","[8, 20, 28, 56, 81]",810202283562812,Ba2Ca2Tl2Ni3O10
La2Ti3NiO10,mp-1223170,0.0,5.9212717,0.12586289421872188,"{57: 2, 22: 3, 28: 1, 8: 10}","[8, 22, 28, 57]",810223281572,La2Ti3Ni1O10
V2Ni(TeO5)2,mp-559589,0.8779999999999997,4.07855071,0.020172850333334935,"{23: 2, 28: 1, 52: 2, 8: 10}","[8, 23, 28, 52]",810232281522,V2Ni1Te2O10
Mn3NiO10,mp-1192587,0.0,0.77316543,0.3467280236309547,"{25: 3, 28: 1, 8: 10}","[8, 25, 28]",810253281,Mn3Ni1O10
La4Fe(NiO5)2,mp-1223077,0.0,7.45704083,0.0715924651470452,"{57: 4, 26: 1, 28: 2, 8: 10}","[8, 26, 28, 57]",810261282574,La4Fe1Ni2O10
NiSeO10,mp-1200945,0.0,-0.93628483,0.8091112877083333,"{28: 1, 34: 1, 8: 10}","[8, 28, 34]",810281341,Ni1Se1O10
Ni(IO5)2,mp-1210130,0.008400000000000185,1.10214371,0.5177292240384572,"{28: 1, 53: 2, 8: 10}","[8, 28, 53]",810281532,Ni1I2O10
Sr5Ni2BiO10,mp-1189753,0.0,3.01228469,0.05874178398148722,"{38: 5, 28: 2, 83: 1, 8: 10}","[8, 28, 38, 83]",810282385831,Sr5Ni2Bi1O10
Ba2Tl2Zn2Ni3O10,mp-1046545,0.0,3.40007976,0.15625013776315644,"{56: 2, 81: 2, 30: 2, 28: 3, 8: 10}","[8, 28, 30, 56, 81]",810283302562812,Ba2Tl2Zn2Ni3O10
Ni3Se3O10,mp-1197896,0.0,1.6651248,0.12236002875000107,"{28: 3, 34: 3, 8: 10}","[8, 28, 34]",810283343,Ni3Se3O10
Ni3Te2MoO10,mp-1198070,2.9872,2.44461198,0.0,"{28: 3, 52: 2, 42: 1, 8: 10}","[8, 28, 42, 52]",810283421522,Ni3Te2Mo1O10
Ba2Tl2Ni3O10,mp-1046591,0.0,2.49435851,0.4107346611764662,"{56: 2, 81: 2, 28: 3, 8: 10}","[8, 28, 56, 81]",810283562812,Ba2Tl2Ni3O10
La4Ni3O10,mp-558316,0.0,7.93788165,0.020250502499999712,"{57: 4, 28: 3, 8: 10}","[8, 28, 57]",810283574,La4Ni3O10
Nd4Ni3O10,mp-555135,0.0,4.09874944,0.018430305147058235,"{60: 4, 28: 3, 8: 10}","[8, 28, 60]",810283604,Nd4Ni3O10
Zn(Ni2O5)2,mp-1215795,0.0,1.83997493,0.2289416718888937,"{30: 1, 28: 4, 8: 10}","[8, 28, 30]",810284301,Zn1Ni4O10
Zn3Ni7O10,mp-754030,1.7526000000000002,4.70493247,0.0672517097500025,"{30: 3, 28: 7, 8: 10}","[8, 28, 30]",810287303,Zn3Ni7O10
Ni9O10,mp-656884,0.0,5.17074328,0.04665237342105222,"{28: 9, 8: 10}","[8, 28]",810289,Ni9O10
CuNi9O10,mp-757221,0.0,6.44657017,0.03457051224999841,"{29: 1, 28: 9, 8: 10}","[8, 28, 29]",810289291,Cu1Ni9O10
ZnNi9O10,mp-753807,2.0976,5.55471724,0.047119885749999924,"{30: 1, 28: 9, 8: 10}","[8, 28, 30]",810289301,Zn1Ni9O10
NaNiPO11,mp-1192849,0.0,-1.43748499,0.8888916314285717,"{11: 1, 28: 1, 15: 1, 8: 11}","[8, 11, 15, 28]",811111151281,Na1Ni1P1O11
KNi3P3O11,mp-1198941,4.159700000000001,2.30506927,0.0,"{19: 1, 28: 3, 15: 3, 8: 11}","[8, 15, 19, 28]",811153191283,K1Ni3P3O11
Ni2P3O11,mp-26892,0.0,1.44034107,0.19507648640625153,"{28: 2, 15: 3, 8: 11}","[8, 15, 28]",811153282,Ni2P3O11
Ni3P3O11,mp-585392,0.043299999999999894,1.62031092,0.049794141323530106,"{28: 3, 15: 3, 8: 11}","[8, 15, 28]",811153283,Ni3P3O11
NiP4O11,mp-28957,0.8633000000000002,2.25606558,0.0,"{28: 1, 15: 4, 8: 11}","[8, 15, 28]",811154281,Ni1P4O11
NiSO11,mp-1180062,0.0,-2.35076987,0.9151357049999946,"{28: 1, 16: 1, 8: 11}","[8, 16, 28]",811161281,Ni1S1O11
KNi3As3O11,mp-560548,2.6083,1.81141575,0.0012034050000027108,"{19: 1, 28: 3, 33: 3, 8: 11}","[8, 19, 28, 33]",811191283333,K1Ni3As3O11
SrV5NiO11,mp-1208754,0.18520000000000003,4.31264901,0.11656512635417648,"{38: 1, 23: 5, 28: 1, 8: 11}","[8, 23, 28, 38]",811235281381,Sr1V5Ni1O11
SrNiRu5O11,mp-1198840,0.0,5.11715095,0.054476718541658364,"{38: 1, 28: 1, 44: 5, 8: 11}","[8, 28, 38, 44]",811281381445,Sr1Ni1Ru5O11
Ni3Mo2SeO11,mp-560757,2.3643999999999994,2.56121129,0.0,"{28: 3, 42: 2, 34: 1, 8: 11}","[8, 28, 34, 42]",811283341422,Ni3Mo2Se1O11
Ni3TeMo2O11,mp-557988,2.6087,2.93722697,0.0015990751470571496,"{28: 3, 52: 1, 42: 2, 8: 11}","[8, 28, 42, 52]",811283422521,Ni3Te1Mo2O11
Ni5O11,mp-1220184,0.0,1.4679371,0.20714840161458348,"{28: 5, 8: 11}","[8, 28]",811285,Ni5O11