formula,material_id,band_gap,efermi,energy_above_hull,comp_atoms,sorted_keys_comp_atoms,comp_number,new_formula
Na3SiNiCO7,mp-771030,0.0,1.70131644,0.03346811516025561,"{11: 3, 14: 1, 28: 1, 6: 1, 8: 7}","[6, 8, 11, 14, 28]",6187113141281,Na3Si1Ni1C1O7
Na3NiPCO7,mp-770968,3.8394,1.65025264,0.0,"{11: 3, 28: 1, 15: 1, 6: 1, 8: 7}","[6, 8, 11, 15, 28]",6187113151281,Na3Ni1P1C1O7
Na3NiAsCO7,mp-770940,3.304,1.45761309,0.0,"{11: 3, 28: 1, 33: 1, 6: 1, 8: 7}","[6, 8, 11, 28, 33]",6187113281331,Na3Ni1As1C1O7
K2NiPCO7,mp-773431,0.0,-0.12957293,0.023775354270830995,"{19: 2, 28: 1, 15: 1, 6: 1, 8: 7}","[6, 8, 15, 19, 28]",6187151192281,K2Ni1P1C1O7
K3NiPCO7,mp-754510,3.7622000000000004,0.93619638,0.0,"{19: 3, 28: 1, 15: 1, 6: 1, 8: 7}","[6, 8, 15, 19, 28]",6187151193281,K3Ni1P1C1O7
Mg6NiCO8,mp-1031610,0.29849999999999977,5.78067446,0.4909952012500005,"{12: 6, 28: 1, 6: 1, 8: 8}","[6, 8, 12, 28]",6188126281,Mg6Ni1C1O8
Nb4Ni(CS2)2,mp-1220518,0.0,6.89330812,0.037766597500001,"{41: 4, 28: 1, 6: 2, 16: 4}","[6, 16, 28, 41]",62164281414,Nb4Ni1C2S4
ScNiC2,mp-1086667,0.0,7.28085558,0.04476573874999801,"{21: 1, 28: 1, 6: 2}","[6, 21, 28]",62211281,Sc1Ni1C2
Nb6V3Ni3C2,mp-1220550,0.0,6.0449906,0.0,"{41: 6, 23: 3, 28: 3, 6: 2}","[6, 23, 28, 41]",62233283416,Nb6V3Ni3C2
Ta6V3Ni3C2,mp-1218112,0.0,6.57777366,0.0,"{73: 6, 23: 3, 28: 3, 6: 2}","[6, 23, 28, 73]",62233283736,Ta6V3Ni3C2
Ta6Cr3Ni3C2,mp-1218085,0.0,6.726936,0.055338621249999775,"{73: 6, 24: 3, 28: 3, 6: 2}","[6, 24, 28, 73]",62243283736,Ta6Cr3Ni3C2
YNiC2,mp-1066566,0.0,6.62810796,0.0,"{39: 1, 28: 1, 6: 2}","[6, 28, 39]",62281391,Y1Ni1C2
LaNiC2,mp-1018048,0.0,8.82344595,0.0,"{57: 1, 28: 1, 6: 2}","[6, 28, 57]",62281571,La1Ni1C2
CeNiC2,mp-19741,0.0,8.51694142,0.009151617312499027,"{58: 1, 28: 1, 6: 2}","[6, 28, 58]",62281581,Ce1Ni1C2
PrNiC2,mp-9312,0.0,6.16415579,0.0,"{59: 1, 28: 1, 6: 2}","[6, 28, 59]",62281591,Pr1Ni1C2
NdNiC2,mp-5383,0.0,6.15211154,0.0,"{60: 1, 28: 1, 6: 2}","[6, 28, 60]",62281601,Nd1Ni1C2
SmNiC2,mp-999144,0.0,6.19389879,0.3631373887053595,"{62: 1, 28: 1, 6: 2}","[6, 28, 62]",62281621,Sm1Ni1C2
GdNiC2,mp-1065668,0.0,6.20622663,0.0,"{64: 1, 28: 1, 6: 2}","[6, 28, 64]",62281641,Gd1Ni1C2
TbNiC2,mp-3061,0.0,6.46874777,0.0,"{65: 1, 28: 1, 6: 2}","[6, 28, 65]",62281651,Tb1Ni1C2
DyNiC2,mp-4587,0.0,6.46987556,0.0,"{66: 1, 28: 1, 6: 2}","[6, 28, 66]",62281661,Dy1Ni1C2
HoNiC2,mp-5154,0.0,6.44004753,0.0,"{67: 1, 28: 1, 6: 2}","[6, 28, 67]",62281671,Ho1Ni1C2
ErNiC2,mp-11723,0.0,6.48950917,0.0,"{68: 1, 28: 1, 6: 2}","[6, 28, 68]",62281681,Er1Ni1C2
TmNiC2,mp-4037,0.0,6.48963785,0.0,"{69: 1, 28: 1, 6: 2}","[6, 28, 69]",62281691,Tm1Ni1C2
LuNiC2,mp-1001603,0.0,6.47357177,0.0,"{71: 1, 28: 1, 6: 2}","[6, 28, 71]",62281711,Lu1Ni1C2
Th2NiC2,mp-1206327,0.0,7.28511096,0.0,"{90: 2, 28: 1, 6: 2}","[6, 28, 90]",62281902,Th2Ni1C2
UNiC2,mp-1087542,0.0,11.08318443,0.03319482874999835,"{92: 1, 28: 1, 6: 2}","[6, 28, 92]",62281921,U1Ni1C2
PuNiC2,mp-975570,0.0,10.42948472,0.06080401034722627,"{94: 1, 28: 1, 6: 2}","[6, 28, 94]",62281941,Pu1Ni1C2
NiC2(SN)2,mp-8129,0.13139999999999996,1.86587092,0.2327395485884347,"{28: 1, 6: 2, 16: 2, 7: 2}","[6, 7, 16, 28]",6272162281,Ni1C2S2N2
RbNiC2N2Cl,mp-1104285,0.0,0.86544308,0.16630976857142432,"{37: 1, 28: 1, 6: 2, 7: 2, 17: 1}","[6, 7, 17, 28, 37]",6272171281371,Rb1Ni1C2N2Cl1
Ni(CN)2,mp-1246305,0.0,1.11756767,0.5111253894999992,"{28: 1, 6: 2, 7: 2}","[6, 7, 28]",6272281,Ni1C2N2
RbNiC2BrN2,mp-1104942,0.21900000000000003,0.48926937,0.16086001214285695,"{37: 1, 28: 1, 6: 2, 35: 1, 7: 2}","[6, 7, 28, 35, 37]",6272281351371,Rb1Ni1C2Br1N2
NiC2(SN3)2,mp-1102751,0.0,-1.32717941,1.7238878045562744,"{28: 1, 6: 2, 16: 2, 7: 6}","[6, 7, 16, 28]",6276162281,Ni1C2S2N6
K2Ni(CO5)2,mp-1212282,0.44400000000000006,-0.84424253,0.5055266375000018,"{19: 2, 28: 1, 6: 2, 8: 10}","[6, 8, 19, 28]",62810192281,K2Ni1C2O10
Cu3Ni(CO5)2,mp-1226082,0.0,2.12332646,0.1522869433789058,"{29: 3, 28: 1, 6: 2, 8: 10}","[6, 8, 28, 29]",62810281293,Cu3Ni1C2O10
Na3Ni2P2(CO7)2,mp-1176544,0.0,0.11700708,0.0,"{11: 3, 28: 2, 15: 2, 6: 2, 8: 14}","[6, 8, 11, 15, 28]",62814113152282,Na3Ni2P2C2O14
Na5Ni2P2(CO7)2,mp-1101707,0.0,1.01118695,0.01802900046667233,"{11: 5, 28: 2, 15: 2, 6: 2, 8: 14}","[6, 8, 11, 15, 28]",62814115152282,Na5Ni2P2C2O14
Ni(CO2)2,mp-1104034,3.2405999999999997,5.04930525,0.07624589374999058,"{28: 1, 6: 2, 8: 4}","[6, 8, 28]",6284281,Ni1C2O4
Ni(CO3)2,mp-1210376,0.5402999999999999,-1.24463644,0.5523407011111106,"{28: 1, 6: 2, 8: 6}","[6, 8, 28]",6286281,Ni1C2O6
Ce4Al16Ni4C3,mp-1227233,0.0,8.03356257,0.15607061472222217,"{58: 4, 13: 16, 28: 4, 6: 3}","[6, 13, 28, 58]",631316284584,Ce4Al16Ni4C3
Ni10(WC)3,mp-1198477,0.0,7.18457682,0.22673858351562615,"{28: 10, 74: 3, 6: 3}","[6, 28, 74]",632810743,Ni10W3C3
U2NiC3,mp-1208034,0.0,11.3690491,0.0,"{92: 2, 28: 1, 6: 3}","[6, 28, 92]",63281922,U2Ni1C3
La2Ni22C3,mp-573282,0.0,8.37102293,0.010738393425923753,"{57: 2, 28: 22, 6: 3}","[6, 28, 57]",632822572,La2Ni22C3
Ce2Ni22C3,mp-569096,0.0,8.18356737,0.02404053287036767,"{58: 2, 28: 22, 6: 3}","[6, 28, 58]",632822582,Ce2Ni22C3
Pr2Ni22C3,mp-1198597,0.0,7.36728832,0.009350039907404017,"{59: 2, 28: 22, 6: 3}","[6, 28, 59]",632822592,Pr2Ni22C3
Sm2Ni22C3,mp-1199812,0.0,7.31874171,0.4620843424074099,"{62: 2, 28: 22, 6: 3}","[6, 28, 62]",632822622,Sm2Ni22C3
Tb2Ni22C3,mp-1202495,0.0,7.32760069,0.016239543333329998,"{65: 2, 28: 22, 6: 3}","[6, 28, 65]",632822652,Tb2Ni22C3
Dy2Ni22C3,mp-1197710,0.0,7.43144308,0.01941082194444288,"{66: 2, 28: 22, 6: 3}","[6, 28, 66]",632822662,Dy2Ni22C3
Ho2Ni22C3,mp-1205259,0.0,7.29769563,0.019835994722218864,"{67: 2, 28: 22, 6: 3}","[6, 28, 67]",632822672,Ho2Ni22C3
La2Ni5C3,mp-615459,0.0,8.47129874,0.0,"{57: 2, 28: 5, 6: 3}","[6, 28, 57]",63285572,La2Ni5C3
Ce2Ni5C3,mp-1189522,0.0,7.8652752,0.0,"{58: 2, 28: 5, 6: 3}","[6, 28, 58]",63285582,Ce2Ni5C3
CsNiC3(SN)3,mp-672303,0.2749999999999999,1.33504481,0.14936751833333606,"{55: 1, 28: 1, 6: 3, 16: 3, 7: 3}","[6, 7, 16, 28, 55]",6373163281551,Cs1Ni1C3S3N3
Ni2(CN2)3,mp-1247308,0.009100000000000108,3.24094677,0.20053671749999769,"{28: 2, 6: 3, 7: 6}","[6, 7, 28]",6376282,Ni2C3N6
Ta8Ni(CS2)4,mp-1218138,0.0,6.72072122,0.03375796469576997,"{73: 8, 28: 1, 6: 4, 16: 8}","[6, 16, 28, 73]",64168281738,Ta8Ni1C4S8
Sc3NiC4,mp-1025464,0.0,6.59140854,0.0,"{21: 3, 28: 1, 6: 4}","[6, 21, 28]",64213281,Sc3Ni1C4
NiC4,mp-1210339,0.0,-1.54869656,1.7218630235,"{28: 1, 6: 4}","[6, 28]",64281,Ni1C4
Y4Ni13C4,mp-1191870,0.0,6.45406235,0.0,"{39: 4, 28: 13, 6: 4}","[6, 28, 39]",642813394,Y4Ni13C4
BaNiC4Br,mp-1147570,0.0,2.50848108,0.733860383928576,"{56: 1, 28: 1, 6: 4, 35: 1}","[6, 28, 35, 56]",64281351561,Ba1Ni1C4Br1
Gd4Ni13C4,mp-866397,0.0,6.25354455,0.0,"{64: 4, 28: 13, 6: 4}","[6, 28, 64]",642813644,Gd4Ni13C4
Tb4Ni13C4,mp-1191040,0.0,6.44354753,0.0,"{65: 4, 28: 13, 6: 4}","[6, 28, 65]",642813654,Tb4Ni13C4
Dy4Ni13C4,mp-1190673,0.0,6.46051088,0.0,"{66: 4, 28: 13, 6: 4}","[6, 28, 66]",642813664,Dy4Ni13C4
Ho4Ni13C4,mp-863728,0.0,6.37884731,0.0,"{67: 4, 28: 13, 6: 4}","[6, 28, 67]",642813674,Ho4Ni13C4
Er4Ni13C4,mp-28147,0.0,6.43643648,0.0,"{68: 4, 28: 13, 6: 4}","[6, 28, 68]",642813684,Er4Ni13C4
Tm4Ni13C4,mp-1191950,0.0,6.41729752,0.0,"{69: 4, 28: 13, 6: 4}","[6, 28, 69]",642813694,Tm4Ni13C4
Lu4Ni13C4,mp-865141,0.0,6.50412754,0.0,"{71: 4, 28: 13, 6: 4}","[6, 28, 71]",642813714,Lu4Ni13C4
Ni2W11C4,mp-1220415,0.0,7.36731708,0.37235788235294187,"{28: 2, 74: 11, 6: 4}","[6, 28, 74]",642827411,Ni2W11C4
NiC4NCl3,mp-1180076,0.0,-0.42130305,1.4343259784259272,"{28: 1, 6: 4, 7: 1, 17: 3}","[6, 7, 17, 28]",6471173281,Ni1C4N1Cl3
NiC4Br3N,mp-1180252,0.42310000000000003,-0.81215201,1.118620006579861,"{28: 1, 6: 4, 35: 3, 7: 1}","[6, 7, 28, 35]",6471281353,Ni1C4Br3N1
NiC4S4(NO6)2,mp-1193000,0.0,-1.19838868,1.1075841319565196,"{28: 1, 6: 4, 16: 4, 7: 2, 8: 12}","[6, 7, 8, 16, 28]",6472812164281,Ni1C4S4N2O12
K2Ni(CN)4,mp-7827,3.0324,-1.25260567,0.08445757071969151,"{19: 2, 28: 1, 6: 4, 7: 4}","[6, 7, 19, 28]",6474192281,K2Ni1C4N4
Tl2Ni(CN)4,mp-569704,2.2866,0.26440669,0.13201285386363448,"{81: 2, 28: 1, 6: 4, 7: 4}","[6, 7, 28, 81]",6474281812,Tl2Ni1C4N4
Ni(C2N3)2,mp-22405,0.7175999999999999,0.25361804,0.1994673009090917,"{28: 1, 6: 4, 7: 6}","[6, 7, 28]",6476281,Ni1C4N6
Na4Ni2P(CO4)4,mp-778605,0.0,0.10303364,0.08173104653549856,"{11: 4, 28: 2, 15: 1, 6: 4, 8: 16}","[6, 8, 11, 15, 28]",64816114151282,Na4Ni2P1C4O16
Na4Ni2C4SO16,mp-850975,0.0,0.07802896,0.046826797222218275,"{11: 4, 28: 2, 6: 4, 16: 1, 8: 16}","[6, 8, 11, 16, 28]",64816114161282,Na4Ni2C4S1O16
Na5Ni2P(CO4)4,mp-1176329,0.0,0.53595892,0.04845702462052781,"{11: 5, 28: 2, 15: 1, 6: 4, 8: 16}","[6, 8, 11, 15, 28]",64816115151282,Na5Ni2P1C4O16
Na5Ni2As(CO4)4,mp-771195,0.0,0.37934109,0.06230266464285528,"{11: 5, 28: 2, 33: 1, 6: 4, 8: 16}","[6, 8, 11, 28, 33]",64816115282331,Na5Ni2As1C4O16
Na6SiNi2(CO4)4,mp-770501,0.0,1.7047402,0.06311530653735353,"{11: 6, 14: 1, 28: 2, 6: 4, 8: 16}","[6, 8, 11, 14, 28]",64816116141282,Na6Si1Ni2C4O16
Na6Ni2P(CO4)4,mp-780894,0.0,1.05735358,0.01902301603447576,"{11: 6, 28: 2, 15: 1, 6: 4, 8: 16}","[6, 8, 11, 15, 28]",64816116151282,Na6Ni2P1C4O16
Na6Ni2C4SO16,mp-776196,3.247,1.39150484,0.0,"{11: 6, 28: 2, 6: 4, 16: 1, 8: 16}","[6, 8, 11, 16, 28]",64816116161282,Na6Ni2C4S1O16
Na6Ni2As(CO4)4,mp-781671,0.0,0.89046789,0.05039418510057647,"{11: 6, 28: 2, 33: 1, 6: 4, 8: 16}","[6, 8, 11, 28, 33]",64816116282331,Na6Ni2As1C4O16
K2NiC4(SO)4,mp-1211754,1.7671999999999999,2.23396314,0.1947521083531738,"{19: 2, 28: 1, 6: 4, 16: 4, 8: 4}","[6, 8, 16, 19, 28]",6484164192281,K2Ni1C4S4O4
Ni(CO)4,mp-836407,3.6732,-1.45968306,0.5364276733333222,"{28: 1, 6: 4, 8: 4}","[6, 8, 28]",6484281,Ni1C4O4
Ni(C2O3)2,mp-821432,0.0,-1.06455991,1.0967445367045414,"{28: 1, 6: 4, 8: 6}","[6, 8, 28]",6486281,Ni1C4O6
Ca4Ni3C5,mp-28742,0.0,4.60104694,0.0,"{20: 4, 28: 3, 6: 5}","[6, 20, 28]",65204283,Ca4Ni3C5
Er4Ni2C5,mp-1206215,0.0,5.25140887,0.0,"{68: 4, 28: 2, 6: 5}","[6, 28, 68]",65282684,Er4Ni2C5
Tm4Ni2C5,mp-1205529,0.0,5.2525187,0.0,"{69: 4, 28: 2, 6: 5}","[6, 28, 69]",65282694,Tm4Ni2C5
Lu4Ni2C5,mp-1207163,0.0,5.29221551,0.0,"{71: 4, 28: 2, 6: 5}","[6, 28, 71]",65282714,Lu4Ni2C5
NiPC5O2,mp-1180466,0.869,-0.07307853,1.1291408534567902,"{28: 1, 15: 1, 6: 5, 8: 2}","[6, 8, 15, 28]",6582151281,Ni1P1C5O2
Ni2C5(Cl2O)2,mp-1180042,2.7923,2.15289514,0.6588774749999979,"{28: 2, 6: 5, 17: 4, 8: 2}","[6, 8, 17, 28]",6582174282,Ni2C5Cl4O2
Y11(Ni10C)6,mp-570148,0.0,6.81465842,0.010368650454545936,"{39: 11, 28: 60, 6: 6}","[6, 28, 39]",6628603911,Y11Ni60C6
Dy11(Ni10C)6,mp-1202044,0.0,6.81371558,0.007869807077923063,"{66: 11, 28: 60, 6: 6}","[6, 28, 66]",6628606611,Dy11Ni60C6
Ho11(Ni10C)6,mp-1204867,0.0,6.78323779,0.005549692532468953,"{67: 11, 28: 60, 6: 6}","[6, 28, 67]",6628606711,Ho11Ni60C6
Er11(Ni10C)6,mp-1197229,0.0,6.75366338,0.0034972472077940964,"{68: 11, 28: 60, 6: 6}","[6, 28, 68]",6628606811,Er11Ni60C6
Tm11(Ni10C)6,mp-14326,0.0,6.76695599,0.0015840433116878216,"{69: 11, 28: 60, 6: 6}","[6, 28, 69]",6628606911,Tm11Ni60C6
Lu11(Ni10C)6,mp-1203980,0.025900000000000034,6.81030376,0.0,"{71: 11, 28: 60, 6: 6}","[6, 28, 71]",6628607111,Lu11Ni60C6
KFeNi(CN)6,mp-39273,0.0,-1.24721531,0.260929979944442,"{19: 1, 26: 1, 28: 1, 6: 6, 7: 6}","[6, 7, 19, 26, 28]",6676191261281,K1Fe1Ni1C6N6
KNiAu3(CN)6,mp-567861,1.3453,-0.32032056,0.22735867259803388,"{19: 1, 28: 1, 79: 3, 6: 6, 7: 6}","[6, 7, 19, 28, 79]",6676191281793,K1Ni1Au3C6N6
K2FeNi(CN)6,mp-14083,1.5027,0.50573608,0.14120622113714987,"{19: 2, 26: 1, 28: 1, 6: 6, 7: 6}","[6, 7, 19, 26, 28]",6676192261281,K2Fe1Ni1C6N6
Cs2FeNi(CN)6,mp-571284,1.3748,1.20387022,0.020956527734371733,"{55: 2, 26: 1, 28: 1, 6: 6, 7: 6}","[6, 7, 26, 28, 55]",6676261281552,Cs2Fe1Ni1C6N6
FeNi2(CN)6,mp-21498,0.6146000000000003,2.46172231,0.5827499480000018,"{26: 1, 28: 2, 6: 6, 7: 6}","[6, 7, 26, 28]",6676261282,Fe1Ni2C6N6
NiPt(CN)6,mp-1210015,1.4603000000000002,-1.60032666,0.252292889642856,"{28: 1, 78: 1, 6: 6, 7: 6}","[6, 7, 28, 78]",6676281781,Ni1Pt1C6N6
Ni(C2N3)3,mp-1246012,0.0,-1.46282842,0.37538496843749947,"{28: 1, 6: 6, 7: 9}","[6, 7, 28]",6679281,Ni1C6N9
Ni(CO)6,mp-1211394,0.3746000000000005,-4.2205041,1.5242104756730672,"{28: 1, 6: 6, 8: 6}","[6, 8, 28]",6686281,Ni1C6O6
Ni2P2(C2O3)3,mp-572621,3.076,-1.18900116,0.5793106731579041,"{28: 2, 15: 2, 6: 6, 8: 9}","[6, 8, 15, 28]",6689152282,Ni2P2C6O9
Cd2Ni2C8N12O,mp-1227591,1.0023999999999997,-3.42042406,1.2811531779333354,"{48: 2, 28: 2, 6: 8, 7: 12, 8: 1}","[6, 7, 8, 28, 48]",6871281282482,Cd2Ni2C8N12O1
Ni(C4N3)2,mp-1247167,0.8462000000000001,-0.35817383,0.3528717903333316,"{28: 1, 6: 8, 7: 6}","[6, 7, 28]",6876281,Ni1C8N6
CuNi3(CO3)8,mp-1227004,0.7425,-0.95670182,0.5033904250694432,"{29: 1, 28: 3, 6: 8, 8: 24}","[6, 8, 28, 29]",68824283291,Cu1Ni3C8O24
Ni12C8O31,mp-1195870,0.0,1.28524899,0.11219567968953914,"{28: 12, 6: 8, 8: 31}","[6, 8, 28]",688312812,Ni12C8O31
Si7NiN10,mp-1246774,0.5976999999999997,5.17580521,0.19957130296296555,"{14: 7, 28: 1, 7: 10}","[7, 14, 28]",710147281,Si7Ni1N10
Ti7Ni3N10,mp-676800,0.0,8.12060675,0.2572619884999998,"{22: 7, 28: 3, 7: 10}","[7, 22, 28]",710227283,Ti7Ni3N10
NiGe7N10,mp-1246798,0.5817999999999999,2.83564833,0.21499836154321272,"{28: 1, 32: 7, 7: 10}","[7, 28, 32]",710281327,Ni1Ge7N10
NaNiN,mp-1029466,0.0,3.43337169,0.06844732437739509,"{11: 1, 28: 1, 7: 1}","[7, 11, 28]",71111281,Na1Ni1N1
Ni2N11Cl8,mp-1220553,0.0,-1.30356731,1.3343105088095255,"{28: 2, 7: 11, 17: 8}","[7, 17, 28]",711178282,Ni2N11Cl8
Ti3Al2NiN,mp-542028,0.0,7.53161219,0.0,"{22: 3, 13: 2, 28: 1, 7: 1}","[7, 13, 22, 28]",71132223281,Ti3Al2Ni1N1
NiNCl3,mp-1205931,0.0,1.84597868,0.9842359209999998,"{28: 1, 7: 1, 17: 3}","[7, 17, 28]",71173281,Ni1N1Cl3
KNiN,mp-1245791,0.2126999999999999,2.8695986,0.11173883238888749,"{19: 1, 28: 1, 7: 1}","[7, 19, 28]",71191281,K1Ni1N1
CaNiN,mp-28645,0.0,4.99596592,0.0,"{20: 1, 28: 1, 7: 1}","[7, 20, 28]",71201281,Ca1Ni1N1
V4Ni2N,mp-1193390,0.0,7.13835806,0.0,"{23: 4, 28: 2, 7: 1}","[7, 23, 28]",71234282,V4Ni2N1
Mn3NiN,mp-20362,0.0,6.11474423,0.06109294566666357,"{25: 3, 28: 1, 7: 1}","[7, 25, 28]",71253281,Mn3Ni1N1
FeNiN,mp-629397,0.0,6.97390384,0.10455801000000164,"{26: 1, 28: 1, 7: 1}","[7, 26, 28]",71261281,Fe1Ni1N1
FeNiMo3N,mp-1225097,0.0,8.24072459,0.010726925069443283,"{26: 1, 28: 1, 42: 3, 7: 1}","[7, 26, 28, 42]",71261281423,Fe1Ni1Mo3N1
Fe3NiN,mp-567703,0.0,6.13814878,0.026355179500001213,"{26: 3, 28: 1, 7: 1}","[7, 26, 28]",71263281,Fe3Ni1N1
CoNiN,mp-1246020,0.0,5.54761127,0.09359233350000018,"{27: 1, 28: 1, 7: 1}","[7, 27, 28]",71271281,Co1Ni1N1
NiN,mp-13116,0.0,6.15803531,0.2928490616666668,"{28: 1, 7: 1}","[7, 28]",71281,Ni1N1
RbNiN,mp-1246401,0.06899999999999995,3.14544864,0.15279701222222197,"{37: 1, 28: 1, 7: 1}","[7, 28, 37]",71281371,Rb1Ni1N1
SrNiN,mp-21524,0.0,4.13815414,0.0,"{38: 1, 28: 1, 7: 1}","[7, 28, 38]",71281381,Sr1Ni1N1
CsNiN,mp-1245581,0.015900000000000247,4.08124955,0.18057916879310376,"{55: 1, 28: 1, 7: 1}","[7, 28, 55]",71281551,Cs1Ni1N1
BaNiN,mp-21653,0.0,3.97504038,0.0,"{56: 1, 28: 1, 7: 1}","[7, 28, 56]",71281561,Ba1Ni1N1
NiW3N,mp-1210158,0.0,7.98716684,0.19975045849999873,"{28: 1, 74: 3, 7: 1}","[7, 28, 74]",71281743,Ni1W3N1
LaNi2AsN,mp-1078408,0.0,8.60587084,0.0,"{57: 1, 28: 2, 33: 1, 7: 1}","[7, 28, 33, 57]",71282331571,La1Ni2As1N1
Zr4Ni2N,mp-1194181,0.0,5.46603972,0.009472637499998271,"{40: 4, 28: 2, 7: 1}","[7, 28, 40]",71282404,Zr4Ni2N1
K5YNi2(NO2)12,mp-687239,1.1364,1.17606972,0.2124050709516947,"{19: 5, 39: 1, 28: 2, 7: 12, 8: 24}","[7, 8, 19, 28, 39]",712824195282391,K5Y1Ni2N12O24
K5CeNi2(NO2)12,mp-704967,0.0,1.17645197,0.23712834096590285,"{19: 5, 58: 1, 28: 2, 7: 12, 8: 24}","[7, 8, 19, 28, 58]",712824195282581,K5Ce1Ni2N12O24
Ni2Mo3N,mp-4091,0.0,8.50146514,0.0,"{28: 2, 42: 3, 7: 1}","[7, 28, 42]",71282423,Ni2Mo3N1
Ni2Mo4N,mp-644742,0.0,8.66312049,0.033453543214283954,"{28: 2, 42: 4, 7: 1}","[7, 28, 42]",71282424,Ni2Mo4N1
Rb5CeNi2(NO2)12,mp-557781,0.010099999999999998,1.79669699,0.2394417832670479,"{37: 5, 58: 1, 28: 2, 7: 12, 8: 24}","[7, 8, 28, 37, 58]",712824282375581,Rb5Ce1Ni2N12O24
Cs5CeNi2(NO2)12,mp-704975,0.0,1.12476935,0.2548144752272661,"{55: 5, 58: 1, 28: 2, 7: 12, 8: 24}","[7, 8, 28, 55, 58]",712824282555581,Cs5Ce1Ni2N12O24
CeTl5Ni2(NO2)12,mp-559686,0.8561999999999999,2.82738854,0.2073042846590889,"{58: 1, 81: 5, 28: 2, 7: 12, 8: 24}","[7, 8, 28, 58, 81]",712824282581815,Ce1Tl5Ni2N12O24
Ta4Ni2N,mp-1192944,0.0,6.77300224,0.0,"{73: 4, 28: 2, 7: 1}","[7, 28, 73]",71282734,Ta4Ni2N1
Ni2W3N,mp-505341,0.0,7.79831616,0.0033882640277802523,"{28: 2, 74: 3, 7: 1}","[7, 28, 74]",71282743,Ni2W3N1
Ni3N,mp-2033,0.0,8.15671476,0.014724856562498445,"{28: 3, 7: 1}","[7, 28]",71283,Ni3N1
CuNi3N,mp-1017556,0.0,7.36332091,0.0,"{29: 1, 28: 3, 7: 1}","[7, 28, 29]",71283291,Cu1Ni3N1
ZnNi3N,mp-1069270,0.0,6.68338461,0.0,"{30: 1, 28: 3, 7: 1}","[7, 28, 30]",71283301,Zn1Ni3N1
Ni3Mo3N,mp-581805,0.0,8.54284869,0.03803026732142989,"{28: 3, 42: 3, 7: 1}","[7, 28, 42]",71283423,Ni3Mo3N1
CdNi3N,mp-1017554,0.0,6.53208381,0.0,"{48: 1, 28: 3, 7: 1}","[7, 28, 48]",71283481,Cd1Ni3N1
InNi3N,mp-1070713,0.0,9.23455726,0.0,"{49: 1, 28: 3, 7: 1}","[7, 28, 49]",71283491,In1Ni3N1
Ni3SnN,mp-1017632,0.0,9.73841432,0.08049442424999942,"{28: 3, 50: 1, 7: 1}","[7, 28, 50]",71283501,Ni3Sn1N1
Ni3SbN,mp-1247483,0.0,9.4794673,0.12410287833333378,"{28: 3, 51: 1, 7: 1}","[7, 28, 51]",71283511,Ni3Sb1N1
Ni4N,mp-1094090,0.0,7.57784117,0.06668797600000076,"{28: 4, 7: 1}","[7, 28]",71284,Ni4N1
Hf8Ni4N,mp-1224613,0.0,5.82588119,0.01339402500000375,"{72: 8, 28: 4, 7: 1}","[7, 28, 72]",71284728,Hf8Ni4N1
CeNi2N17O24,mp-1196766,0.0,0.92255246,0.8238660985227311,"{58: 1, 28: 2, 7: 17, 8: 24}","[7, 8, 28, 58]",717824282581,Ce1Ni2N17O24
NiPNO10,mp-1211010,0.0,-1.61825919,0.8231184289423075,"{28: 1, 15: 1, 7: 1, 8: 10}","[7, 8, 15, 28]",71810151281,Ni1P1N1O10
NiPNO5,mp-1210409,0.3852,1.16953588,0.2616143437500007,"{28: 1, 15: 1, 7: 1, 8: 5}","[7, 8, 15, 28]",7185151281,Ni1P1N1O5
NiP3NO9,mp-720476,0.0,-1.04753036,0.44419193428571013,"{28: 1, 15: 3, 7: 1, 8: 9}","[7, 8, 15, 28]",7189153281,Ni1P3N1O9
NiAs3NF18,mp-1211733,0.0,-3.85517713,0.2355336856884067,"{28: 1, 33: 3, 7: 1, 9: 18}","[7, 9, 28, 33]",71918281333,Ni1As3N1F18
NiNF3,mp-1192886,0.0,-1.36295782,1.1696633233333316,"{28: 1, 7: 1, 9: 3}","[7, 9, 28]",7193281,Ni1N1F3
Na3NiN2,mp-1246240,0.0,1.88746977,0.2083601762021079,"{11: 3, 28: 1, 7: 2}","[7, 11, 28]",72113281,Na3Ni1N2
Mg(NiN)2,mp-1233322,0.0,4.310883,0.33011681358333256,"{12: 1, 28: 2, 7: 2}","[7, 12, 28]",72121282,Mg1Ni2N2
Mg2NiN2,mp-1397348,0.0,5.14385153,0.08560133616666654,"{12: 2, 28: 1, 7: 2}","[7, 12, 28]",72122281,Mg2Ni1N2
SiNiN2,mp-1245962,0.15729999999999933,7.34153689,0.21419235333333475,"{14: 1, 28: 1, 7: 2}","[7, 14, 28]",72141281,Si1Ni1N2
Ca(NiN)2,mp-1428795,0.0,3.66499801,0.3744327470000002,"{20: 1, 28: 2, 7: 2}","[7, 20, 28]",72201282,Ca1Ni2N2
Ca2NiN2,mp-1385921,0.0,4.38954255,0.07766859637499834,"{20: 2, 28: 1, 7: 2}","[7, 20, 28]",72202281,Ca2Ni1N2
VNiN2,mp-1245731,0.0,8.09270953,0.3417600720833338,"{23: 1, 28: 1, 7: 2}","[7, 23, 28]",72231281,V1Ni1N2
V2NiN2,mp-1245760,0.0,8.19975596,0.15597422399999417,"{23: 2, 28: 1, 7: 2}","[7, 23, 28]",72232281,V2Ni1N2
CrNiN2,mp-1245595,0.0,8.60887043,0.26409033333333554,"{24: 1, 28: 1, 7: 2}","[7, 24, 28]",72241281,Cr1Ni1N2
Cr2NiN2,mp-1246927,0.0,7.82188048,0.151785730499995,"{24: 2, 28: 1, 7: 2}","[7, 24, 28]",72242281,Cr2Ni1N2
MnNiN2,mp-1245706,0.0,6.69881493,0.06857953208333356,"{25: 1, 28: 1, 7: 2}","[7, 25, 28]",72251281,Mn1Ni1N2
Mn(NiN)2,mp-1245849,0.0,6.89262215,0.2410115428333306,"{25: 1, 28: 2, 7: 2}","[7, 25, 28]",72251282,Mn1Ni2N2
Mn2NiN2,mp-1246609,0.0,7.38966181,0.03854832699999733,"{25: 2, 28: 1, 7: 2}","[7, 25, 28]",72252281,Mn2Ni1N2
FeNi3(Mo3N)2,mp-1225439,0.0,8.36745034,0.008871205868054233,"{26: 1, 28: 3, 42: 6, 7: 2}","[7, 26, 28, 42]",72261283426,Fe1Ni3Mo6N2
Fe2NiN2,mp-1246537,0.0,5.86673778,0.16850257399999613,"{26: 2, 28: 1, 7: 2}","[7, 26, 28]",72262281,Fe2Ni1N2
Fe3Ni(Mo3N)2,mp-1225027,0.0,7.88866753,0.003204065520836963,"{26: 3, 28: 1, 42: 6, 7: 2}","[7, 26, 28, 42]",72263281426,Fe3Ni1Mo6N2