formula,material_id,band_gap,efermi,energy_above_hull,comp_atoms,sorted_keys_comp_atoms,comp_number,new_formula
Ti3Al2NiO,mp-542029,0.0,7.64609387,0.24104272985714736,"{22: 3, 13: 2, 28: 1, 8: 1}","[8, 13, 22, 28]",81132223281,Ti3Al2Ni1O1
LaNiPO,mp-1079685,0.0,7.8593051,0.4691000865876509,"{57: 1, 28: 1, 15: 1, 8: 1}","[8, 15, 28, 57]",81151281571,La1Ni1P1O1
La2NiP2O,mp-1211574,0.0,4.49995711,1.9267562368402782,"{57: 2, 28: 1, 15: 2, 8: 1}","[8, 15, 28, 57]",81152281572,La2Ni1P2O1
U2Ni2O11F12,mp-1217729,0.0,-0.43343382,0.514047222777779,"{92: 2, 28: 2, 8: 11, 9: 12}","[8, 9, 28, 92]",811912282922,U2Ni2O11F12
NaNi4(PO4)3,mp-21966,3.7351999999999994,2.29089563,0.016282597250006248,"{11: 1, 28: 4, 15: 3, 8: 12}","[8, 11, 15, 28]",812111153284,Na1Ni4P3O12
NaLa(NiO3)4,mp-1522197,0.0,1.86316979,0.4461043510648075,"{11: 1, 57: 1, 28: 4, 8: 12}","[8, 11, 28, 57]",812111284571,Na1La1Ni4O12
NaPr(NiO3)4,mp-1520326,0.0,1.10094323,0.4551208646759264,"{11: 1, 59: 1, 28: 4, 8: 12}","[8, 11, 28, 59]",812111284591,Na1Pr1Ni4O12
NaNd(NiO3)4,mp-1522005,0.0,1.18262223,0.4419848050925861,"{11: 1, 60: 1, 28: 4, 8: 12}","[8, 11, 28, 60]",812111284601,Na1Nd1Ni4O12
NaSm(NiO3)4,mp-1517530,0.0,1.17190872,0.4454637868981406,"{11: 1, 62: 1, 28: 4, 8: 12}","[8, 11, 28, 62]",812111284621,Na1Sm1Ni4O12
NaEu(NiO3)4,mp-1521314,0.0,1.47492516,0.4177596838657385,"{11: 1, 63: 1, 28: 4, 8: 12}","[8, 11, 28, 63]",812111284631,Na1Eu1Ni4O12
Na2FeNi2(PO4)3,mp-1197871,0.0,2.89724609,0.013494945708327322,"{11: 2, 26: 1, 28: 2, 15: 3, 8: 12}","[8, 11, 15, 26, 28]",812112153261282,Na2Fe1Ni2P3O12
Na2Fe2Ni(PO4)3,mp-1210544,0.3422999999999998,3.92855199,0.017626024625019276,"{11: 2, 26: 2, 28: 1, 15: 3, 8: 12}","[8, 11, 15, 26, 28]",812112153262281,Na2Fe2Ni1P3O12
Na2Ni(SO6)2,mp-1210784,0.01539999999999997,-0.98798948,0.38140657441176096,"{11: 2, 28: 1, 16: 2, 8: 12}","[8, 11, 16, 28]",812112162281,Na2Ni1S2O12
Na3ZrNi(PO4)3,mp-532552,3.7976,1.3922427,0.013203921125003681,"{11: 3, 40: 1, 28: 1, 15: 3, 8: 12}","[8, 11, 15, 28, 40]",812113153281401,Na3Zr1Ni1P3O12
Na3Ni2(GeO4)3,mp-1013808,0.0,1.42114671,0.16687813818749664,"{11: 3, 28: 2, 32: 3, 8: 12}","[8, 11, 28, 32]",812113282323,Na3Ni2Ge3O12
Na3Ni7O12,mp-765715,0.0,3.4618074,0.042565021287869875,"{11: 3, 28: 7, 8: 12}","[8, 11, 28]",812113287,Na3Ni7O12
Na4FeNi(PO4)3,mp-1221201,2.1249000000000002,4.04690789,0.00897857511905542,"{11: 4, 26: 1, 28: 1, 15: 3, 8: 12}","[8, 11, 15, 26, 28]",812114153261281,Na4Fe1Ni1P3O12
Na5(NiO2)6,mp-765679,0.0,3.21736874,0.005556422717371667,"{11: 5, 28: 6, 8: 12}","[8, 11, 28]",812115286,Na5Ni6O12
Na6MnNi3(SbO6)2,mp-1094109,1.4660000000000002,4.48887092,0.004593663333328557,"{11: 6, 25: 1, 28: 3, 51: 2, 8: 12}","[8, 11, 25, 28, 51]",812116251283512,Na6Mn1Ni3Sb2O12
MgTiNi(PO4)3,mp-1044226,0.0,1.48573288,0.049854460733031125,"{12: 1, 22: 1, 28: 1, 15: 3, 8: 12}","[8, 12, 15, 22, 28]",812121153221281,Mg1Ti1Ni1P3O12
MgNi(PO3)4,mp-1045786,4.3173,1.40582199,0.0,"{12: 1, 28: 1, 15: 4, 8: 12}","[8, 12, 15, 28]",812121154281,Mg1Ni1P4O12
MgTi4MnZnNiO12,mp-1222066,2.3451000000000004,3.51785097,0.010943502500001756,"{12: 1, 22: 4, 25: 1, 30: 1, 28: 1, 8: 12}","[8, 12, 22, 25, 28, 30]",812121224251281301,Mg1Ti4Mn1Zn1Ni1O12
MgMnV4NiO12,mp-2231564,1.5634000000000001,1.16125574,0.149670780175434,"{12: 1, 25: 1, 23: 4, 28: 1, 8: 12}","[8, 12, 23, 25, 28]",812121234251281,Mg1Mn1V4Ni1O12
MgV4FeNiO12,mp-2231114,1.8148,1.75012688,0.11162043622806195,"{12: 1, 23: 4, 26: 1, 28: 1, 8: 12}","[8, 12, 23, 26, 28]",812121234261281,Mg1V4Fe1Ni1O12
MgV4CoNiO12,mp-2230429,1.4109000000000003,2.02616155,0.12460295969297075,"{12: 1, 23: 4, 27: 1, 28: 1, 8: 12}","[8, 12, 23, 27, 28]",812121234271281,Mg1V4Co1Ni1O12
MgV4(NiO6)2,mp-1233433,1.9213000000000002,1.75046583,0.10894883087717844,"{12: 1, 23: 4, 28: 2, 8: 12}","[8, 12, 23, 28]",812121234282,Mg1V4Ni2O12
MgMn4(NiO6)2,mp-2231728,0.38959999999999995,1.90169458,0.1152175307675476,"{12: 1, 25: 4, 28: 2, 8: 12}","[8, 12, 25, 28]",812121254282,Mg1Mn4Ni2O12
MgMn5NiO12,mp-2230395,0.29600000000000004,2.18540264,0.12588734107456023,"{12: 1, 25: 5, 28: 1, 8: 12}","[8, 12, 25, 28]",812121255281,Mg1Mn5Ni1O12
MgCo4(NiO6)2,mp-2230302,0.7953000000000001,1.91224746,0.10418732447368928,"{12: 1, 27: 4, 28: 2, 8: 12}","[8, 12, 27, 28]",812121274282,Mg1Co4Ni2O12
MgCo5NiO12,mp-2230392,0.0,1.83904739,0.09476830828946703,"{12: 1, 27: 5, 28: 1, 8: 12}","[8, 12, 27, 28]",812121275281,Mg1Co5Ni1O12
Sr4MgRe2NiO12,mp-2230175,0.0,4.62956096,0.13352038803332356,"{38: 4, 12: 1, 75: 2, 28: 1, 8: 12}","[8, 12, 28, 38, 75]",812121281384752,Sr4Mg1Re2Ni1O12
MgNi(TeO3)4,mp-2229023,1.5113999999999992,4.2027356,0.10679072305556225,"{12: 1, 28: 1, 52: 4, 8: 12}","[8, 12, 28, 52]",812121281524,Mg1Ni1Te4O12
MgNb4(NiO6)2,mp-2230342,0.0,4.60722453,0.25820814973684314,"{12: 1, 41: 4, 28: 2, 8: 12}","[8, 12, 28, 41]",812121282414,Mg1Nb4Ni2O12
MgNi2(SbO3)4,mp-2230390,0.3304,6.29625807,0.18656543046053553,"{12: 1, 28: 2, 51: 4, 8: 12}","[8, 12, 28, 51]",812121282514,Mg1Ni2Sb4O12
MgNi2(BiO3)4,mp-2230926,0.0,4.37600701,0.1616887967105285,"{12: 1, 28: 2, 83: 4, 8: 12}","[8, 12, 28, 83]",812121282834,Mg1Ni2Bi4O12
La4MgNi3WO12,mp-1233059,1.0431999999999997,7.61936591,0.4518877746428549,"{57: 4, 12: 1, 28: 3, 74: 1, 8: 12}","[8, 12, 28, 57, 74]",812121283574741,La4Mg1Ni3W1O12
MgCu3(NiO3)4,mp-1043183,0.0,4.23493108,0.08930601305208352,"{12: 1, 29: 3, 28: 4, 8: 12}","[8, 12, 28, 29]",812121284293,Mg1Cu3Ni4O12
PrMg(NiO3)4,mp-1520134,0.0,1.99453952,0.364823128256174,"{59: 1, 12: 1, 28: 4, 8: 12}","[8, 12, 28, 59]",812121284591,Pr1Mg1Ni4O12
MgTl4(NiO3)4,mp-2216107,0.13229999999999986,4.44127127,0.1835539292857158,"{12: 1, 81: 4, 28: 4, 8: 12}","[8, 12, 28, 81]",812121284814,Mg1Tl4Ni4O12
Mg3Si3(NiO6)2,mp-1154758,0.08190000000000008,4.23159531,0.1065988117916623,"{12: 3, 14: 3, 28: 2, 8: 12}","[8, 12, 14, 28]",812123143282,Mg3Si3Ni2O12
Mg3Ni2(GeO4)3,mp-1364008,0.18109999999999982,2.98474612,0.11312530025000012,"{12: 3, 28: 2, 32: 3, 8: 12}","[8, 12, 28, 32]",812123282323,Mg3Ni2Ge3O12
Ba2Mg3Tl2(NiO3)4,mp-1813181,0.0,5.22585051,0.359705259456522,"{56: 2, 12: 3, 81: 2, 28: 4, 8: 12}","[8, 12, 28, 56, 81]",812123284562812,Ba2Mg3Tl2Ni4O12
AlCu3(NiO3)4,mp-1045829,0.0,4.89436856,0.24666420526231114,"{13: 1, 29: 3, 28: 4, 8: 12}","[8, 13, 28, 29]",812131284293,Al1Cu3Ni4O12
Al2Si3(NiO4)3,mp-1157674,3.5607999999999995,4.71838129,0.10958299354167966,"{13: 2, 14: 3, 28: 3, 8: 12}","[8, 13, 14, 28]",812132143283,Al2Si3Ni3O12
Al4(NiO4)3,mp-1248275,0.0,3.22123395,0.20930701220095838,"{13: 4, 28: 3, 8: 12}","[8, 13, 28]",812134283,Al4Ni3O12
Al5(NiO4)3,mp-1380716,0.0,4.75195954,0.15726729504545922,"{13: 5, 28: 3, 8: 12}","[8, 13, 28]",812135283,Al5Ni3O12
Ca3Si3(NiO6)2,mp-1154587,0.01429999999999998,3.10974454,0.04990384079167942,"{20: 3, 14: 3, 28: 2, 8: 12}","[8, 14, 20, 28]",812143203282,Ca3Si3Ni2O12
Zn3Si3(NiO6)2,mp-1257835,0.009999999999999787,3.48553971,0.1663675519166672,"{30: 3, 14: 3, 28: 2, 8: 12}","[8, 14, 28, 30]",812143282303,Zn3Si3Ni2O12
Y2Si3(NiO4)3,mp-1363993,3.0365,3.1633667,0.2669327252916798,"{39: 2, 14: 3, 28: 3, 8: 12}","[8, 14, 28, 39]",812143283392,Y2Si3Ni3O12
CaSi4(NiO6)2,mp-1264011,0.0,2.56626173,0.12069499736842726,"{20: 1, 14: 4, 28: 2, 8: 12}","[8, 14, 20, 28]",812144201282,Ca1Si4Ni2O12
Ca2CoSi4NiO12,mp-1227451,2.9093000000000004,3.74348047,0.0086649005416648,"{20: 2, 27: 1, 14: 4, 28: 1, 8: 12}","[8, 14, 20, 27, 28]",812144202271281,Ca2Co1Si4Ni1O12
Rb2Si5NiO12,mp-1195212,3.8397,1.25086395,0.007350970930545486,"{37: 2, 14: 5, 28: 1, 8: 12}","[8, 14, 28, 37]",812145281372,Rb2Si5Ni1O12
KNi4(PO4)3,mp-21957,3.5552,2.17120567,0.0,"{19: 1, 28: 4, 15: 3, 8: 12}","[8, 15, 19, 28]",812153191284,K1Ni4P3O12
CaTiNi(PO4)3,mp-1044432,0.0,1.1829096,0.04002045026852574,"{20: 1, 22: 1, 28: 1, 15: 3, 8: 12}","[8, 15, 20, 22, 28]",812153201221281,Ca1Ti1Ni1P3O12
TiZnNi(PO4)3,mp-1044366,0.0,1.28990871,0.06322300342593579,"{22: 1, 30: 1, 28: 1, 15: 3, 8: 12}","[8, 15, 22, 28, 30]",812153221281301,Ti1Zn1Ni1P3O12
Ti2Ni(PO4)3,mp-771314,0.15839999999999943,4.8959867,0.04697680861111131,"{22: 2, 28: 1, 15: 3, 8: 12}","[8, 15, 22, 28]",812153222281,Ti2Ni1P3O12
V2Ni(PO4)3,mp-772873,0.0,3.1473209,0.016296678472251358,"{23: 2, 28: 1, 15: 3, 8: 12}","[8, 15, 23, 28]",812153232281,V2Ni1P3O12
Mn2Ni(PO4)3,mp-759483,0.0,2.11451503,0.038454545138892016,"{25: 2, 28: 1, 15: 3, 8: 12}","[8, 15, 25, 28]",812153252281,Mn2Ni1P3O12
SrFeNi2(PO4)3,mp-1195488,1.4127,2.25731658,0.0,"{38: 1, 26: 1, 28: 2, 15: 3, 8: 12}","[8, 15, 26, 28, 38]",812153261282381,Sr1Fe1Ni2P3O12
Fe2Ni(PO4)3,mp-774420,0.0,1.09325305,0.04991410374997951,"{26: 2, 28: 1, 15: 3, 8: 12}","[8, 15, 26, 28]",812153262281,Fe2Ni1P3O12
Ni4(PO4)3,mp-26512,0.0,3.45492942,0.041789096710521,"{28: 4, 15: 3, 8: 12}","[8, 15, 28]",812153284,Ni4P3O12
RbNi4(PO4)3,mp-1203865,3.8278,2.06450427,0.0,"{37: 1, 28: 4, 15: 3, 8: 12}","[8, 15, 28, 37]",812153284371,Rb1Ni4P3O12
TlNi4(PO4)3,mp-705059,2.4552000000000005,2.81305232,0.04106163643749472,"{81: 1, 28: 4, 15: 3, 8: 12}","[8, 15, 28, 81]",812153284811,Tl1Ni4P3O12
K2Ni(PO3)4,mp-1211887,4.734500000000001,5.05510854,0.01873619210526467,"{19: 2, 28: 1, 15: 4, 8: 12}","[8, 15, 19, 28]",812154192281,K2Ni1P4O12
CaNi(PO3)4,mp-1045813,4.1007,0.78521191,0.0,"{20: 1, 28: 1, 15: 4, 8: 12}","[8, 15, 20, 28]",812154201281,Ca1Ni1P4O12
CoNi(PO3)4,mp-540947,3.2203000000000004,1.8696322,0.02487417384259949,"{27: 1, 28: 1, 15: 4, 8: 12}","[8, 15, 27, 28]",812154271281,Co1Ni1P4O12
Ni(PO3)4,mp-26686,0.0,-1.36750646,0.09746538161765006,"{28: 1, 15: 4, 8: 12}","[8, 15, 28]",812154281,Ni1P4O12
ZnNi(PO3)4,mp-540948,0.3511000000000002,2.1640981,0.011430313611104026,"{30: 1, 28: 1, 15: 4, 8: 12}","[8, 15, 28, 30]",812154281301,Zn1Ni1P4O12
CdNi(PO3)4,mp-1213935,0.04299999999999993,1.88543342,0.0,"{48: 1, 28: 1, 15: 4, 8: 12}","[8, 15, 28, 48]",812154281481,Cd1Ni1P4O12
Ni(SO6)2,mp-1104484,0.8359999999999999,-2.74522252,0.646642703388892,"{28: 1, 16: 2, 8: 12}","[8, 16, 28]",812162281,Ni1S2O12
K2Ni2(SO4)3,mp-15598,3.5401,1.24245079,0.018193195921049288,"{19: 2, 28: 2, 16: 3, 8: 12}","[8, 16, 19, 28]",812163192282,K2Ni2S3O12
Ni2(SO4)3,mp-768504,0.0087,0.05343123,0.011886969460792152,"{28: 2, 16: 3, 8: 12}","[8, 16, 28]",812163282,Ni2S3O12
Rb2Ni2(SO4)3,mp-1209582,4.0383,1.10556692,0.0,"{37: 2, 28: 2, 16: 3, 8: 12}","[8, 16, 28, 37]",812163282372,Rb2Ni2S3O12
Ni(ClO6)2,mp-1210045,0.011200000000000099,-1.16835842,0.7164524478333316,"{28: 1, 17: 2, 8: 12}","[8, 17, 28]",812172281,Ni1Cl2O12
Ni5Se4(ClO6)2,mp-1194971,3.1026000000000002,1.65823638,0.0,"{28: 5, 34: 4, 17: 2, 8: 12}","[8, 17, 28, 34]",812172285344,Ni5Se4Cl2O12
Ni5Te4(ClO6)2,mp-555161,3.0399999999999996,6.26800506,0.001495469855073317,"{28: 5, 52: 4, 17: 2, 8: 12}","[8, 17, 28, 52]",812172285524,Ni5Te4Cl2O12
Cd2Ni(ClO2)6,mp-1182834,0.11419999999999986,-1.58323903,0.564785320765306,"{48: 2, 28: 1, 17: 6, 8: 12}","[8, 17, 28, 48]",812176281482,Cd2Ni1Cl6O12
KLa(NiO3)4,mp-1522011,0.0,1.55799776,0.43262685680555624,"{19: 1, 57: 1, 28: 4, 8: 12}","[8, 19, 28, 57]",812191284571,K1La1Ni4O12
KPr(NiO3)4,mp-1520250,0.0,0.89939078,0.4308486487500014,"{19: 1, 59: 1, 28: 4, 8: 12}","[8, 19, 28, 59]",812191284591,K1Pr1Ni4O12
KNd(NiO3)4,mp-1516468,0.0,0.91900209,0.4312335636111122,"{19: 1, 60: 1, 28: 4, 8: 12}","[8, 19, 28, 60]",812191284601,K1Nd1Ni4O12
KSm(NiO3)4,mp-1522205,0.0,1.02377345,0.43486943208333173,"{19: 1, 62: 1, 28: 4, 8: 12}","[8, 19, 28, 62]",812191284621,K1Sm1Ni4O12
KEu(NiO3)4,mp-1516409,0.0,0.99093311,0.73707395238426,"{19: 1, 63: 1, 28: 4, 8: 12}","[8, 19, 28, 63]",812191284631,K1Eu1Ni4O12
K2Ni2(MoO4)3,mp-556279,3.2782,0.04120432,0.0,"{19: 2, 28: 2, 42: 3, 8: 12}","[8, 19, 28, 42]",812192282423,K2Ni2Mo3O12
CaV4(NiO6)2,mp-1233707,0.0,3.01739326,0.10561042710523516,"{20: 1, 23: 4, 28: 2, 8: 12}","[8, 20, 23, 28]",812201234282,Ca1V4Ni2O12
Sr3CaNi2(WO6)2,mp-1218601,0.0,4.52122652,0.008596162499990179,"{38: 3, 20: 1, 28: 2, 74: 2, 8: 12}","[8, 20, 28, 38, 74]",812201282383742,Sr3Ca1Ni2W2O12
CaLa4Ni3WO12,mp-1233168,1.157,6.75978602,0.501033702142851,"{20: 1, 57: 4, 28: 3, 74: 1, 8: 12}","[8, 20, 28, 57, 74]",812201283574741,Ca1La4Ni3W1O12
CaCu3(NiO3)4,mp-1043133,0.0,4.05106188,0.051605588052084705,"{20: 1, 29: 3, 28: 4, 8: 12}","[8, 20, 28, 29]",812201284293,Ca1Cu3Ni4O12
SrCa(NiO3)4,mp-1519064,0.0,1.37589914,0.41048703337963044,"{38: 1, 20: 1, 28: 4, 8: 12}","[8, 20, 28, 38]",812201284381,Sr1Ca1Ni4O12
BaCa(NiO3)4,mp-1522623,0.0,1.05244291,0.43615966259258876,"{56: 1, 20: 1, 28: 4, 8: 12}","[8, 20, 28, 56]",812201284561,Ba1Ca1Ni4O12
CaSm(NiO3)4,mp-1518841,0.0,1.7994477,0.40903499675926014,"{20: 1, 62: 1, 28: 4, 8: 12}","[8, 20, 28, 62]",812201284621,Ca1Sm1Ni4O12
CaEu(NiO3)4,mp-1516746,0.0,2.5963326,0.49674017372684975,"{20: 1, 63: 1, 28: 4, 8: 12}","[8, 20, 28, 63]",812201284631,Ca1Eu1Ni4O12
CaDy(NiO3)4,mp-1520698,0.0,1.84252656,0.4114957763425906,"{20: 1, 66: 1, 28: 4, 8: 12}","[8, 20, 28, 66]",812201284661,Ca1Dy1Ni4O12
CaTl4(NiO3)4,mp-1234886,0.0,4.219592,0.2178744844047591,"{20: 1, 81: 4, 28: 4, 8: 12}","[8, 20, 28, 81]",812201284814,Ca1Tl4Ni4O12
Ca2V3Ni2AgO12,mp-705890,1.79,2.63936867,0.0,"{20: 2, 23: 3, 28: 2, 47: 1, 8: 12}","[8, 20, 23, 28, 47]",812202233282471,Ca2V3Ni2Ag1O12
Ca3V3(NiO6)2,mp-1214162,0.0,4.44096596,0.016310698053591643,"{20: 3, 23: 3, 28: 2, 8: 12}","[8, 20, 23, 28]",812203233282,Ca3V3Ni2O12
Ca3Ni2(GeO4)3,mp-1327823,0.2915000000000001,2.17306882,0.05074558583333744,"{20: 3, 28: 2, 32: 3, 8: 12}","[8, 20, 28, 32]",812203282323,Ca3Ni2Ge3O12
Ca3Ni2(WO6)2,mp-1341945,0.0,2.12325923,0.10572850061403205,"{20: 3, 28: 2, 74: 2, 8: 12}","[8, 20, 28, 74]",812203282742,Ca3Ni2W2O12
Ba2Ca3Tl2(NiO3)4,mp-1048352,0.0,4.05719384,0.19530031010869653,"{56: 2, 20: 3, 81: 2, 28: 4, 8: 12}","[8, 20, 28, 56, 81]",812203284562812,Ba2Ca3Tl2Ni4O12
Ca5Mn2(NiO6)2,mp-1329093,0.0,2.33417727,0.10402516694444142,"{20: 5, 25: 2, 28: 2, 8: 12}","[8, 20, 25, 28]",812205252282,Ca5Mn2Ni2O12
Ca7Ni(IrO6)2,mp-1227125,0.08660000000000068,4.57264385,0.041106248409091606,"{20: 7, 28: 1, 77: 2, 8: 12}","[8, 20, 28, 77]",812207281772,Ca7Ni1Ir2O12
Ti3NiBi2(PbO6)2,mp-1217509,2.6568000000000005,4.8027651,0.03492545187500529,"{22: 3, 28: 1, 83: 2, 82: 2, 8: 12}","[8, 22, 28, 82, 83]",812223281822832,Ti3Ni1Bi2Pb2O12
Ti3Ni3O,mp-504735,0.0,7.61281968,0.9884646457142878,"{22: 3, 28: 3, 8: 1}","[8, 22, 28]",81223283,Ti3Ni3O1
V4CrNiO12,mp-1101260,0.0,1.92860313,0.07364775597224771,"{23: 4, 24: 1, 28: 1, 8: 12}","[8, 23, 24, 28]",812234241281,V4Cr1Ni1O12
MnV4NiO12,mp-850419,1.8069000000000002,0.30539013,0.011078162777776512,"{25: 1, 23: 4, 28: 1, 8: 12}","[8, 23, 25, 28]",812234251281,Mn1V4Ni1O12
V4FeNiO12,mp-756937,0.0,1.49831665,0.025824441597229963,"{23: 4, 26: 1, 28: 1, 8: 12}","[8, 23, 26, 28]",812234261281,V4Fe1Ni1O12
V4CoNiO12,mp-755989,2.1736,0.29686818,0.023110303333332638,"{23: 4, 27: 1, 28: 1, 8: 12}","[8, 23, 27, 28]",812234271281,V4Co1Ni1O12
V4CuNiO12,mp-756167,1.9302000000000001,0.56144608,0.016889661944445855,"{23: 4, 29: 1, 28: 1, 8: 12}","[8, 23, 28, 29]",812234281291,V4Cu1Ni1O12
Ti4Ni2O,mp-540679,0.0,6.96945899,0.5456275028571422,"{22: 4, 28: 2, 8: 1}","[8, 22, 28]",81224282,Ti4Ni2O1
Zr12Ti4Ni8O,mp-1215809,0.0,5.53282674,0.7853147650999972,"{40: 12, 22: 4, 28: 8, 8: 1}","[8, 22, 28, 40]",812242884012,Zr12Ti4Ni8O1
Cr3(NiO6)2,mp-776211,0.0,-0.94320291,0.0936985252058804,"{24: 3, 28: 2, 8: 12}","[8, 24, 28]",812243282,Cr3Ni2O12
La4Mn(NiO4)3,mp-1223093,0.16490000000000027,6.54312217,0.026036718158328753,"{57: 4, 25: 1, 28: 3, 8: 12}","[8, 25, 28, 57]",812251283574,La4Mn1Ni3O12
Nd4Mn(NiO4)3,mp-1220251,0.34399999999999986,4.09912847,0.0,"{60: 4, 25: 1, 28: 3, 8: 12}","[8, 25, 28, 60]",812251283604,Nd4Mn1Ni3O12
Y4Mn3NiO12,mp-1216205,0.5216000000000003,4.02996891,0.01556530066666717,"{39: 4, 25: 3, 28: 1, 8: 12}","[8, 25, 28, 39]",812253281394,Y4Mn3Ni1O12
La4Mn3NiO12,mp-1223131,0.09280000000000044,7.0703606,0.1447094679874965,"{57: 4, 25: 3, 28: 1, 8: 12}","[8, 25, 28, 57]",812253281574,La4Mn3Ni1O12
Nd4Mn3NiO12,mp-1220253,0.10139999999999993,4.52161637,0.0,"{60: 4, 25: 3, 28: 1, 8: 12}","[8, 25, 28, 60]",812253281604,Nd4Mn3Ni1O12
Mn4Zn3(NiO6)2,mp-1222033,0.3174000000000001,3.16661878,0.0,"{25: 4, 30: 3, 28: 2, 8: 12}","[8, 25, 28, 30]",812254282303,Mn4Zn3Ni2O12
Mn5NiO12,mp-755683,0.6309,0.75188957,0.0671666855092603,"{25: 5, 28: 1, 8: 12}","[8, 25, 28]",812255281,Mn5Ni1O12
La4Fe(NiO4)3,mp-1223166,0.0,6.75483383,0.002520555500000299,"{57: 4, 26: 1, 28: 3, 8: 12}","[8, 26, 28, 57]",812261283574,La4Fe1Ni3O12
Sr4Fe2CoNiO12,mp-1218583,0.0,2.73832984,0.03130777245833105,"{38: 4, 26: 2, 27: 1, 28: 1, 8: 12}","[8, 26, 27, 28, 38]",812262271281384,Sr4Fe2Co1Ni1O12
La4Fe3NiO12,mp-1223185,0.0,6.31837773,0.013610407999999907,"{57: 4, 26: 3, 28: 1, 8: 12}","[8, 26, 28, 57]",812263281574,La4Fe3Ni1O12
Co5NiO12,mp-773511,1.1427999999999998,0.62193236,0.03195729263888847,"{27: 5, 28: 1, 8: 12}","[8, 27, 28]",812275281,Co5Ni1O12
Ni(BrO6)2,mp-1210370,0.0,-0.69615272,0.5810258307777785,"{28: 1, 35: 2, 8: 12}","[8, 28, 35]",812281352,Ni1Br2O12
Sr4Re2NiO12,mp-32309,1.444,2.69801554,0.010615253824560966,"{38: 4, 75: 2, 28: 1, 8: 12}","[8, 28, 38, 75]",812281384752,Sr4Re2Ni1O12
Ni(TeO3)4,mp-757194,0.0,5.23832483,0.08677432411764929,"{28: 1, 52: 4, 8: 12}","[8, 28, 52]",812281524,Ni1Te4O12
Ba2La2Ni(WO6)2,mp-1228484,3.3023999999999996,4.17753583,0.04933012789474134,"{56: 2, 57: 2, 28: 1, 74: 2, 8: 12}","[8, 28, 56, 57, 74]",812281562572742,Ba2La2Ni1W2O12
Ba4Re2NiO12,mp-1228183,1.8907000000000003,2.18984871,0.0,"{56: 4, 75: 2, 28: 1, 8: 12}","[8, 28, 56, 75]",812281564752,Ba4Re2Ni1O12
Zn3Ni2(GeO4)3,mp-1325795,0.0817000000000001,2.41544143,0.1581112246249985,"{30: 3, 28: 2, 32: 3, 8: 12}","[8, 28, 30, 32]",812282303323,Zn3Ni2Ge3O12
Rb2Ni2(MoO4)3,mp-14529,3.3411999999999997,-0.00848981,0.09333031750000398,"{37: 2, 28: 2, 42: 3, 8: 12}","[8, 28, 37, 42]",812282372423,Rb2Ni2Mo3O12
Cs2Ni2(MoO4)3,mp-1203005,3.8074,0.29347133,0.005021090921062843,"{55: 2, 28: 2, 42: 3, 8: 12}","[8, 28, 42, 55]",812282423552,Cs2Ni2Mo3O12
Tl2Ni2(MoO4)3,mp-1208571,3.8078000000000003,0.71534721,0.0033472835526353606,"{81: 2, 28: 2, 42: 3, 8: 12}","[8, 28, 42, 81]",812282423812,Tl2Ni2Mo3O12
La4Ni3MoO12,mp-1223026,0.0,8.66663057,0.14680911662499962,"{57: 4, 28: 3, 42: 1, 8: 12}","[8, 28, 42, 57]",812283421574,La4Ni3Mo1O12
La4Ni3WO12,mp-1223132,0.0,8.83936124,0.15858442737499168,"{57: 4, 28: 3, 74: 1, 8: 12}","[8, 28, 57, 74]",812283574741,La4Ni3W1O12
La4Re(NiO4)3,mp-1223186,0.0,8.09779751,0.15276549568749864,"{57: 4, 75: 1, 28: 3, 8: 12}","[8, 28, 57, 75]",812283574751,La4Re1Ni3O12
Cu3(NiO3)4,mp-1043320,0.0,2.8908565,0.12473234867324567,"{29: 3, 28: 4, 8: 12}","[8, 28, 29]",812284293,Cu3Ni4O12
ZnCu3(NiO3)4,mp-1043132,0.0,3.91458323,0.11601212607291167,"{30: 1, 29: 3, 28: 4, 8: 12}","[8, 28, 29, 30]",812284293301,Zn1Cu3Ni4O12
YCu3(NiO3)4,mp-1045844,0.0,4.38744282,0.013494405302100887,"{39: 1, 29: 3, 28: 4, 8: 12}","[8, 28, 29, 39]",812284293391,Y1Cu3Ni4O12
Zn3Ni4(SbO6)2,mp-1216023,1.1224000000000007,4.3000772,0.0,"{30: 3, 28: 4, 51: 2, 8: 12}","[8, 28, 30, 51]",812284303512,Zn3Ni4Sb2O12
Ba2Tl2Zn3(NiO3)4,mp-1340134,0.0,3.52007637,0.19055362228260542,"{56: 2, 81: 2, 30: 3, 28: 4, 8: 12}","[8, 28, 30, 56, 81]",812284303562812,Ba2Tl2Zn3Ni4O12
BaSr(NiO3)4,mp-1523141,0.0,0.86020701,0.42244445958333365,"{56: 1, 38: 1, 28: 4, 8: 12}","[8, 28, 38, 56]",812284381561,Ba1Sr1Ni4O12
SrNd(NiO3)4,mp-1519262,0.0,1.56533547,0.37214363472222356,"{38: 1, 60: 1, 28: 4, 8: 12}","[8, 28, 38, 60]",812284381601,Sr1Nd1Ni4O12
SrSm(NiO3)4,mp-1518883,0.0,1.57623225,0.3797296609722247,"{38: 1, 62: 1, 28: 4, 8: 12}","[8, 28, 38, 62]",812284381621,Sr1Sm1Ni4O12
SrEu(NiO3)4,mp-1520067,0.0,3.39775261,0.6422318729398135,"{38: 1, 63: 1, 28: 4, 8: 12}","[8, 28, 38, 63]",812284381631,Sr1Eu1Ni4O12
SrDy(NiO3)4,mp-1516331,0.0,1.61511038,0.3986092761111104,"{38: 1, 66: 1, 28: 4, 8: 12}","[8, 28, 38, 66]",812284381661,Sr1Dy1Ni4O12
BaNd(NiO3)4,mp-1522925,0.0,1.39185216,0.3919253922685142,"{56: 1, 60: 1, 28: 4, 8: 12}","[8, 28, 56, 60]",812284561601,Ba1Nd1Ni4O12