formula,material_id,band_gap,efermi,energy_above_hull,comp_atoms,sorted_keys_comp_atoms,comp_number,new_formula
CsVNiF6,mp-1228899,2.3655,0.3894655,0.0,"{55: 1, 23: 1, 28: 1, 9: 6}","[9, 23, 28, 55]",96231281551,Cs1V1Ni1F6
CrNiF6,mp-690539,0.0,-1.42803346,0.0,"{24: 1, 28: 1, 9: 6}","[9, 24, 28]",96241281,Cr1Ni1F6
RbCrNiF6,mp-1219589,3.2279999999999998,-1.15442555,0.0,"{37: 1, 24: 1, 28: 1, 9: 6}","[9, 24, 28, 37]",96241281371,Rb1Cr1Ni1F6
CsCrNiF6,mp-1229022,3.2021,-0.81045073,0.0,"{55: 1, 24: 1, 28: 1, 9: 6}","[9, 24, 28, 55]",96241281551,Cs1Cr1Ni1F6
TlCrNiF6,mp-1216839,3.2459,-0.27090655,0.0,"{81: 1, 24: 1, 28: 1, 9: 6}","[9, 24, 28, 81]",96241281811,Tl1Cr1Ni1F6
Cs2MnNiF6,mp-1226311,3.9301,0.47436254,0.0,"{55: 2, 25: 1, 28: 1, 9: 6}","[9, 25, 28, 55]",96251281552,Cs2Mn1Ni1F6
CsFeNiF6,mp-1225937,2.6205,-0.6823877,0.0,"{55: 1, 26: 1, 28: 1, 9: 6}","[9, 26, 28, 55]",96261281551,Cs1Fe1Ni1F6
Fe3NiF6,mp-1237050,0.0,2.59171615,0.647698831499997,"{26: 3, 28: 1, 9: 6}","[9, 26, 28]",96263281,Fe3Ni1F6
RbCoNiF6,mp-1219591,0.9368999999999998,-1.15859192,0.0,"{37: 1, 27: 1, 28: 1, 9: 6}","[9, 27, 28, 37]",96271281371,Rb1Co1Ni1F6
CsCoNiF6,mp-1228915,1.4981,-0.99621847,0.0,"{55: 1, 27: 1, 28: 1, 9: 6}","[9, 27, 28, 55]",96271281551,Cs1Co1Ni1F6
Rb2CuNiF6,mp-1113474,0.0,0.63019233,0.028578445000004393,"{37: 2, 29: 1, 28: 1, 9: 6}","[9, 28, 29, 37]",96281291372,Rb2Cu1Ni1F6
CsCuNiF6,mp-1228931,0.0,-0.14477688,0.15752405166667494,"{55: 1, 29: 1, 28: 1, 9: 6}","[9, 28, 29, 55]",96281291551,Cs1Cu1Ni1F6
Cu3NiF6,mp-1238911,0.0,-1.35946839,0.14185649499999986,"{29: 3, 28: 1, 9: 6}","[9, 28, 29]",96281293,Cu3Ni1F6
ZnNiF6,mp-1391273,1.6071,-2.80756452,0.0,"{30: 1, 28: 1, 9: 6}","[9, 28, 30]",96281301,Zn1Ni1F6
CsZnNiF6,mp-1228774,0.0,-1.2218629,0.004482850555551643,"{55: 1, 30: 1, 28: 1, 9: 6}","[9, 28, 30, 55]",96281301551,Cs1Zn1Ni1F6
CsGaNiF6,mp-1225948,4.4905,-0.82516931,0.0,"{55: 1, 31: 1, 28: 1, 9: 6}","[9, 28, 31, 55]",96281311551,Cs1Ga1Ni1F6
Rb2NiF6,mp-556417,2.4215999999999998,-3.17595707,0.0,"{37: 2, 28: 1, 9: 6}","[9, 28, 37]",96281372,Rb2Ni1F6
Rb2NiAgF6,mp-1110604,0.0,-0.62583176,0.03636324050000006,"{37: 2, 28: 1, 47: 1, 9: 6}","[9, 28, 37, 47]",96281372471,Rb2Ni1Ag1F6
Rb2NiAuF6,mp-1110586,0.0,0.10535634,0.12066537299999247,"{37: 2, 28: 1, 79: 1, 9: 6}","[9, 28, 37, 79]",96281372791,Rb2Ni1Au1F6
Rb2TlNiF6,mp-1113635,0.0,-0.10935845,0.07965563650000096,"{37: 2, 81: 1, 28: 1, 9: 6}","[9, 28, 37, 81]",96281372811,Rb2Tl1Ni1F6
Rb3NiF6,mp-1113628,0.0,-1.28833976,0.03279322450000066,"{37: 3, 28: 1, 9: 6}","[9, 28, 37]",96281373,Rb3Ni1F6
SrNiF6,mp-555718,1.7074,-1.22624429,0.0,"{38: 1, 28: 1, 9: 6}","[9, 28, 38]",96281381,Sr1Ni1F6
ZrNiF6,mp-1206530,0.0,-0.50860223,0.0,"{40: 1, 28: 1, 9: 6}","[9, 28, 40]",96281401,Zr1Ni1F6
Zr3NiF6,mp-1205662,0.0,-1.21892895,1.302269705625,"{40: 3, 28: 1, 9: 6}","[9, 28, 40]",96281403,Zr3Ni1F6
NiRhF6,mp-20580,0.01589999999999997,-0.45472809,0.0,"{28: 1, 45: 1, 9: 6}","[9, 28, 45]",96281451,Ni1Rh1F6
NiSnF6,mp-560023,0.0,1.50613001,0.0,"{28: 1, 50: 1, 9: 6}","[9, 28, 50]",96281501,Ni1Sn1F6
Cs2NiF6,mp-689925,2.4357,-2.75247154,0.0,"{55: 2, 28: 1, 9: 6}","[9, 28, 55]",96281552,Cs2Ni1F6
BaNiF6,mp-613910,0.4727,-1.43126685,0.0,"{56: 1, 28: 1, 9: 6}","[9, 28, 56]",96281561,Ba1Ni1F6
Ba2NiF6,mp-556041,0.7181,2.03601211,0.11650652499999925,"{56: 2, 28: 1, 9: 6}","[9, 28, 56]",96281562,Ba2Ni1F6
Hf3NiF6,mp-1237178,0.0,-1.30887557,1.2164572810000003,"{72: 3, 28: 1, 9: 6}","[9, 28, 72]",96281723,Hf3Ni1F6
NiPtF6,mp-558838,1.6021,-0.28831821,0.0,"{28: 1, 78: 1, 9: 6}","[9, 28, 78]",96281781,Ni1Pt1F6
NiPbF6,mp-20854,2.2615,-1.12285622,0.0,"{28: 1, 82: 1, 9: 6}","[9, 28, 82]",96281821,Ni1Pb1F6
RbNi2F6,mp-556497,0.0,-1.2565797,0.018373698888888512,"{37: 1, 28: 2, 9: 6}","[9, 28, 37]",96282371,Rb1Ni2F6
CsNi2F6,mp-647818,0.0,-0.88158324,0.0,"{55: 1, 28: 2, 9: 6}","[9, 28, 55]",96282551,Cs1Ni2F6
Na2AlNiF7,mp-554507,4.5085,-0.0335246,0.04723157522726762,"{11: 2, 13: 1, 28: 1, 9: 7}","[9, 11, 13, 28]",97112131281,Na2Al1Ni1F7
Na2VNiF7,mp-1191842,2.4654,0.25934132,0.0,"{11: 2, 23: 1, 28: 1, 9: 7}","[9, 11, 23, 28]",97112231281,Na2V1Ni1F7
Na2CrNiF7,mp-558356,3.8487,-0.88028694,0.0,"{11: 2, 24: 1, 28: 1, 9: 7}","[9, 11, 24, 28]",97112241281,Na2Cr1Ni1F7
Na2FeNiF7,mp-561395,2.8749000000000002,-0.73789055,0.0,"{11: 2, 26: 1, 28: 1, 9: 7}","[9, 11, 26, 28]",97112261281,Na2Fe1Ni1F7
Na2CoNiF7,mp-1210483,1.4955,-1.34304079,0.0,"{11: 2, 27: 1, 28: 1, 9: 7}","[9, 11, 27, 28]",97112271281,Na2Co1Ni1F7
Na2GaNiF7,mp-558993,4.015000000000001,-0.6353195,0.0,"{11: 2, 31: 1, 28: 1, 9: 7}","[9, 11, 28, 31]",97112281311,Na2Ga1Ni1F7
Na2InNiF7,mp-22820,1.0609,1.53964718,0.0,"{11: 2, 49: 1, 28: 1, 9: 7}","[9, 11, 28, 49]",97112281491,Na2In1Ni1F7
BaMgNiF7,mp-1047912,1.6007,-0.6642403,0.04767039499999015,"{56: 1, 12: 1, 28: 1, 9: 7}","[9, 12, 28, 56]",97121281561,Ba1Mg1Ni1F7
AlNiAg2F7,mp-1214829,1.9697,0.73459213,0.0,"{13: 1, 28: 1, 47: 2, 9: 7}","[9, 13, 28, 47]",97131281472,Al1Ni1Ag2F7
Ba2MnNiClF7,mp-554990,2.5225,1.76369513,0.06968696541666386,"{56: 2, 25: 1, 28: 1, 17: 1, 9: 7}","[9, 17, 25, 28, 56]",97171251281562,Ba2Mn1Ni1Cl1F7
Ba2Ni2ClF7,mp-556292,3.5948,0.06858886,0.10503710781249431,"{56: 2, 28: 2, 17: 1, 9: 7}","[9, 17, 28, 56]",97171282562,Ba2Ni2Cl1F7
K3Ni2F7,mp-560449,3.5833000000000004,-0.40183749,0.0,"{19: 3, 28: 2, 9: 7}","[9, 19, 28]",97193282,K3Ni2F7
BaCaNiF7,mp-1047971,1.9832,-1.31519728,0.07379753824999113,"{56: 1, 20: 1, 28: 1, 9: 7}","[9, 20, 28, 56]",97201281561,Ba1Ca1Ni1F7
CrNiAg2F7,mp-1213740,1.6573999999999998,0.36047255,0.0,"{24: 1, 28: 1, 47: 2, 9: 7}","[9, 24, 28, 47]",97241281472,Cr1Ni1Ag2F7
FeNiAg2F7,mp-1212687,0.7212,0.21137513,0.002156566060605769,"{26: 1, 28: 1, 47: 2, 9: 7}","[9, 26, 28, 47]",97261281472,Fe1Ni1Ag2F7
BaZnNiF7,mp-1047950,1.0963,-0.69179094,0.04171911950000595,"{56: 1, 30: 1, 28: 1, 9: 7}","[9, 28, 30, 56]",97281301561,Ba1Zn1Ni1F7
Rb3NiF7,mp-17362,0.8613000000000001,-1.40301857,0.011478811363637043,"{37: 3, 28: 1, 9: 7}","[9, 28, 37]",97281373,Rb3Ni1F7
InNiAg2F7,mp-1212006,1.4768,0.48297318,0.0,"{49: 1, 28: 1, 47: 2, 9: 7}","[9, 28, 47, 49]",97281472491,In1Ni1Ag2F7
Cs3NiF7,mp-17450,0.8734999999999999,-0.83353556,0.0,"{55: 3, 28: 1, 9: 7}","[9, 28, 55]",97281553,Cs3Ni1F7
Ni(AuF4)2,mp-22552,0.0,-0.74592967,0.0,"{28: 1, 79: 2, 9: 8}","[9, 28, 79]",98281792,Ni1Au2F8
KBa2Ni2F9,mp-1223553,0.0479999999999996,2.04829612,0.11581679428570091,"{19: 1, 56: 2, 28: 2, 9: 9}","[9, 19, 28, 56]",99191282562,K1Ba2Ni2F9
RbBa2Ni2F9,mp-1219599,5.267799999999999,-0.40970605,0.11321953357141634,"{37: 1, 56: 2, 28: 2, 9: 9}","[9, 28, 37, 56]",99282371562,Rb1Ba2Ni2F9
CsBa2Ni2F9,mp-1225987,4.5784,-0.09101329,0.12800192999998927,"{55: 1, 56: 2, 28: 2, 9: 9}","[9, 28, 55, 56]",99282551562,Cs1Ba2Ni2F9