formula,material_id,band_gap,efermi,energy_above_hull,comp_atoms,sorted_keys_comp_atoms,comp_number,new_formula
Hf2Ni7,mp-1205858,0.0,7.23040519,0.021984021333331327,"{72: 2, 28: 7}","[28, 72]",287722,Hf2Ni7
Hf3Ni7,mp-27166,0.0,6.88911573,0.0323682494000046,"{72: 3, 28: 7}","[28, 72]",287723,Hf3Ni7
Th2Ni7,mp-867004,0.0,8.39991786,0.0,"{90: 2, 28: 7}","[28, 90]",287902,Th2Ni7
Zn36Ga5Ni8,mp-30707,0.0,4.11098201,0.01861808702093981,"{30: 36, 31: 5, 28: 8}","[28, 30, 31]",2883036315,Zn36Ga5Ni8
Ta4(CuNi3)3,mp-1218103,0.0,7.50463068,0.026144479500000983,"{73: 4, 29: 3, 28: 9}","[28, 29, 73]",289293734,Ta4Cu3Ni9
ZnNi9Ge2,mp-1215729,0.0,8.0606845,0.03458910250000091,"{30: 1, 28: 9, 32: 2}","[28, 30, 32]",289301322,Zn1Ni9Ge2
LaNi9Ge4,mp-1194233,0.0,7.61117372,0.0,"{57: 1, 28: 9, 32: 4}","[28, 32, 57]",289324571,La1Ni9Ge4
CeNi9Ge4,mp-1193206,0.0,8.50782181,0.015525193690470118,"{58: 1, 28: 9, 32: 4}","[28, 32, 58]",289324581,Ce1Ni9Ge4
PrNi9Ge4,mp-1186507,0.0,6.87310676,0.010717996071425873,"{59: 1, 28: 9, 32: 4}","[28, 32, 59]",289324591,Pr1Ni9Ge4
EuNi9Ge4,mp-1193573,0.0,7.42228221,0.001868167619044847,"{63: 1, 28: 9, 32: 4}","[28, 32, 63]",289324631,Eu1Ni9Ge4
BaNi9As5,mp-540991,0.0,6.8417211,0.0,"{56: 1, 28: 9, 33: 5}","[28, 33, 56]",289335561,Ba1Ni9As5
YIn2Ni9,mp-672335,0.0,7.86448408,0.0019162641666694569,"{39: 1, 49: 2, 28: 9}","[28, 39, 49]",289391492,Y1In2Ni9
Ho10In20Ni9,mp-30729,0.0,7.14564232,0.0,"{67: 10, 49: 20, 28: 9}","[28, 49, 67]",28949206710,Ho10In20Ni9
Er10In20Ni9,mp-1199385,0.0,7.24571442,0.0,"{68: 10, 49: 20, 28: 9}","[28, 49, 68]",28949206810,Er10In20Ni9
Tm10In20Ni9,mp-1199794,0.0,7.20697775,0.0,"{69: 10, 49: 20, 28: 9}","[28, 49, 69]",28949206910,Tm10In20Ni9
Lu10In20Ni9,mp-1198338,0.0,7.30215521,0.0,"{71: 10, 49: 20, 28: 9}","[28, 49, 71]",28949207110,Lu10In20Ni9
LaIn2Ni9,mp-1191038,0.0,8.748522,0.0,"{57: 1, 49: 2, 28: 9}","[28, 49, 57]",289492571,La1In2Ni9
CeIn2Ni9,mp-1193040,0.0,8.5801373,0.011509358750001475,"{58: 1, 49: 2, 28: 9}","[28, 49, 58]",289492581,Ce1In2Ni9
PrIn2Ni9,mp-1191416,0.0,7.88878229,0.0,"{59: 1, 49: 2, 28: 9}","[28, 49, 59]",289492591,Pr1In2Ni9
NdIn2Ni9,mp-1190769,0.0,7.78587273,0.0,"{60: 1, 49: 2, 28: 9}","[28, 49, 60]",289492601,Nd1In2Ni9
SmIn2Ni9,mp-1191123,0.0,7.7702782,0.008098967916668087,"{62: 1, 49: 2, 28: 9}","[28, 49, 62]",289492621,Sm1In2Ni9
EuIn2Ni9,mp-1191370,0.0,7.387117,0.0,"{63: 1, 49: 2, 28: 9}","[28, 49, 63]",289492631,Eu1In2Ni9
GdIn2Ni9,mp-1191355,0.0,7.80533686,0.0,"{64: 1, 49: 2, 28: 9}","[28, 49, 64]",289492641,Gd1In2Ni9
TbIn2Ni9,mp-1191278,0.0,8.03320166,0.005910183750000186,"{65: 1, 49: 2, 28: 9}","[28, 49, 65]",289492651,Tb1In2Ni9
DyIn2Ni9,mp-1191362,0.0,7.87074737,0.0052741795833357585,"{66: 1, 49: 2, 28: 9}","[28, 49, 66]",289492661,Dy1In2Ni9
HoIn2Ni9,mp-1190749,0.0,7.83016143,0.00987885874999428,"{67: 1, 49: 2, 28: 9}","[28, 49, 67]",289492671,Ho1In2Ni9
ErIn2Ni9,mp-1190745,0.0,7.83486053,0.013609470416662717,"{68: 1, 49: 2, 28: 9}","[28, 49, 68]",289492681,Er1In2Ni9
Li10Ti2Fe3Ni3O16,mp-774319,1.2175000000000002,5.14316667,0.09408986735294,"{3: 10, 22: 2, 26: 3, 28: 3, 8: 16}","[3, 8, 22, 26, 28]",310816222263283,Li10Ti2Fe3Ni3O16
Li10Cr3Fe3(NiO8)2,mp-1178099,1.7259000000000002,4.77043568,0.06461314250000072,"{3: 10, 24: 3, 26: 3, 28: 2, 8: 16}","[3, 8, 24, 26, 28]",310816243263282,Li10Cr3Fe3Ni2O16
Li10Mn2Fe3Ni3O16,mp-764933,0.43179999999999996,3.46673327,0.08167332777573488,"{3: 10, 25: 2, 26: 3, 28: 3, 8: 16}","[3, 8, 25, 26, 28]",310816252263283,Li10Mn2Fe3Ni3O16
Li10Fe2Co3Ni3O16,mp-779007,0.0,3.2920764,0.11385225816176625,"{3: 10, 26: 2, 27: 3, 28: 3, 8: 16}","[3, 8, 26, 27, 28]",310816262273283,Li10Fe2Co3Ni3O16
Li10Fe3Co2Ni3O16,mp-778201,0.0,3.24888399,0.09357911602941105,"{3: 10, 26: 3, 27: 2, 28: 3, 8: 16}","[3, 8, 26, 27, 28]",310816263272283,Li10Fe3Co2Ni3O16
Li10Fe3Co3(NiO8)2,mp-774318,0.7782999999999998,3.49111831,0.127844673676468,"{3: 10, 26: 3, 27: 3, 28: 2, 8: 16}","[3, 8, 26, 27, 28]",310816263273282,Li10Fe3Co3Ni2O16
Li10FeNi9O20,mp-769545,0.0,3.36430995,0.010651133937497725,"{3: 10, 26: 1, 28: 9, 8: 20}","[3, 8, 26, 28]",310820261289,Li10Fe1Ni9O20
Li10Fe3Ni7O20,mp-771052,0.2056,3.54870324,0.008759554895831911,"{3: 10, 26: 3, 28: 7, 8: 20}","[3, 8, 26, 28]",310820263287,Li10Fe3Ni7O20
Li12FeNi3P4(CO7)4,mp-766539,3.0772000000000004,2.43302915,0.04329886605769406,"{3: 12, 26: 1, 28: 3, 15: 4, 6: 4, 8: 28}","[3, 6, 8, 15, 26, 28]",31264828154261283,Li12Fe1Ni3P4C4O28
Li12Fe3NiP4(CO7)4,mp-766564,3.1360999999999994,2.14846083,0.04622514298077096,"{3: 12, 26: 3, 28: 1, 15: 4, 6: 4, 8: 28}","[3, 6, 8, 15, 26, 28]",31264828154263281,Li12Fe3Ni1P4C4O28
LiCu2Ni,mp-1093585,0.0,-3.63333709,1.910369560555556,"{3: 1, 29: 2, 28: 1}","[3, 28, 29]",31281292,Li1Cu2Ni1
LiFeNiO4,mp-755275,0.0,2.19322413,0.041731738502438276,"{3: 1, 26: 1, 28: 1, 8: 4}","[3, 8, 26, 28]",3184261281,Li1Fe1Ni1O4
Ba2Li(NiO2)2,mp-1236499,1.0726,3.28408336,0.28026063638888754,"{56: 2, 3: 1, 28: 2, 8: 4}","[3, 8, 28, 56]",3184282562,Ba2Li1Ni2O4
Ba2Li(NiO3)2,mp-1235156,0.4912000000000001,2.9415103,0.07578152295454821,"{56: 2, 3: 1, 28: 2, 8: 6}","[3, 8, 28, 56]",3186282562,Ba2Li1Ni2O6
Li2Fe2Ni(PO4)3,mp-776880,1.4032,2.95610563,0.06960394174999429,"{3: 2, 26: 2, 28: 1, 15: 3, 8: 12}","[3, 8, 15, 26, 28]",32812153262281,Li2Fe2Ni1P3O12
Li2V4CuNiO12,mp-1177805,0.025800000000000267,2.48146147,0.09453366800000573,"{3: 2, 23: 4, 29: 1, 28: 1, 8: 12}","[3, 8, 23, 28, 29]",32812234281291,Li2V4Cu1Ni1O12
BaLi2NiO3,mp-756841,2.2093,1.38351213,0.08355952357142815,"{56: 1, 3: 2, 28: 1, 8: 3}","[3, 8, 28, 56]",3283281561,Ba1Li2Ni1O3
Li2FeNiO4,mp-753050,0.0,3.16711365,0.0037105638541659047,"{3: 2, 26: 1, 28: 1, 8: 4}","[3, 8, 26, 28]",3284261281,Li2Fe1Ni1O4
Li2CuNiO4,mp-754716,0.0,3.31880512,0.014933122291665768,"{3: 2, 29: 1, 28: 1, 8: 4}","[3, 8, 28, 29]",3284281291,Li2Cu1Ni1O4
Li2Fe(NiO3)2,mp-758983,0.0,2.45634542,0.04707180343233208,"{3: 2, 26: 1, 28: 2, 8: 6}","[3, 8, 26, 28]",3286261282,Li2Fe1Ni2O6
Li2Fe2NiO6,mp-758197,0.0,2.72900895,0.11954378178160585,"{3: 2, 26: 2, 28: 1, 8: 6}","[3, 8, 26, 28]",3286262281,Li2Fe2Ni1O6
Li2FeNi(PO4)2,mp-756268,3.0236,3.24976636,0.002365609821428194,"{3: 2, 26: 1, 28: 1, 15: 2, 8: 8}","[3, 8, 15, 26, 28]",3288152261281,Li2Fe1Ni1P2O8
Li2CuNi(PO4)2,mp-767151,0.0,3.51537225,0.02945680017856933,"{3: 2, 29: 1, 28: 1, 15: 2, 8: 8}","[3, 8, 15, 28, 29]",3288152281291,Li2Cu1Ni1P2O8
Li2FeNi3O8,mp-776318,0.08000000000000007,2.87149732,0.02120654791193477,"{3: 2, 26: 1, 28: 3, 8: 8}","[3, 8, 26, 28]",3288261283,Li2Fe1Ni3O8
Li2Fe3NiO8,mp-776112,0.0,1.89633571,0.03577263766625638,"{3: 2, 26: 3, 28: 1, 8: 8}","[3, 8, 26, 28]",3288263281,Li2Fe3Ni1O8
Li2CuNiF6,mp-1111560,0.0,1.15310919,0.2430593535000023,"{3: 2, 29: 1, 28: 1, 9: 6}","[3, 9, 28, 29]",3296281291,Li2Cu1Ni1F6
Li3Fe(Ni2O5)2,mp-757287,0.0,2.68706498,0.07580633563920536,"{3: 3, 26: 1, 28: 4, 8: 10}","[3, 8, 26, 28]",33810261284,Li3Fe1Ni4O10
Li3Fe2Ni3O10,mp-752981,0.0,2.42220577,0.09340490707070881,"{3: 3, 26: 2, 28: 3, 8: 10}","[3, 8, 26, 28]",33810262283,Li3Fe2Ni3O10
Li3FeNi2(PO4)3,mp-1223005,3.4838,6.54300634,0.0036052747619024217,"{3: 3, 26: 1, 28: 2, 15: 3, 8: 12}","[3, 8, 15, 26, 28]",33812153261282,Li3Fe1Ni2P3O12
Li3Fe2Ni5O12,mp-759182,0.0,3.12619012,0.07417939623105951,"{3: 3, 26: 2, 28: 5, 8: 12}","[3, 8, 26, 28]",33812262285,Li3Fe2Ni5O12
Li3Fe5(NiO6)2,mp-753185,0.0,2.85992474,0.07773807070140748,"{3: 3, 26: 5, 28: 2, 8: 12}","[3, 8, 26, 28]",33812265282,Li3Fe5Ni2O12
Li3Cu2Ni5O12,mp-1177736,0.09109999999999996,3.15719311,0.04514875199810575,"{3: 3, 29: 2, 28: 5, 8: 12}","[3, 8, 28, 29]",33812285292,Li3Cu2Ni5O12
Li3Fe(NiO3)2,mp-773709,0.0,3.03832705,0.013340260347218802,"{3: 3, 26: 1, 28: 2, 8: 6}","[3, 8, 26, 28]",3386261282,Li3Fe1Ni2O6
Li3Fe2NiO6,mp-757135,0.0,2.79011943,0.009853574027780532,"{3: 3, 26: 2, 28: 1, 8: 6}","[3, 8, 26, 28]",3386262281,Li3Fe2Ni1O6
Li3Cu(NiO3)2,mp-754458,0.0,3.68494899,0.04131691972222207,"{3: 3, 29: 1, 28: 2, 8: 6}","[3, 8, 28, 29]",3386282291,Li3Cu1Ni2O6
Li3Y(NiO3)2,mp-1309972,0.7283,3.04048412,0.06599346784721849,"{3: 3, 39: 1, 28: 2, 8: 6}","[3, 8, 28, 39]",3386282391,Li3Y1Ni2O6
Li3FeNi3O8,mp-753275,0.0,2.67037166,0.020682104902775222,"{3: 3, 26: 1, 28: 3, 8: 8}","[3, 8, 26, 28]",3388261283,Li3Fe1Ni3O8
Li3Fe(NiO2)4,mp-757010,0.0,3.86442363,0.009597948385416721,"{3: 3, 26: 1, 28: 4, 8: 8}","[3, 8, 26, 28]",3388261284,Li3Fe1Ni4O8
Li3Fe2(NiO4)2,mp-767955,0.0,2.53785843,0.03602384893103494,"{3: 3, 26: 2, 28: 2, 8: 8}","[3, 8, 26, 28]",3388262282,Li3Fe2Ni2O8
Li3Fe3NiO8,mp-757161,0.6269,2.35891602,0.018486971362069227,"{3: 3, 26: 3, 28: 1, 8: 8}","[3, 8, 26, 28]",3388263281,Li3Fe3Ni1O8
Li3Fe4NiO8,mp-756803,0.9708999999999999,3.4949916,0.027855519687498997,"{3: 3, 26: 4, 28: 1, 8: 8}","[3, 8, 26, 28]",3388264281,Li3Fe4Ni1O8
Li3Cu4NiO8,mp-756343,0.0,3.53354654,0.04640840656249967,"{3: 3, 29: 4, 28: 1, 8: 8}","[3, 8, 28, 29]",3388281294,Li3Cu4Ni1O8
Li3CuNi3O8,mp-861850,0.0,3.00804884,0.03315840547221782,"{3: 3, 29: 1, 28: 3, 8: 8}","[3, 8, 28, 29]",3388283291,Li3Cu1Ni3O8
Li3Cu(NiO2)4,mp-756169,0.0,4.22460994,0.03171393541666756,"{3: 3, 29: 1, 28: 4, 8: 8}","[3, 8, 28, 29]",3388284291,Li3Cu1Ni4O8
Li4Fe2Ni3O10,mp-754035,0.0,2.65964484,0.06102292921052754,"{3: 4, 26: 2, 28: 3, 8: 10}","[3, 8, 26, 28]",34810262283,Li4Fe2Ni3O10
Li4Fe3(NiO5)2,mp-752964,0.2397999999999998,2.83435323,0.06807249060344756,"{3: 4, 26: 3, 28: 2, 8: 10}","[3, 8, 26, 28]",34810263282,Li4Fe3Ni2O10
Li4FeNi5O12,mp-771207,0.0,2.64837096,0.07099181646780206,"{3: 4, 26: 1, 28: 5, 8: 12}","[3, 8, 26, 28]",34812261285,Li4Fe1Ni5O12
Li4Fe2Ni5O12,mp-758641,0.0,3.2649306,0.04604665492753046,"{3: 4, 26: 2, 28: 5, 8: 12}","[3, 8, 26, 28]",34812262285,Li4Fe2Ni5O12
Li4Fe3(NiO4)3,mp-758854,0.0,2.20065511,0.05982996769984883,"{3: 4, 26: 3, 28: 3, 8: 12}","[3, 8, 26, 28]",34812263283,Li4Fe3Ni3O12
Li4Fe5NiO12,mp-1177537,0.061899999999999844,1.73425559,0.08857694737852206,"{3: 4, 26: 5, 28: 1, 8: 12}","[3, 8, 26, 28]",34812265281,Li4Fe5Ni1O12
Li4Fe5(NiO6)2,mp-758177,0.7066000000000003,3.21486205,0.055801249384050955,"{3: 4, 26: 5, 28: 2, 8: 12}","[3, 8, 26, 28]",34812265282,Li4Fe5Ni2O12
Li4Cu2Ni5O12,mp-849405,0.0,3.42295331,0.028288320742756667,"{3: 4, 29: 2, 28: 5, 8: 12}","[3, 8, 28, 29]",34812285292,Li4Cu2Ni5O12
Li4FeNi3(PO4)4,mp-766022,3.0109000000000004,3.37889201,0.003357258660713569,"{3: 4, 26: 1, 28: 3, 15: 4, 8: 16}","[3, 8, 15, 26, 28]",34816154261283,Li4Fe1Ni3P4O16
Li4Fe3Ni(PO4)4,mp-771063,3.0439999999999996,2.77425084,0.002965603482143031,"{3: 4, 26: 3, 28: 1, 15: 4, 8: 16}","[3, 8, 15, 26, 28]",34816154263281,Li4Fe3Ni1P4O16
Li4Cu3Ni(PO4)4,mp-757757,0.0,3.43110092,0.04121909919642963,"{3: 4, 29: 3, 28: 1, 15: 4, 8: 16}","[3, 8, 15, 28, 29]",34816154281293,Li4Cu3Ni1P4O16
Li4CuNi3(PO4)4,mp-753889,0.1019000000000001,3.69725253,0.017732649732145056,"{3: 4, 29: 1, 28: 3, 15: 4, 8: 16}","[3, 8, 15, 28, 29]",34816154283291,Li4Cu1Ni3P4O16
Li4Ti2Fe3Ni3O16,mp-766008,0.0,2.50609982,0.23961859112238582,"{3: 4, 22: 2, 26: 3, 28: 3, 8: 16}","[3, 8, 22, 26, 28]",34816222263283,Li4Ti2Fe3Ni3O16
Li4Ti3Fe2Ni3O16,mp-759701,0.0,2.43513328,0.07454648561704236,"{3: 4, 22: 3, 26: 2, 28: 3, 8: 16}","[3, 8, 22, 26, 28]",34816223262283,Li4Ti3Fe2Ni3O16
Li4Ti3Fe3(NiO8)2,mp-780404,0.01529999999999987,2.16567121,0.0836330983892557,"{3: 4, 22: 3, 26: 3, 28: 2, 8: 16}","[3, 8, 22, 26, 28]",34816223263282,Li4Ti3Fe3Ni2O16
Li4V2Fe3Ni3O16,mp-758749,0.0,2.39287774,0.10087808172619006,"{3: 4, 23: 2, 26: 3, 28: 3, 8: 16}","[3, 8, 23, 26, 28]",34816232263283,Li4V2Fe3Ni3O16
Li4V3Fe2Ni3O16,mp-780735,0.3125,3.24223831,0.10527626316964422,"{3: 4, 23: 3, 26: 2, 28: 3, 8: 16}","[3, 8, 23, 26, 28]",34816233262283,Li4V3Fe2Ni3O16
Li4Mn2Fe3Ni3O16,mp-765636,0.0,2.56010031,0.0795203102729305,"{3: 4, 25: 2, 26: 3, 28: 3, 8: 16}","[3, 8, 25, 26, 28]",34816252263283,Li4Mn2Fe3Ni3O16
Li4Mn3Fe2Ni3O16,mp-763223,0.0,2.59161015,0.052360139740265765,"{3: 4, 25: 3, 26: 2, 28: 3, 8: 16}","[3, 8, 25, 26, 28]",34816253262283,Li4Mn3Fe2Ni3O16
Li4Mn3Fe3(NiO8)2,mp-769561,0.0,2.13603707,0.06653837003571095,"{3: 4, 25: 3, 26: 3, 28: 2, 8: 16}","[3, 8, 25, 26, 28]",34816253263282,Li4Mn3Fe3Ni2O16
Li4Fe2Co3Ni3O16,mp-774891,0.0,2.62549868,0.042691397213880045,"{3: 4, 26: 2, 27: 3, 28: 3, 8: 16}","[3, 8, 26, 27, 28]",34816262273283,Li4Fe2Co3Ni3O16
Li4Nb3Fe2Ni3O16,mp-764250,0.4647999999999999,2.45150086,0.09168190530357201,"{3: 4, 41: 3, 26: 2, 28: 3, 8: 16}","[3, 8, 26, 28, 41]",34816262283413,Li4Nb3Fe2Ni3O16
Li4Fe2Ni3Sn3O16,mp-775337,0.18889999999999985,3.51004383,0.07176574464583485,"{3: 4, 26: 2, 28: 3, 50: 3, 8: 16}","[3, 8, 26, 28, 50]",34816262283503,Li4Fe2Ni3Sn3O16
Li4Fe2Ni3Sb3O16,mp-764048,0.6627000000000005,3.85927957,0.04735693764285909,"{3: 4, 26: 2, 28: 3, 51: 3, 8: 16}","[3, 8, 26, 28, 51]",34816262283513,Li4Fe2Ni3Sb3O16
Li4Fe2Ni3Te3O16,mp-779164,1.0670000000000002,4.42616004,0.08971278285714401,"{3: 4, 26: 2, 28: 3, 52: 3, 8: 16}","[3, 8, 26, 28, 52]",34816262283523,Li4Fe2Ni3Te3O16
Li4Fe3Co2Ni3O16,mp-753758,0.0,2.39689785,0.28513653671773564,"{3: 4, 26: 3, 27: 2, 28: 3, 8: 16}","[3, 8, 26, 27, 28]",34816263272283,Li4Fe3Co2Ni3O16
Li4Fe3Co3(NiO8)2,mp-760302,0.0,2.24816446,0.05671333240564014,"{3: 4, 26: 3, 27: 3, 28: 2, 8: 16}","[3, 8, 26, 27, 28]",34816263273282,Li4Fe3Co3Ni2O16
Li4Nb3Fe3(NiO8)2,mp-754367,0.5108000000000001,2.73778742,0.11838838352678227,"{3: 4, 41: 3, 26: 3, 28: 2, 8: 16}","[3, 8, 26, 28, 41]",34816263282413,Li4Nb3Fe3Ni2O16
Li4Fe3Ni2Sn3O16,mp-774281,0.0,3.05131431,0.07261200161383918,"{3: 4, 26: 3, 28: 2, 50: 3, 8: 16}","[3, 8, 26, 28, 50]",34816263282503,Li4Fe3Ni2Sn3O16
Li4Fe3Ni2Sb3O16,mp-1177411,0.42989999999999995,3.87011644,0.07453516578572028,"{3: 4, 26: 3, 28: 2, 51: 3, 8: 16}","[3, 8, 26, 28, 51]",34816263282513,Li4Fe3Ni2Sb3O16
Li4Nb2Fe3Ni3O16,mp-752655,0.0,2.36766132,0.0419782245267859,"{3: 4, 41: 2, 26: 3, 28: 3, 8: 16}","[3, 8, 26, 28, 41]",34816263283412,Li4Nb2Fe3Ni3O16
Li4Fe3Ni3(SnO8)2,mp-774855,0.0,3.12393357,0.028938609651042668,"{3: 4, 26: 3, 28: 3, 50: 2, 8: 16}","[3, 8, 26, 28, 50]",34816263283502,Li4Fe3Ni3Sn2O16
Li4Fe3Ni3(SbO8)2,mp-761969,0.0,3.40942359,0.017598521471432704,"{3: 4, 26: 3, 28: 3, 51: 2, 8: 16}","[3, 8, 26, 28, 51]",34816263283512,Li4Fe3Ni3Sb2O16
Li4Fe3Ni3(TeO8)2,mp-772169,0.0,3.61061536,0.008913143348213026,"{3: 4, 26: 3, 28: 3, 52: 2, 8: 16}","[3, 8, 26, 28, 52]",34816263283522,Li4Fe3Ni3Te2O16
Li4Fe3Ni3(WO8)2,mp-771917,0.0,2.61028469,0.0423582360714283,"{3: 4, 26: 3, 28: 3, 74: 2, 8: 16}","[3, 8, 26, 28, 74]",34816263283742,Li4Fe3Ni3W2O16
Li4Fe3Ni5O16,mp-772168,0.0,2.89791132,0.1154081302607537,"{3: 4, 26: 3, 28: 5, 8: 16}","[3, 8, 26, 28]",34816263285,Li4Fe3Ni5O16
Li4Fe5Ni3O16,mp-756815,0.0,2.36504064,0.12453387064963106,"{3: 4, 26: 5, 28: 3, 8: 16}","[3, 8, 26, 28]",34816265283,Li4Fe5Ni3O16
Li4Cu3Ni2Sb3O16,mp-774887,0.0,3.85806864,0.08095960977678907,"{3: 4, 29: 3, 28: 2, 51: 3, 8: 16}","[3, 8, 28, 29, 51]",34816282293513,Li4Cu3Ni2Sb3O16
Li4Cu2Ni3Sb3O16,mp-754442,0.09059999999999979,3.73850443,0.07910031203571677,"{3: 4, 29: 2, 28: 3, 51: 3, 8: 16}","[3, 8, 28, 29, 51]",34816283292513,Li4Cu2Ni3Sb3O16
Li4Cu3Ni3(TeO8)2,mp-757744,0.0,3.62086564,0.01815726359374814,"{3: 4, 29: 3, 28: 3, 52: 2, 8: 16}","[3, 8, 28, 29, 52]",34816283293522,Li4Cu3Ni3Te2O16
Li4Cu3Ni3(WO8)2,mp-773508,0.0,2.68408111,0.042620602477680514,"{3: 4, 29: 3, 28: 3, 74: 2, 8: 16}","[3, 8, 28, 29, 74]",34816283293742,Li4Cu3Ni3W2O16
Li4TiFe2Ni3(PO4)6,mp-1177299,2.4010999999999996,1.87128894,0.07538047884375665,"{3: 4, 22: 1, 26: 2, 28: 3, 15: 6, 8: 24}","[3, 8, 15, 22, 26, 28]",34824156221262283,Li4Ti1Fe2Ni3P6O24
Li4TiCu2Ni3(PO4)6,mp-776613,0.050899999999999945,2.13468996,0.0987651097812483,"{3: 4, 22: 1, 29: 2, 28: 3, 15: 6, 8: 24}","[3, 8, 15, 22, 28, 29]",34824156221283292,Li4Ti1Cu2Ni3P6O24
Li4CrFe2Ni3(PO4)6,mp-776753,1.4205999999999999,2.16182056,0.09234378696875734,"{3: 4, 24: 1, 26: 2, 28: 3, 15: 6, 8: 24}","[3, 8, 15, 24, 26, 28]",34824156241262283,Li4Cr1Fe2Ni3P6O24
Li4Mn2FeNi3(PO4)6,mp-1177440,0.0,1.82499458,0.0862994648125035,"{3: 4, 25: 2, 26: 1, 28: 3, 15: 6, 8: 24}","[3, 8, 15, 25, 26, 28]",34824156252261283,Li4Mn2Fe1Ni3P6O24
Li4Mn3CuNi2(PO4)6,mp-775323,0.0,2.55307506,0.08339456843750348,"{3: 4, 25: 3, 29: 1, 28: 2, 15: 6, 8: 24}","[3, 8, 15, 25, 28, 29]",34824156253282291,Li4Mn3Cu1Ni2P6O24
Li4FeCo2Ni3(PO4)6,mp-1177467,0.0,1.92043722,0.11966088809376174,"{3: 4, 26: 1, 27: 2, 28: 3, 15: 6, 8: 24}","[3, 8, 15, 26, 27, 28]",34824156261272283,Li4Fe1Co2Ni3P6O24
Li4FeNi5(PO4)6,mp-766569,3.0370999999999997,1.96703337,0.08735312628124792,"{3: 4, 26: 1, 28: 5, 15: 6, 8: 24}","[3, 8, 15, 26, 28]",34824156261285,Li4Fe1Ni5P6O24
Li4Fe2Ni3Sn(PO4)6,mp-780843,3.0536,2.01722233,0.08223831253124736,"{3: 4, 26: 2, 28: 3, 50: 1, 15: 6, 8: 24}","[3, 8, 15, 26, 28, 50]",34824156262283501,Li4Fe2Ni3Sn1P6O24
Li4Fe2Ni3Te(PO4)6,mp-1177446,2.8717,2.27149613,0.09408915082143388,"{3: 4, 26: 2, 28: 3, 52: 1, 15: 6, 8: 24}","[3, 8, 15, 26, 28, 52]",34824156262283521,Li4Fe2Ni3Te1P6O24
Li4Fe5Ni(PO4)6,mp-760788,1.5656000000000003,2.77466735,0.0676373585625063,"{3: 4, 26: 5, 28: 1, 15: 6, 8: 24}","[3, 8, 15, 26, 28]",34824156265281,Li4Fe5Ni1P6O24
BaLi4NiO4,mp-776559,2.6892999999999994,1.73139889,0.052374264750000066,"{56: 1, 3: 4, 28: 1, 8: 4}","[3, 8, 28, 56]",3484281561,Ba1Li4Ni1O4
Li4FeNi3O8,mp-765712,0.0,3.52400008,0.00782950921874992,"{3: 4, 26: 1, 28: 3, 8: 8}","[3, 8, 26, 28]",3488261283,Li4Fe1Ni3O8
Li4Fe3NiO8,mp-769856,0.0,2.69426245,0.00825239036458214,"{3: 4, 26: 3, 28: 1, 8: 8}","[3, 8, 26, 28]",3488263281,Li4Fe3Ni1O8
Li4CuNi3O8,mp-752986,0.019000000000000128,3.87633986,0.01783925187500035,"{3: 4, 29: 1, 28: 3, 8: 8}","[3, 8, 28, 29]",3488283291,Li4Cu1Ni3O8
Li5Fe(Ni2O5)2,mp-753971,0.0,3.31659799,0.012233045541666598,"{3: 5, 26: 1, 28: 4, 8: 10}","[3, 8, 26, 28]",35810261284,Li5Fe1Ni4O10
Li5Fe2Ni3O10,mp-755824,0.0,3.0136396,0.01743698275000316,"{3: 5, 26: 2, 28: 3, 8: 10}","[3, 8, 26, 28]",35810262283,Li5Fe2Ni3O10
Li5Fe3(NiO5)2,mp-755786,0.0,3.10186473,0.0449887829583302,"{3: 5, 26: 3, 28: 2, 8: 10}","[3, 8, 26, 28]",35810263282,Li5Fe3Ni2O10
Li5Cu3(NiO5)2,mp-773166,0.0,3.61628802,0.08208766883333318,"{3: 5, 29: 3, 28: 2, 8: 10}","[3, 8, 28, 29]",35810282293,Li5Cu3Ni2O10
Li5Cu2Ni3O10,mp-756021,0.0,3.15978241,0.031247639000000937,"{3: 5, 29: 2, 28: 3, 8: 10}","[3, 8, 28, 29]",35810283292,Li5Cu2Ni3O10
Li5Fe2Ni5O12,mp-771319,0.0,3.57287351,0.016575660625002264,"{3: 5, 26: 2, 28: 5, 8: 12}","[3, 8, 26, 28]",35812262285,Li5Fe2Ni5O12
Li5Fe5(NiO6)2,mp-771236,1.6764999999999994,3.31092326,0.027467736979164492,"{3: 5, 26: 5, 28: 2, 8: 12}","[3, 8, 26, 28]",35812265282,Li5Fe5Ni2O12
Li5Cu5(NiO6)2,mp-770841,0.0,3.70099128,0.1265708099999978,"{3: 5, 29: 5, 28: 2, 8: 12}","[3, 8, 28, 29]",35812282295,Li5Cu5Ni2O12
Li5Cu2Ni5O12,mp-754449,0.0,3.85672469,0.013139647083331596,"{3: 5, 29: 2, 28: 5, 8: 12}","[3, 8, 28, 29]",35812285292,Li5Cu2Ni5O12
Li5Fe3Ni2(PO4)6,mp-776686,2.3929,1.93130319,0.06437318631249589,"{3: 5, 26: 3, 28: 2, 15: 6, 8: 24}","[3, 8, 15, 26, 28]",35824156263282,Li5Fe3Ni2P6O24
Li5FeNi3O8,mp-759765,0.0,3.008746,0.06646472649509949,"{3: 5, 26: 1, 28: 3, 8: 8}","[3, 8, 26, 28]",3588261283,Li5Fe1Ni3O8
Li6FeNiP2(CO7)2,mp-753528,2.6653999999999995,2.19998031,0.04133798942307898,"{3: 6, 26: 1, 28: 1, 15: 2, 6: 2, 8: 14}","[3, 6, 8, 15, 26, 28]",3662814152261281,Li6Fe1Ni1P2C2O14
Li6Fe5NiO12,mp-765833,0.0,2.69789338,0.03804248045138614,"{3: 6, 26: 5, 28: 1, 8: 12}","[3, 8, 26, 28]",36812265281,Li6Fe5Ni1O12
Li6FeNi9O20,mp-758623,0.0,2.95238644,0.04692589304977801,"{3: 6, 26: 1, 28: 9, 8: 20}","[3, 8, 26, 28]",36820261289,Li6Fe1Ni9O20
Li6Fe3Ni(PO4)6,mp-771187,0.0,0.9951358,0.05872295056249488,"{3: 6, 26: 3, 28: 1, 15: 6, 8: 24}","[3, 8, 15, 26, 28]",36824156263281,Li6Fe3Ni1P6O24
Li7Fe4NiO12,mp-760174,0.0,2.59897118,0.09389459572916703,"{3: 7, 26: 4, 28: 1, 8: 12}","[3, 8, 26, 28]",37812264281,Li7Fe4Ni1O12
Li7FeNi3(PO4)6,mp-1177019,0.028299999999999992,1.0241171,0.08622924585365777,"{3: 7, 26: 1, 28: 3, 15: 6, 8: 24}","[3, 8, 15, 26, 28]",37824156261283,Li7Fe1Ni3P6O24