formula,material_id,band_gap,efermi,energy_above_hull,comp_atoms,sorted_keys_comp_atoms,comp_number,new_formula
Cr2CoNi3(PO4)6,mp-757291,0.0,1.5289163,0.11490410006944529,"{24: 2, 27: 1, 28: 3, 15: 6, 8: 24}","[8, 15, 24, 27, 28]",824156242271283,Cr2Co1Ni3P6O24
Cr2Ni3Sb(PO4)6,mp-775941,0.0,1.99191714,0.093750222760411,"{24: 2, 28: 3, 51: 1, 15: 6, 8: 24}","[8, 15, 24, 28, 51]",824156242283511,Cr2Ni3Sb1P6O24
Cr3Ni(PO4)6,mp-774406,0.0,-0.06767055,0.09232087220587193,"{24: 3, 28: 1, 15: 6, 8: 24}","[8, 15, 24, 28]",824156243281,Cr3Ni1P6O24
Cr3NiTe2(PO4)6,mp-759830,0.0,3.79967397,0.08632578348959097,"{24: 3, 28: 1, 52: 2, 15: 6, 8: 24}","[8, 15, 24, 28, 52]",824156243281522,Cr3Ni1Te2P6O24
MnFe3Ni2(PO4)6,mp-780788,0.0,1.24281939,0.03628069298610992,"{25: 1, 26: 3, 28: 2, 15: 6, 8: 24}","[8, 15, 25, 26, 28]",824156251263282,Mn1Fe3Ni2P6O24
Mn2Fe3Ni(PO4)6,mp-764918,0.0,1.06731502,0.06957938638888717,"{25: 2, 26: 3, 28: 1, 15: 6, 8: 24}","[8, 15, 25, 26, 28]",824156252263281,Mn2Fe3Ni1P6O24
Mn2NbNi3(PO4)6,mp-1176556,0.0,1.04064038,0.08471135895833282,"{25: 2, 41: 1, 28: 3, 15: 6, 8: 24}","[8, 15, 25, 28, 41]",824156252283411,Mn2Nb1Ni3P6O24
Mn2Ni3Sb(PO4)6,mp-776222,0.0,1.41257122,0.08167735444444091,"{25: 2, 28: 3, 51: 1, 15: 6, 8: 24}","[8, 15, 25, 28, 51]",824156252283511,Mn2Ni3Sb1P6O24
Mn2Ni3P6WO24,mp-757935,0.02180000000000004,1.20392347,0.0768289140624896,"{25: 2, 28: 3, 15: 6, 74: 1, 8: 24}","[8, 15, 25, 28, 74]",824156252283741,Mn2Ni3P6W1O24
Mn3FeNi2(PO4)6,mp-756802,0.0,2.14553653,0.030265886180553814,"{25: 3, 26: 1, 28: 2, 15: 6, 8: 24}","[8, 15, 25, 26, 28]",824156253261282,Mn3Fe1Ni2P6O24
Mn3CoNi2(PO4)6,mp-1176478,0.0,1.91806033,0.047445438194448464,"{25: 3, 27: 1, 28: 2, 15: 6, 8: 24}","[8, 15, 25, 27, 28]",824156253271282,Mn3Co1Ni2P6O24
Mn3Co2Ni(PO4)6,mp-758256,0.0,1.9068738,0.07918678493055875,"{25: 3, 27: 2, 28: 1, 15: 6, 8: 24}","[8, 15, 25, 27, 28]",824156253272281,Mn3Co2Ni1P6O24
Mn3Cu2Ni(PO4)6,mp-780130,0.0,1.52447575,0.06594255291664908,"{25: 3, 29: 2, 28: 1, 15: 6, 8: 24}","[8, 15, 25, 28, 29]",824156253281292,Mn3Cu2Ni1P6O24
Mn3NiSn2(PO4)6,mp-1176570,0.011099999999999888,2.50009707,0.09755472833333911,"{25: 3, 28: 1, 50: 2, 15: 6, 8: 24}","[8, 15, 25, 28, 50]",824156253281502,Mn3Ni1Sn2P6O24
Mn3CuNi2(PO4)6,mp-772496,0.0,2.19947194,0.04609987940971827,"{25: 3, 29: 1, 28: 2, 15: 6, 8: 24}","[8, 15, 25, 28, 29]",824156253282291,Mn3Cu1Ni2P6O24
Mn3NbNi2(PO4)6,mp-775770,0.0,1.97548059,0.060603235972221725,"{25: 3, 41: 1, 28: 2, 15: 6, 8: 24}","[8, 15, 25, 28, 41]",824156253282411,Mn3Nb1Ni2P6O24
Mn3Ni2Sb(PO4)6,mp-774940,0.0,2.39477384,0.05639662034722104,"{25: 3, 28: 2, 51: 1, 15: 6, 8: 24}","[8, 15, 25, 28, 51]",824156253282511,Mn3Ni2Sb1P6O24
Mn3Ni2P6WO24,mp-757043,0.04520000000000035,2.09887941,0.06292124999307624,"{25: 3, 28: 2, 15: 6, 74: 1, 8: 24}","[8, 15, 25, 28, 74]",824156253282741,Mn3Ni2P6W1O24
Mn5Ni(PO4)6,mp-772291,0.16559999999999997,1.49125596,0.046029656597220914,"{25: 5, 28: 1, 15: 6, 8: 24}","[8, 15, 25, 28]",824156255281,Mn5Ni1P6O24
FeNi3Sn2(PO4)6,mp-849278,0.0,2.07995447,0.09311954864583694,"{26: 1, 28: 3, 50: 2, 15: 6, 8: 24}","[8, 15, 26, 28, 50]",824156261283502,Fe1Ni3Sn2P6O24
Fe2Ni3Sb(PO4)6,mp-777420,0.0,1.91198639,0.0962531623611147,"{26: 2, 28: 3, 51: 1, 15: 6, 8: 24}","[8, 15, 26, 28, 51]",824156262283511,Fe2Ni3Sb1P6O24
Fe2Ni3P6WO24,mp-771051,0.9977999999999998,1.77355808,0.10123929309028767,"{26: 2, 28: 3, 15: 6, 74: 1, 8: 24}","[8, 15, 26, 28, 74]",824156262283741,Fe2Ni3P6W1O24
Fe3CoNi2(PO4)6,mp-770497,0.0,1.38395381,0.06005099798610036,"{26: 3, 27: 1, 28: 2, 15: 6, 8: 24}","[8, 15, 26, 27, 28]",824156263271282,Fe3Co1Ni2P6O24
Fe3Co2Ni(PO4)6,mp-758190,0.0,1.33547068,0.10110283583334745,"{26: 3, 27: 2, 28: 1, 15: 6, 8: 24}","[8, 15, 26, 27, 28]",824156263272281,Fe3Co2Ni1P6O24
Fe3NiSn2(PO4)6,mp-776178,0.058499999999999996,3.44685492,0.08775271314811928,"{26: 3, 28: 1, 50: 2, 15: 6, 8: 24}","[8, 15, 26, 28, 50]",824156263281502,Fe3Ni1Sn2P6O24
Fe3NiSb2(PO4)6,mp-1178301,0.0,1.88047214,0.07369590920139579,"{26: 3, 28: 1, 51: 2, 15: 6, 8: 24}","[8, 15, 26, 28, 51]",824156263281512,Fe3Ni1Sb2P6O24
Fe3CuNi2(PO4)6,mp-767442,0.0,1.14258984,0.06503933040798593,"{26: 3, 29: 1, 28: 2, 15: 6, 8: 24}","[8, 15, 26, 28, 29]",824156263282291,Fe3Cu1Ni2P6O24
NbFe3Ni2(PO4)6,mp-776159,1.8175999999999999,1.54354487,0.03301814990739693,"{41: 1, 26: 3, 28: 2, 15: 6, 8: 24}","[8, 15, 26, 28, 41]",824156263282411,Nb1Fe3Ni2P6O24
Fe3Ni2Sn(PO4)6,mp-775990,0.0,1.48210535,0.03693886721065098,"{26: 3, 28: 2, 50: 1, 15: 6, 8: 24}","[8, 15, 26, 28, 50]",824156263282501,Fe3Ni2Sn1P6O24
Fe3Ni2Sb(PO4)6,mp-774339,2.1182000000000007,2.07045221,0.026537742083334592,"{26: 3, 28: 2, 51: 1, 15: 6, 8: 24}","[8, 15, 26, 28, 51]",824156263282511,Fe3Ni2Sb1P6O24
Fe3Ni2Te(PO4)6,mp-774923,0.07499999999999973,2.35034514,0.04625041453125078,"{26: 3, 28: 2, 52: 1, 15: 6, 8: 24}","[8, 15, 26, 28, 52]",824156263282521,Fe3Ni2Te1P6O24
Fe3Ni2P6WO24,mp-850533,2.1212999999999997,1.5201297,0.02916592576389121,"{26: 3, 28: 2, 15: 6, 74: 1, 8: 24}","[8, 15, 26, 28, 74]",824156263282741,Fe3Ni2P6W1O24
Fe4Ni3(PO4)6,mp-17258,1.8411000000000004,4.40703376,0.021852857567560946,"{26: 4, 28: 3, 15: 6, 8: 24}","[8, 15, 26, 28]",824156264283,Fe4Ni3P6O24
Fe5Ni(PO4)6,mp-768933,0.0,1.31407759,0.07947989847222559,"{26: 5, 28: 1, 15: 6, 8: 24}","[8, 15, 26, 28]",824156265281,Fe5Ni1P6O24
Co2Ni3Sb(PO4)6,mp-758112,0.0,1.76671639,0.0975192338888915,"{27: 2, 28: 3, 51: 1, 15: 6, 8: 24}","[8, 15, 27, 28, 51]",824156272283511,Co2Ni3Sb1P6O24
Zr4Ni(PO4)6,mp-1215801,3.2858,0.08146557,0.0,"{40: 4, 28: 1, 15: 6, 8: 24}","[8, 15, 28, 40]",824156281404,Zr4Ni1P6O24
Nb3Ni(PO4)6,mp-775225,0.0,-0.24838577,0.005627001764691997,"{41: 3, 28: 1, 15: 6, 8: 24}","[8, 15, 28, 41]",824156281413,Nb3Ni1P6O24
NiAg4(PO4)6,mp-1203837,0.0,0.31849138,0.23437551259524092,"{28: 1, 47: 4, 15: 6, 8: 24}","[8, 15, 28, 47]",824156281474,Ni1Ag4P6O24
NiSb3(PO4)6,mp-775231,0.0,1.00630618,0.026209751323526653,"{28: 1, 51: 3, 15: 6, 8: 24}","[8, 15, 28, 51]",824156281513,Ni1Sb3P6O24
NiP6(WO8)3,mp-850286,1.9379,0.73928524,0.0003065583088357471,"{28: 1, 15: 6, 74: 3, 8: 24}","[8, 15, 28, 74]",824156281743,Ni1P6W3O24
NbNi5(PO4)6,mp-772023,0.0,1.25613,0.08970300909722795,"{41: 1, 28: 5, 15: 6, 8: 24}","[8, 15, 28, 41]",824156285411,Nb1Ni5P6O24
Ni5Sb(PO4)6,mp-752690,0.0,1.58567394,0.07987783263889181,"{28: 5, 51: 1, 15: 6, 8: 24}","[8, 15, 28, 51]",824156285511,Ni5Sb1P6O24
Ni5Te(PO4)6,mp-850365,0.0,1.80560573,0.08324616805554808,"{28: 5, 52: 1, 15: 6, 8: 24}","[8, 15, 28, 52]",824156285521,Ni5Te1P6O24
Ni7(PO4)6,mp-771985,0.0,2.22022024,0.05754690351352654,"{28: 7, 15: 6, 8: 24}","[8, 15, 28]",824156287,Ni7P6O24
Tl4Ni7(PO4)6,mp-560035,2.7319999999999998,3.43185682,0.008559139621950429,"{81: 4, 28: 7, 15: 6, 8: 24}","[8, 15, 28, 81]",824156287814,Tl4Ni7P6O24
Ni4P7O24,mp-26384,0.0,0.83831746,0.09423603700000172,"{28: 4, 15: 7, 8: 24}","[8, 15, 28]",824157284,Ni4P7O24
Ni6P7O24,mp-504372,0.0,2.13443134,0.02536050472973983,"{28: 6, 15: 7, 8: 24}","[8, 15, 28]",824157286,Ni6P7O24
Cr3Ni(SO4)6,mp-774914,0.0,0.33032411,0.004495120012246723,"{24: 3, 28: 1, 16: 6, 8: 24}","[8, 16, 24, 28]",824166243281,Cr3Ni1S6O24
K4Ni7(AsO4)6,mp-1224183,2.6399999999999997,1.78372453,0.013759188658541532,"{19: 4, 28: 7, 33: 6, 8: 24}","[8, 19, 28, 33]",824194287336,K4Ni7As6O24
Ca15Ni(IrO6)4,mp-1227837,0.0,4.44826155,0.03205066602272488,"{20: 15, 28: 1, 77: 4, 8: 24}","[8, 20, 28, 77]",8242015281774,Ca15Ni1Ir4O24
Ca2La5Mn7NiO24,mp-1357240,0.0,5.02827512,0.1579804763354673,"{20: 2, 57: 5, 25: 7, 28: 1, 8: 24}","[8, 20, 25, 28, 57]",824202257281575,Ca2La5Mn7Ni1O24
Ca3La5Mn7NiO24,mp-39207,0.0,5.72260622,0.13116806254166669,"{20: 3, 57: 5, 25: 7, 28: 1, 8: 24}","[8, 20, 25, 28, 57]",824203257281575,Ca3La5Mn7Ni1O24
Ca4La4Mn7NiO24,mp-697834,0.0,5.332157,0.10382357405416442,"{20: 4, 57: 4, 25: 7, 28: 1, 8: 24}","[8, 20, 25, 28, 57]",824204257281574,Ca4La4Mn7Ni1O24
Ti4(Ni5O8)3,mp-766093,0.9655000000000005,4.60912457,0.0,"{22: 4, 28: 15, 8: 24}","[8, 22, 28]",8242242815,Ti4Ni15O24
Ba3V2Ni6(AsO6)4,mp-1228018,3.1805000000000003,1.93719416,0.0017113702564151012,"{56: 3, 23: 2, 28: 6, 33: 4, 8: 24}","[8, 23, 28, 33, 56]",824232286334563,Ba3V2Ni6As4O24
Fe11(NiO3)8,mp-36806,0.0,4.61631184,0.1486487545930233,"{26: 11, 28: 8, 8: 24}","[8, 26, 28]",8242611288,Fe11Ni8O24
Sr12Tm3Ni5O24,mp-1218940,0.0,2.72489201,0.006325047244309268,"{38: 12, 69: 3, 28: 5, 8: 24}","[8, 28, 38, 69]",8242853812693,Sr12Tm3Ni5O24
La7SmNi6(AgO12)2,mp-1076723,0.0,6.67137684,0.1317435839843757,"{57: 7, 62: 1, 28: 6, 47: 2, 8: 24}","[8, 28, 47, 57, 62]",824286472577621,La7Sm1Ni6Ag2O24
La5Sm3Ni7AgO24,mp-1076249,0.0,6.18074609,0.11324611273437313,"{57: 5, 62: 3, 28: 7, 47: 1, 8: 24}","[8, 28, 47, 57, 62]",824287471575623,La5Sm3Ni7Ag1O24
K4NiP6O25,mp-1181103,0.0,-0.81857436,0.3755921710416681,"{19: 4, 28: 1, 15: 6, 8: 25}","[8, 15, 19, 28]",825156194281,K4Ni1P6O25
La12Ni6O25,mp-37843,0.0,7.03826625,0.0503297630813897,"{57: 12, 28: 6, 8: 25}","[8, 28, 57]",8252865712,La12Ni6O25
U4Ni3(O13F7)2,mp-1205292,0.0,-2.11453825,0.6993156651063801,"{92: 4, 28: 3, 8: 26, 9: 14}","[8, 9, 28, 92]",826914283924,U4Ni3O26F14
K5NaNi5(P2O7)4,mp-1224256,3.9214,1.17081973,0.0,"{19: 5, 11: 1, 28: 5, 15: 8, 8: 28}","[8, 11, 15, 19, 28]",828111158195285,K5Na1Ni5P8O28
Al4Si2Ni13(SbO14)2,mp-1044564,2.3476999999999997,4.59457835,0.013562062551019771,"{13: 4, 14: 2, 28: 13, 51: 2, 8: 28}","[8, 13, 14, 28, 51]",8281341422813512,Al4Si2Ni13Sb2O28
Y4Si2Ni13(SbO14)2,mp-1044649,2.2007999999999996,3.41085654,0.15566539226190113,"{39: 4, 14: 2, 28: 13, 51: 2, 8: 28}","[8, 14, 28, 39, 51]",8281422813394512,Y4Si2Ni13Sb2O28
Si2Ni13(SbO14)2,mp-1044954,0.14590000000000014,3.70639785,0.40988378474073883,"{14: 2, 28: 13, 51: 2, 8: 28}","[8, 14, 28, 51]",8281422813512,Si2Ni13Sb2O28
Ni5(P2O7)4,mp-705436,0.0,0.17479507,0.175070024695116,"{28: 5, 15: 8, 8: 28}","[8, 15, 28]",828158285,Ni5P8O28
Ni7(P2O7)4,mp-778386,0.0,2.23434589,0.033319770872092036,"{28: 7, 15: 8, 8: 28}","[8, 15, 28]",828158287,Ni7P8O28
CsNbNi(OF2)2,mp-684827,3.0564999999999998,-0.31058631,0.0,"{55: 1, 41: 1, 28: 1, 8: 2, 9: 4}","[8, 9, 28, 41, 55]",8294281411551,Cs1Nb1Ni1O2F4
Ba10Ti8NbNiO30,mp-1228979,0.0,2.72544401,0.0127526552249968,"{56: 10, 22: 8, 41: 1, 28: 1, 8: 30}","[8, 22, 28, 41, 56]",8302282814115610,Ba10Ti8Nb1Ni1O30
Sr3Pr7Cr9NiO30,mp-1173249,0.0,3.86674979,0.047760059625005624,"{38: 3, 59: 7, 24: 9, 28: 1, 8: 30}","[8, 24, 28, 38, 59]",830249281383597,Sr3Pr7Cr9Ni1O30
Ba4Ta10NiO30,mp-1228660,0.0,1.99372938,0.007307892296296359,"{56: 4, 73: 10, 28: 1, 8: 30}","[8, 28, 56, 73]",8302815647310,Ba4Ta10Ni1O30
Ni9Te5(PbO5)6,mp-1204674,1.9839000000000002,5.43037602,0.0,"{28: 9, 52: 5, 82: 6, 8: 30}","[8, 28, 52, 82]",830289525826,Ni9Te5Pb6O30
NaNiO3,mp-1186154,0.0,1.43057435,0.3216883469999994,"{11: 1, 28: 1, 8: 3}","[8, 11, 28]",83111281,Na1Ni1O3
NaNi2O3,mp-759286,0.0,4.04193281,0.023814559583334116,"{11: 1, 28: 2, 8: 3}","[8, 11, 28]",83111282,Na1Ni2O3
Na2NiO3,mp-755764,0.0,2.38515878,0.04055167930555559,"{11: 2, 28: 1, 8: 3}","[8, 11, 28]",83112281,Na2Ni1O3
Na2Ni2O3,mp-754438,0.0,3.22963197,0.052545982142857106,"{11: 2, 28: 2, 8: 3}","[8, 11, 28]",83112282,Na2Ni2O3
Na3NiO3,mp-755725,1.2208999999999999,1.0375791,0.005518341875000665,"{11: 3, 28: 1, 8: 3}","[8, 11, 28]",83113281,Na3Ni1O3
SrMgNiO3,mp-2228091,1.1522999999999999,3.47522706,0.11492567666666531,"{38: 1, 12: 1, 28: 1, 8: 3}","[8, 12, 28, 38]",83121281381,Sr1Mg1Ni1O3
BaMgNiO3,mp-2227363,0.9043999999999999,4.18258322,0.5308950583333321,"{56: 1, 12: 1, 28: 1, 8: 3}","[8, 12, 28, 56]",83121281561,Ba1Mg1Ni1O3
LaMgNiO3,mp-2228083,0.0,6.27192048,1.040147641458332,"{57: 1, 12: 1, 28: 1, 8: 3}","[8, 12, 28, 57]",83121281571,La1Mg1Ni1O3
SmMgNiO3,mp-2223038,0.0,4.37315775,1.2038305360104147,"{62: 1, 12: 1, 28: 1, 8: 3}","[8, 12, 28, 62]",83121281621,Sm1Mg1Ni1O3
EuMgNiO3,mp-2225941,0.0,3.65721394,0.8562038404166712,"{63: 1, 12: 1, 28: 1, 8: 3}","[8, 12, 28, 63]",83121281631,Eu1Mg1Ni1O3
AlNiO3,mp-1376903,0.0,5.87272469,0.2430131994242446,"{13: 1, 28: 1, 8: 3}","[8, 13, 28]",83131281,Al1Ni1O3
Sr2ScNiPO3,mp-1189201,0.0,4.80867689,0.23744984268601854,"{38: 2, 21: 1, 28: 1, 15: 1, 8: 3}","[8, 15, 21, 28, 38]",83151211281382,Sr2Sc1Ni1P1O3
Sr2NiClO3,mp-1104703,0.0,2.42586178,0.0022636164880989185,"{38: 2, 28: 1, 17: 1, 8: 3}","[8, 17, 28, 38]",83171281382,Sr2Ni1Cl1O3
Ni2ClO3,mp-1190465,0.0,2.57294227,0.23830186236979145,"{28: 2, 17: 1, 8: 3}","[8, 17, 28]",83171282,Ni2Cl1O3
CaNiO3,mp-1368210,0.0,2.93116246,0.05580526474999914,"{20: 1, 28: 1, 8: 3}","[8, 20, 28]",83201281,Ca1Ni1O3
Mg30AlNiO32,mp-1038314,1.7857000000000003,6.573983,0.03311690066406392,"{12: 30, 13: 1, 28: 1, 8: 32}","[8, 12, 13, 28]",8321230131281,Mg30Al1Ni1O32
Mg30SiNiO32,mp-1036904,0.0,9.04898613,0.09772288109375094,"{12: 30, 14: 1, 28: 1, 8: 32}","[8, 12, 14, 28]",8321230141281,Mg30Si1Ni1O32
CaMg30NiO32,mp-1038123,4.0235,4.14020963,0.014443862656250417,"{20: 1, 12: 30, 28: 1, 8: 32}","[8, 12, 20, 28]",8321230201281,Ca1Mg30Ni1O32
Mg30TiNiO32,mp-1037199,0.6318999999999999,7.49039234,0.05804329582031276,"{12: 30, 22: 1, 28: 1, 8: 32}","[8, 12, 22, 28]",8321230221281,Mg30Ti1Ni1O32
Mg30VNiO32,mp-1037092,2.0727,6.21382226,0.01822596437499957,"{12: 30, 23: 1, 28: 1, 8: 32}","[8, 12, 23, 28]",8321230231281,Mg30V1Ni1O32
Mg30CrNiO32,mp-1037024,1.7041999999999993,6.51788131,0.025120367890625772,"{12: 30, 24: 1, 28: 1, 8: 32}","[8, 12, 24, 28]",8321230241281,Mg30Cr1Ni1O32
Mg30MnNiO32,mp-1038248,2.8526,5.29520875,0.005296393046875458,"{12: 30, 25: 1, 28: 1, 8: 32}","[8, 12, 25, 28]",8321230251281,Mg30Mn1Ni1O32
Mg30FeNiO32,mp-1036994,3.4062,4.8171436,0.005973581953125695,"{12: 30, 26: 1, 28: 1, 8: 32}","[8, 12, 26, 28]",8321230261281,Mg30Fe1Ni1O32
Mg30CoNiO32,mp-1037175,0.0,5.76469943,0.002704665273437712,"{12: 30, 27: 1, 28: 1, 8: 32}","[8, 12, 27, 28]",8321230271281,Mg30Co1Ni1O32
Mg30CuNiO32,mp-1037367,0.0,5.43153409,0.010898052343750741,"{12: 30, 29: 1, 28: 1, 8: 32}","[8, 12, 28, 29]",8321230281291,Mg30Cu1Ni1O32
Mg30ZnNiO32,mp-1037547,4.0442,4.04260956,0.004273587968750547,"{12: 30, 30: 1, 28: 1, 8: 32}","[8, 12, 28, 30]",8321230281301,Mg30Zn1Ni1O32
SrMg30NiO32,mp-1036839,4.0777,3.89139561,0.0376592773437503,"{38: 1, 12: 30, 28: 1, 8: 32}","[8, 12, 28, 38]",8321230281381,Sr1Mg30Ni1O32
YMg30NiO32,mp-1037774,1.1713000000000005,6.81681553,0.05695314202148438,"{39: 1, 12: 30, 28: 1, 8: 32}","[8, 12, 28, 39]",8321230281391,Y1Mg30Ni1O32
Mg30NbNiO32,mp-1037074,0.41659999999999986,7.70769864,0.07939115167187616,"{12: 30, 41: 1, 28: 1, 8: 32}","[8, 12, 28, 41]",8321230281411,Mg30Nb1Ni1O32
Mg30CdNiO32,mp-1036825,3.7915,4.07001677,0.013210384999999825,"{12: 30, 48: 1, 28: 1, 8: 32}","[8, 12, 28, 48]",8321230281481,Mg30Cd1Ni1O32
Mg30NiSnO32,mp-1036900,1.5501000000000005,6.8043496,0.06076672968750074,"{12: 30, 28: 1, 50: 1, 8: 32}","[8, 12, 28, 50]",8321230281501,Mg30Ni1Sn1O32
BaMg30NiO32,mp-1036835,3.0784000000000002,4.63912382,0.07698372921875052,"{56: 1, 12: 30, 28: 1, 8: 32}","[8, 12, 28, 56]",8321230281561,Ba1Mg30Ni1O32
HfMg30NiO32,mp-1036918,0.013600000000000279,8.88839497,0.0943472573828128,"{72: 1, 12: 30, 28: 1, 8: 32}","[8, 12, 28, 72]",8321230281721,Hf1Mg30Ni1O32
Mg30NiBiO32,mp-1036845,1.3833000000000002,6.97352622,0.07037087328125047,"{12: 30, 28: 1, 83: 1, 8: 32}","[8, 12, 28, 83]",8321230281831,Mg30Ni1Bi1O32
TiNiO3,mp-18732,0.0,4.91982181,0.0,"{22: 1, 28: 1, 8: 3}","[8, 22, 28]",83221281,Ti1Ni1O3
Mn15NiO32,mp-851082,0.6348999999999999,0.81400466,0.06159821730902859,"{25: 15, 28: 1, 8: 32}","[8, 25, 28]",8322515281,Mn15Ni1O32
Fe14Ni11O32,mp-685456,0.0,3.75190169,0.21307125570175156,"{26: 14, 28: 11, 8: 32}","[8, 26, 28]",83226142811,Fe14Ni11O32
Zn3Fe16Ni5O32,mp-1199236,1.0755,3.59286543,0.08652938812500022,"{30: 3, 26: 16, 28: 5, 8: 32}","[8, 26, 28, 30]",8322616285303,Zn3Fe16Ni5O32
ZnFe16Ni7O32,mp-1198303,1.2355999999999998,3.7472727,0.09365058062500076,"{30: 1, 26: 16, 28: 7, 8: 32}","[8, 26, 28, 30]",8322616287301,Zn1Fe16Ni7O32
Ni17(As3O16)2,mp-705872,2.4849999999999994,3.97181274,0.0,"{28: 17, 33: 6, 8: 32}","[8, 28, 33]",8322817336,Ni17As6O32
La15(NiO4)8,mp-1178158,0.047699999999999854,6.85094164,0.050076682181819265,"{57: 15, 28: 8, 8: 32}","[8, 28, 57]",8322885715,La15Ni8O32
VNiO3,mp-1206033,0.0,5.01761307,0.004752425000015492,"{23: 1, 28: 1, 8: 3}","[8, 23, 28]",83231281,V1Ni1O3
MnNiO3,mp-19331,0.0,4.01646301,0.0,"{25: 1, 28: 1, 8: 3}","[8, 25, 28]",83251281,Mn1Ni1O3
Mn2NiO3,mp-1221937,0.0,5.4649746,0.07208837916666866,"{25: 2, 28: 1, 8: 3}","[8, 25, 28]",83252281,Mn2Ni1O3
FeNiO3,mp-1272388,0.0,3.48442019,0.07782081216666548,"{26: 1, 28: 1, 8: 3}","[8, 26, 28]",83261281,Fe1Ni1O3
CoNiO3,mp-1178424,0.0,3.54713025,0.0,"{27: 1, 28: 1, 8: 3}","[8, 27, 28]",83271281,Co1Ni1O3
NiO3,mp-1209929,0.0,-2.8248857,1.0527620297916664,"{28: 1, 8: 3}","[8, 28]",83281,Ni1O3
ZnNiO3,mp-1378884,0.0,2.98433232,0.18782766924999983,"{30: 1, 28: 1, 8: 3}","[8, 28, 30]",83281301,Zn1Ni1O3
Zn2NiO3,mp-1215778,1.1883,3.70593552,0.10814039250000018,"{30: 2, 28: 1, 8: 3}","[8, 28, 30]",83281302,Zn2Ni1O3
GaNiO3,mp-1183983,0.0,3.90970737,1.0009901721666647,"{31: 1, 28: 1, 8: 3}","[8, 28, 31]",83281311,Ga1Ni1O3
NiAsO3,mp-976763,0.0,5.39962023,1.0137320043750062,"{28: 1, 33: 1, 8: 3}","[8, 28, 33]",83281331,Ni1As1O3
NiSeO3,mp-20460,0.0,4.44446871,0.0,"{28: 1, 34: 1, 8: 3}","[8, 28, 34]",83281341,Ni1Se1O3
RbNiO3,mp-975373,0.0,0.98607854,0.41978733500001475,"{37: 1, 28: 1, 8: 3}","[8, 28, 37]",83281371,Rb1Ni1O3
SrNiO3,mp-762506,0.0,2.92452991,0.04595171699999323,"{38: 1, 28: 1, 8: 3}","[8, 28, 38]",83281381,Sr1Ni1O3
YNiO3,mp-19242,0.0,3.86107093,0.0,"{39: 1, 28: 1, 8: 3}","[8, 28, 39]",83281391,Y1Ni1O3
ZrNiO3,mp-1188025,0.0,6.89266098,1.0092109739999975,"{40: 1, 28: 1, 8: 3}","[8, 28, 40]",83281401,Zr1Ni1O3
Zr9NiMo4O3,mp-1207431,0.0,5.90157677,0.549798318088234,"{40: 9, 28: 1, 42: 4, 8: 3}","[8, 28, 40, 42]",83281409424,Zr9Ni1Mo4O3
NiMoO3,mp-977100,0.0,4.46732219,0.9362926199999997,"{28: 1, 42: 1, 8: 3}","[8, 28, 42]",83281421,Ni1Mo1O3
NiRuO3,mp-976848,0.0,4.75016934,1.2007493319999973,"{28: 1, 44: 1, 8: 3}","[8, 28, 44]",83281441,Ni1Ru1O3
NiPdO3,mp-1186345,0.0,3.83850682,0.7809306560000007,"{28: 1, 46: 1, 8: 3}","[8, 28, 46]",83281461,Ni1Pd1O3
NiSnO3,mp-754654,1.7717,5.21969984,0.026179026000000327,"{28: 1, 50: 1, 8: 3}","[8, 28, 50]",83281501,Ni1Sn1O3
NiSbO3,mp-1186113,0.0,6.5899124,0.6628730848750015,"{28: 1, 51: 1, 8: 3}","[8, 28, 51]",83281511,Ni1Sb1O3
NiTeO3,mp-1209810,2.5735,6.04888838,0.04634622233333463,"{28: 1, 52: 1, 8: 3}","[8, 28, 52]",83281521,Ni1Te1O3
BaNiO3,mp-19138,1.4691999999999998,2.79794293,0.0,"{56: 1, 28: 1, 8: 3}","[8, 28, 56]",83281561,Ba1Ni1O3
LaNiO3,mp-19339,0.0,7.24925356,0.0,"{57: 1, 28: 1, 8: 3}","[8, 28, 57]",83281571,La1Ni1O3
CeNiO3,mp-776207,0.5667,6.22919563,0.09525672349999681,"{58: 1, 28: 1, 8: 3}","[8, 28, 58]",83281581,Ce1Ni1O3
PrNiO3,mp-22280,0.0,4.19196915,0.0,"{59: 1, 28: 1, 8: 3}","[8, 28, 59]",83281591,Pr1Ni1O3
NdNiO3,mp-22106,0.0,4.04176444,0.0,"{60: 1, 28: 1, 8: 3}","[8, 28, 60]",83281601,Nd1Ni1O3
SmNiO3,mp-22495,0.0,3.68795514,0.0,"{62: 1, 28: 1, 8: 3}","[8, 28, 62]",83281621,Sm1Ni1O3
EuNiO3,mp-20718,0.0,3.61542515,0.1364184510833386,"{63: 1, 28: 1, 8: 3}","[8, 28, 63]",83281631,Eu1Ni1O3
GdNiO3,mp-505604,0.0,4.23160946,0.0,"{64: 1, 28: 1, 8: 3}","[8, 28, 64]",83281641,Gd1Ni1O3
TbNiO3,mp-755865,0.0,3.93127481,0.0,"{65: 1, 28: 1, 8: 3}","[8, 28, 65]",83281651,Tb1Ni1O3
DyNiO3,mp-19265,0.0,3.71095345,0.0,"{66: 1, 28: 1, 8: 3}","[8, 28, 66]",83281661,Dy1Ni1O3
HoNiO3,mp-18974,0.0,3.54283206,0.0,"{67: 1, 28: 1, 8: 3}","[8, 28, 67]",83281671,Ho1Ni1O3
ErNiO3,mp-18983,0.0,3.5501895,0.0,"{68: 1, 28: 1, 8: 3}","[8, 28, 68]",83281681,Er1Ni1O3
TmNiO3,mp-1106304,0.0,3.91801168,0.006444633333332561,"{69: 1, 28: 1, 8: 3}","[8, 28, 69]",83281691,Tm1Ni1O3
LuNiO3,mp-19327,0.0,3.53655309,0.015057614208335401,"{71: 1, 28: 1, 8: 3}","[8, 28, 71]",83281711,Lu1Ni1O3
HfNiO3,mp-1178219,2.7983000000000002,4.65652721,0.09684328849999524,"{72: 1, 28: 1, 8: 3}","[8, 28, 72]",83281721,Hf1Ni1O3