formula,material_id,band_gap,efermi,energy_above_hull,comp_atoms,sorted_keys_comp_atoms,comp_number,new_formula
HfMg6Ni,mp-1021790,0.0,4.02356737,0.2237400993749996,"{72: 1, 12: 6, 28: 1}","[12, 28, 72]",126281721,Hf1Mg6Ni1
Mg6NiW,mp-1021788,0.0,4.57211894,0.35075325291666726,"{12: 6, 28: 1, 74: 1}","[12, 28, 74]",126281741,Mg6Ni1W1
Mg6NiBi,mp-1021972,0.0,4.55136452,0.14121085322916604,"{12: 6, 28: 1, 83: 1}","[12, 28, 83]",126281831,Mg6Ni1Bi1
NiB10(H13O4)2,mp-1198697,3.8413,-1.15765767,0.2143382230154307,"{28: 1, 5: 10, 1: 26, 8: 8}","[1, 5, 8, 28]",12651088281,Ni1B10H26O8
NiP2H26C8S4(NO)2,mp-1202667,1.8343000000000003,0.67645023,0.055428837446446444,"{28: 1, 15: 2, 1: 26, 6: 8, 16: 4, 7: 2, 8: 2}","[1, 6, 7, 8, 15, 16, 28]",126687282152164281,Ni1P2H26C8S4N2O2
Na2NiMo6H26(NO15)2,mp-1198211,2.6576,-0.39556041,0.058075097538638154,"{11: 2, 28: 1, 42: 6, 1: 26, 7: 2, 8: 30}","[1, 7, 8, 11, 28, 42]",12672830112281426,Na2Ni1Mo6H26N2O30
Mg7Ni,mp-1016301,0.0,3.98014623,0.11169814979166715,"{12: 7, 28: 1}","[12, 28]",127281,Mg7Ni1
NiH2(SN)4,mp-696193,0.9638999999999998,2.20232346,0.37033046852272555,"{28: 1, 1: 2, 16: 4, 7: 4}","[1, 7, 16, 28]",1274164281,Ni1H2S4N4
Na2Ni3P2(HO5)2,mp-1190479,3.9136,2.51547092,0.007439122236839957,"{11: 2, 28: 3, 15: 2, 1: 2, 8: 10}","[1, 8, 11, 15, 28]",12810112152283,Na2Ni3P2H2O10
BaMgV2Ni3(HO5)2,mp-1233294,1.3721999999999999,2.9266659,0.27480588703158215,"{56: 1, 12: 1, 23: 2, 28: 3, 1: 2, 8: 10}","[1, 8, 12, 23, 28, 56]",12810121232283561,Ba1Mg1V2Ni3H2O10
BaCaV2Ni3(HO5)2,mp-1233236,0.4437000000000002,3.17040779,0.35425144362782834,"{56: 1, 20: 1, 23: 2, 28: 3, 1: 2, 8: 10}","[1, 8, 20, 23, 28, 56]",12810201232283561,Ba1Ca1V2Ni3H2O10
BaV2Ni3(HO5)2,mp-1205427,2.5875999999999997,1.93646716,0.0,"{56: 1, 23: 2, 28: 3, 1: 2, 8: 10}","[1, 8, 23, 28, 56]",12810232283561,Ba1V2Ni3H2O10
Ni3H2Se3O10,mp-24540,2.6843000000000004,1.7925722,0.0,"{28: 3, 1: 2, 34: 3, 8: 10}","[1, 8, 28, 34]",12810283343,Ni3H2Se3O10
KAlSi3Ni3(HO6)2,mp-1223621,3.2453,5.89217129,0.0,"{19: 1, 13: 1, 14: 3, 28: 3, 1: 2, 8: 12}","[1, 8, 13, 14, 19, 28]",12812131143191283,K1Al1Si3Ni3H2O12
Ni3AgP3(HO6)2,mp-24731,2.7641,6.24072943,0.0,"{28: 3, 47: 1, 15: 3, 1: 2, 8: 12}","[1, 8, 15, 28, 47]",12812153283471,Ni3Ag1P3H2O12
Ni5H2Se6(ClO4)4,mp-1195170,3.0001,3.67578127,0.0,"{28: 5, 1: 2, 34: 6, 17: 4, 8: 16}","[1, 8, 17, 28, 34]",12816174285346,Ni5H2Se6Cl4O16
Ni(HO)2,mp-27912,0.7670000000000003,3.40736566,0.010946422500000885,"{28: 1, 1: 2, 8: 2}","[1, 8, 28]",1282281,Ni1H2O2
Mg8Ni3Pd,mp-1222588,0.0,4.46239599,0.0031184607638898854,"{12: 8, 28: 3, 46: 1}","[12, 28, 46]",128283461,Mg8Ni3Pd1
NiH2(ClO2)2,mp-1196111,0.0,-1.70278565,0.5556221775231469,"{28: 1, 1: 2, 17: 2, 8: 4}","[1, 8, 17, 28]",1284172281,Ni1H2Cl2O4
KNiPH2O5,mp-644129,4.0043999999999995,1.34008003,0.0,"{19: 1, 28: 1, 15: 1, 1: 2, 8: 5}","[1, 8, 15, 19, 28]",1285151191281,K1Ni1P1H2O5
NiH2SO5,mp-643570,0.0,3.48141793,0.0,"{28: 1, 1: 2, 16: 1, 8: 5}","[1, 8, 16, 28]",1285161281,Ni1H2S1O5
NiH2SeO5,mp-23968,2.6943,0.66131148,0.0,"{28: 1, 1: 2, 34: 1, 8: 5}","[1, 8, 28, 34]",1285281341,Ni1H2Se1O5
Na2NiP2(HO3)2,mp-1200779,4.3873,1.14648145,0.08985043017949312,"{11: 2, 28: 1, 15: 2, 1: 2, 8: 6}","[1, 8, 11, 15, 28]",1286112152281,Na2Ni1P2H2O6
NiP2H2O7,mp-1202294,4.8327,0.42708085,0.0,"{28: 1, 15: 2, 1: 2, 8: 7}","[1, 8, 15, 28]",1287152281,Ni1P2H2O7
Ti4Al11Ni,mp-1217228,0.0,7.76256359,0.052130193828125115,"{22: 4, 13: 11, 28: 1}","[13, 22, 28]",1311224281,Ti4Al11Ni1
AlSiNi2,mp-1228043,0.0,9.92294806,0.004708481875001169,"{13: 1, 14: 1, 28: 2}","[13, 14, 28]",131141282,Al1Si1Ni2
AlSiNi6,mp-1228041,0.0,9.06391144,9.628749998213948e-06,"{13: 1, 14: 1, 28: 6}","[13, 14, 28]",131141286,Al1Si1Ni6
AlSi9Ni16,mp-1228673,0.0,10.00683401,0.0074860736538440165,"{13: 1, 14: 9, 28: 16}","[13, 14, 28]",1311492816,Al1Si9Ni16
Al(NiS2)2,mp-1045491,0.0,6.44714782,0.190645451904758,"{13: 1, 28: 2, 16: 4}","[13, 16, 28]",131164282,Al1Ni2S4
Y3AlNiS7,mp-1190741,0.0,5.21292314,0.03341725288889119,"{39: 3, 13: 1, 28: 1, 16: 7}","[13, 16, 28, 39]",131167281393,Y3Al1Ni1S7
La3AlNiS7,mp-1191776,0.0,6.23230287,0.03263147522222276,"{57: 3, 13: 1, 28: 1, 16: 7}","[13, 16, 28, 57]",131167281573,La3Al1Ni1S7
Pr3AlNiS7,mp-1191447,0.0,4.78883801,0.030641221638890492,"{59: 3, 13: 1, 28: 1, 16: 7}","[13, 16, 28, 59]",131167281593,Pr3Al1Ni1S7
Nd3AlNiS7,mp-975614,0.0,4.70108297,0.033979228347223334,"{60: 3, 13: 1, 28: 1, 16: 7}","[13, 16, 28, 60]",131167281603,Nd3Al1Ni1S7
Sm3AlNiS7,mp-1192334,0.0,4.79070239,0.04119609179357031,"{62: 3, 13: 1, 28: 1, 16: 7}","[13, 16, 28, 62]",131167281623,Sm3Al1Ni1S7
Dy3AlNiS7,mp-1192418,0.0,5.07905118,0.027667817222224222,"{66: 3, 13: 1, 28: 1, 16: 7}","[13, 16, 28, 66]",131167281663,Dy3Al1Ni1S7
ScAlNi,mp-1219369,0.0,6.63829791,0.014483089166668073,"{21: 1, 13: 1, 28: 1}","[13, 21, 28]",131211281,Sc1Al1Ni1
ScAlNi2,mp-10898,0.0,7.07468705,0.0,"{21: 1, 13: 1, 28: 2}","[13, 21, 28]",131211282,Sc1Al1Ni2
MgNiH3,mp-1017629,0.46699999999999964,6.34714706,0.00522910262500087,"{12: 1, 28: 1, 1: 3}","[1, 12, 28]",13121281,Mg1Ni1H3
TiAlNi,mp-1217084,0.0,7.39310256,0.06228255833333307,"{22: 1, 13: 1, 28: 1}","[13, 22, 28]",131221281,Ti1Al1Ni1
TiAlNi2,mp-7187,0.0,8.02161151,0.0,"{22: 1, 13: 1, 28: 2}","[13, 22, 28]",131221282,Ti1Al1Ni2
TiAlNi6,mp-1217044,0.0,8.05734485,0.0,"{22: 1, 13: 1, 28: 6}","[13, 22, 28]",131221286,Ti1Al1Ni6
Ti2AlNi,mp-1187453,0.0,7.00039012,0.18020235125000017,"{22: 2, 13: 1, 28: 1}","[13, 22, 28]",131222281,Ti2Al1Ni1
Ti3AlNi12,mp-1217197,0.0,7.903294,0.005218928437499493,"{22: 3, 13: 1, 28: 12}","[13, 22, 28]",1312232812,Ti3Al1Ni12
AlVNi,mp-961650,0.0,5.7260351,0.8145682033333337,"{13: 1, 23: 1, 28: 1}","[13, 23, 28]",131231281,Al1V1Ni1
AlVNi2,mp-10899,0.0,7.99677711,0.04628494739583289,"{13: 1, 23: 1, 28: 2}","[13, 23, 28]",131231282,Al1V1Ni2
AlCrNi,mp-1228985,0.0,7.82134245,0.40834745666666805,"{13: 1, 24: 1, 28: 1}","[13, 24, 28]",131241281,Al1Cr1Ni1
AlCrNi2,mp-10885,0.0,7.83429479,0.12931124062500032,"{13: 1, 24: 1, 28: 2}","[13, 24, 28]",131241282,Al1Cr1Ni2
MnAlNi2,mp-4922,0.0,7.57571564,0.0,"{25: 1, 13: 1, 28: 2}","[13, 25, 28]",131251282,Mn1Al1Ni2
LaMnAlNi3,mp-1222882,0.0,7.86212635,0.042025182219824764,"{57: 1, 25: 1, 13: 1, 28: 3}","[13, 25, 28, 57]",131251283571,La1Mn1Al1Ni3
MnAlNi6,mp-1221740,0.0,8.21255872,0.01832406374999973,"{25: 1, 13: 1, 28: 6}","[13, 25, 28]",131251286,Mn1Al1Ni6
AlFe2Ni,mp-31186,0.0,7.15918299,0.23506995500000016,"{13: 1, 26: 2, 28: 1}","[13, 26, 28]",131262281,Al1Fe2Ni1
AlCoNi6,mp-1228972,0.0,8.01437535,0.01928601062500057,"{13: 1, 27: 1, 28: 6}","[13, 27, 28]",131271286,Al1Co1Ni6
AlCo2Ni,mp-1214822,0.0,7.27373039,0.10032841049999952,"{13: 1, 27: 2, 28: 1}","[13, 27, 28]",131272281,Al1Co2Ni1
AlNi,mp-1487,0.0,10.47765691,0.0,"{13: 1, 28: 1}","[13, 28]",131281,Al1Ni1
Al(Ni4Pt)3,mp-1229119,0.0,7.92070473,0.027030415000000474,"{13: 1, 28: 12, 78: 3}","[13, 28, 78]",1312812783,Al1Ni12Pt3
AlNiGe,mp-1228803,0.0,8.21604858,0.0306247783333351,"{13: 1, 28: 1, 32: 1}","[13, 28, 32]",131281321,Al1Ni1Ge1
YAlNi,mp-13095,0.0,5.76641317,0.0,"{39: 1, 13: 1, 28: 1}","[13, 28, 39]",131281391,Y1Al1Ni1
ZrAlNi,mp-5723,0.0,6.56136917,0.0,"{40: 1, 13: 1, 28: 1}","[13, 28, 40]",131281401,Zr1Al1Ni1
NbAlNi,mp-1220500,0.0,7.14486991,0.012097076508771565,"{41: 1, 13: 1, 28: 1}","[13, 28, 41]",131281411,Nb1Al1Ni1
AlNiRh2,mp-1096379,0.0,-3.7414859,3.1206975124999996,"{13: 1, 28: 1, 45: 2}","[13, 28, 45]",131281452,Al1Ni1Rh2
LaAlNi,mp-1211364,0.0,8.25769806,0.0,"{57: 1, 13: 1, 28: 1}","[13, 28, 57]",131281571,La1Al1Ni1
CeAlNi,mp-11351,0.0,8.21983911,0.0,"{58: 1, 13: 1, 28: 1}","[13, 28, 58]",131281581,Ce1Al1Ni1
PrAlNi,mp-1079699,0.0,5.77126451,0.0,"{59: 1, 13: 1, 28: 1}","[13, 28, 59]",131281591,Pr1Al1Ni1
NdAlNi,mp-1078757,0.0,5.67141922,0.0,"{60: 1, 13: 1, 28: 1}","[13, 28, 60]",131281601,Nd1Al1Ni1
SmAlNi,mp-1219141,0.0,5.92521478,0.5537099552976201,"{62: 1, 13: 1, 28: 1}","[13, 28, 62]",131281621,Sm1Al1Ni1
GdAlNi,mp-1101090,0.0,5.51335405,0.0,"{64: 1, 13: 1, 28: 1}","[13, 28, 64]",131281641,Gd1Al1Ni1
TbAlNi,mp-11538,0.0,5.71288795,0.0,"{65: 1, 13: 1, 28: 1}","[13, 28, 65]",131281651,Tb1Al1Ni1
DyAlNi,mp-3053,0.0,5.75855807,0.0,"{66: 1, 13: 1, 28: 1}","[13, 28, 66]",131281661,Dy1Al1Ni1
HoAlNi,mp-2909,0.0,5.72146062,0.0,"{67: 1, 13: 1, 28: 1}","[13, 28, 67]",131281671,Ho1Al1Ni1
ErAlNi,mp-1078826,0.0,5.69214552,0.0,"{68: 1, 13: 1, 28: 1}","[13, 28, 68]",131281681,Er1Al1Ni1
TmAlNi,mp-1087523,0.0,5.70540468,0.0,"{69: 1, 13: 1, 28: 1}","[13, 28, 69]",131281691,Tm1Al1Ni1
LuAlNi,mp-1079819,0.0,5.67247658,0.0,"{71: 1, 13: 1, 28: 1}","[13, 28, 71]",131281711,Lu1Al1Ni1
HfAlNi,mp-1078767,0.0,7.04378365,0.0,"{72: 1, 13: 1, 28: 1}","[13, 28, 72]",131281721,Hf1Al1Ni1
TaAlNi,mp-1218116,0.0,7.53001047,0.031176616333340235,"{73: 1, 13: 1, 28: 1}","[13, 28, 73]",131281731,Ta1Al1Ni1
AlNiPt2,mp-1096407,0.0,-4.32879074,2.7007208300000007,"{13: 1, 28: 1, 78: 2}","[13, 28, 78]",131281782,Al1Ni1Pt2
ThAlNi,mp-1078581,0.0,7.92370863,0.0,"{90: 1, 13: 1, 28: 1}","[13, 28, 90]",131281901,Th1Al1Ni1
UAlNi,mp-1079086,0.0,10.03854214,0.15678086111111433,"{92: 1, 13: 1, 28: 1}","[13, 28, 92]",131281921,U1Al1Ni1
PuAlNi,mp-1080177,0.0,10.81001465,0.739033945972225,"{94: 1, 13: 1, 28: 1}","[13, 28, 94]",131281941,Pu1Al1Ni1
AlNi2,mp-1025044,0.0,8.84013296,0.027575857500000467,"{13: 1, 28: 2}","[13, 28]",131282,Al1Ni2
AlCuNi2,mp-1096066,0.009100000000000108,-3.42893157,2.5655946381250008,"{13: 1, 29: 1, 28: 2}","[13, 28, 29]",131282291,Al1Cu1Ni2
CeAl(CuNi)2,mp-1226666,0.0,7.89991467,0.01665688270833332,"{58: 1, 13: 1, 29: 2, 28: 2}","[13, 28, 29, 58]",131282292581,Ce1Al1Cu2Ni2
AlZnNi2,mp-1093891,0.012199999999999989,-3.05963438,2.2682071374999997,"{13: 1, 30: 1, 28: 2}","[13, 28, 30]",131282301,Al1Zn1Ni2
AlGaNi2,mp-1183173,0.0,8.53831983,0.019714050952382323,"{13: 1, 31: 1, 28: 2}","[13, 28, 31]",131282311,Al1Ga1Ni2
Ce2AlGaNi2,mp-1227010,0.0,7.61887833,0.0,"{58: 2, 13: 1, 31: 1, 28: 2}","[13, 28, 31, 58]",131282311582,Ce2Al1Ga1Ni2
AlNi2As,mp-1228849,0.0,7.63407495,0.11935703232142814,"{13: 1, 28: 2, 33: 1}","[13, 28, 33]",131282331,Al1Ni2As1
Y2AlNi2,mp-604516,0.0,5.77713606,0.002298067499994616,"{39: 2, 13: 1, 28: 2}","[13, 28, 39]",131282392,Y2Al1Ni2
ZrAlNi2,mp-3944,0.0,6.97627983,0.0,"{40: 1, 13: 1, 28: 2}","[13, 28, 40]",131282401,Zr1Al1Ni2
Zr4AlNi2,mp-1261118,0.0,4.33249205,0.546365712857142,"{40: 4, 13: 1, 28: 2}","[13, 28, 40]",131282404,Zr4Al1Ni2
NbAlNi2,mp-4813,0.0,7.38486478,0.00719846491666587,"{41: 1, 13: 1, 28: 2}","[13, 28, 41]",131282411,Nb1Al1Ni2
Pr2AlNi2,mp-1069950,0.0,5.86877552,0.02291436666666513,"{59: 2, 13: 1, 28: 2}","[13, 28, 59]",131282592,Pr2Al1Ni2
Nd2AlNi2,mp-1069330,0.0,5.33049857,0.0,"{60: 2, 13: 1, 28: 2}","[13, 28, 60]",131282602,Nd2Al1Ni2
Sm2AlNi2,mp-1206462,0.0,5.39197102,0.0,"{62: 2, 13: 1, 28: 2}","[13, 28, 62]",131282622,Sm2Al1Ni2
Gd2AlNi2,mp-1071506,0.0,5.247006,0.0,"{64: 2, 13: 1, 28: 2}","[13, 28, 64]",131282642,Gd2Al1Ni2
Tb2AlNi2,mp-1069297,0.0,5.39320588,0.0,"{65: 2, 13: 1, 28: 2}","[13, 28, 65]",131282652,Tb2Al1Ni2
Dy2AlNi2,mp-1070646,0.0,5.37463668,0.003467503999991628,"{66: 2, 13: 1, 28: 2}","[13, 28, 66]",131282662,Dy2Al1Ni2
Ho2AlNi2,mp-1069801,0.0,5.30059459,0.0003067436666626122,"{67: 2, 13: 1, 28: 2}","[13, 28, 67]",131282672,Ho2Al1Ni2
Er2AlNi2,mp-1068244,0.0,5.43449777,0.0,"{68: 2, 13: 1, 28: 2}","[13, 28, 68]",131282682,Er2Al1Ni2
Tm2AlNi2,mp-1069611,0.0,5.33825723,0.0,"{69: 2, 13: 1, 28: 2}","[13, 28, 69]",131282692,Tm2Al1Ni2
Lu2AlNi2,mp-1070507,0.0,5.31586317,0.0,"{71: 2, 13: 1, 28: 2}","[13, 28, 71]",131282712,Lu2Al1Ni2
HfAlNi2,mp-5748,0.0,7.31555534,0.0,"{72: 1, 13: 1, 28: 2}","[13, 28, 72]",131282721,Hf1Al1Ni2
TaAlNi2,mp-5921,0.0,7.73960605,0.01263121712500137,"{73: 1, 13: 1, 28: 2}","[13, 28, 73]",131282731,Ta1Al1Ni2
AlNi3,mp-2593,0.0,8.50778329,0.0,"{13: 1, 28: 3}","[13, 28]",131283,Al1Ni3
LaAlCuNi3,mp-1222956,0.0,8.04983003,0.013165002619049737,"{57: 1, 13: 1, 29: 1, 28: 3}","[13, 28, 29, 57]",131283291571,La1Al1Cu1Ni3
AlNi3Sb,mp-1228852,0.0,8.46862595,0.2018214444999984,"{13: 1, 28: 3, 51: 1}","[13, 28, 51]",131283511,Al1Ni3Sb1
AlNi4Ge,mp-1228880,0.0,8.09250894,2.298305556180935e-05,"{13: 1, 28: 4, 32: 1}","[13, 28, 32]",131284321,Al1Ni4Ge1
AlNi4As3,mp-1228845,0.0,7.60093819,0.05738302973214182,"{13: 1, 28: 4, 33: 3}","[13, 28, 33]",131284333,Al1Ni4As3
Zr5AlNi4,mp-637263,0.0,5.70925404,0.012875591000002906,"{40: 5, 13: 1, 28: 4}","[13, 28, 40]",131284405,Zr5Al1Ni4
LaAlNi4,mp-1222929,0.0,8.39804094,0.0,"{57: 1, 13: 1, 28: 4}","[13, 28, 57]",131284571,La1Al1Ni4
CeAlNi4,mp-1226626,0.0,8.14755114,0.0,"{58: 1, 13: 1, 28: 4}","[13, 28, 58]",131284581,Ce1Al1Ni4
PrAlNi4,mp-1219687,0.0,6.70343504,0.0,"{59: 1, 13: 1, 28: 4}","[13, 28, 59]",131284591,Pr1Al1Ni4
NdAlNi4,mp-1220177,0.0,6.59023326,0.0,"{60: 1, 13: 1, 28: 4}","[13, 28, 60]",131284601,Nd1Al1Ni4
GdAlNi4,mp-1224779,0.0,6.5193527,0.0,"{64: 1, 13: 1, 28: 4}","[13, 28, 64]",131284641,Gd1Al1Ni4
TbAlNi4,mp-1217581,0.0,6.75701373,0.0,"{65: 1, 13: 1, 28: 4}","[13, 28, 65]",131284651,Tb1Al1Ni4
DyAlNi4,mp-1225297,0.0,6.63061452,0.0,"{66: 1, 13: 1, 28: 4}","[13, 28, 66]",131284661,Dy1Al1Ni4
HoAlNi4,mp-1223899,0.0,6.63190876,0.0,"{67: 1, 13: 1, 28: 4}","[13, 28, 67]",131284671,Ho1Al1Ni4
ErAlNi4,mp-1225548,0.0,6.58733266,0.0,"{68: 1, 13: 1, 28: 4}","[13, 28, 68]",131284681,Er1Al1Ni4
TmAlNi4,mp-1216573,0.0,6.63154036,0.0,"{69: 1, 13: 1, 28: 4}","[13, 28, 69]",131284691,Tm1Al1Ni4
UAlNi4,mp-16519,0.0,9.79239664,0.052041603376067336,"{92: 1, 13: 1, 28: 4}","[13, 28, 92]",131284921,U1Al1Ni4
AlCuNi6,mp-1228938,0.0,8.01936839,0.028141036250000084,"{13: 1, 29: 1, 28: 6}","[13, 28, 29]",131286291,Al1Cu1Ni6
AlGaNi6,mp-1228918,0.0,7.77792832,0.0,"{13: 1, 31: 1, 28: 6}","[13, 28, 31]",131286311,Al1Ga1Ni6
AlNi6Ge,mp-1228832,0.0,8.68072974,0.0,"{13: 1, 28: 6, 32: 1}","[13, 28, 32]",131286321,Al1Ni6Ge1
AlNi6Pd,mp-1228861,0.0,7.56084511,0.0795937321874991,"{13: 1, 28: 6, 46: 1}","[13, 28, 46]",131286461,Al1Ni6Pd1
TaAlNi6,mp-1218041,0.0,8.139519,0.0,"{73: 1, 13: 1, 28: 6}","[13, 28, 73]",131286731,Ta1Al1Ni6
Y3AlNi8,mp-1192326,0.0,5.98680589,0.17377542923611866,"{39: 3, 13: 1, 28: 8}","[13, 28, 39]",131288393,Y3Al1Ni8
Pr3AlNi8,mp-1191857,0.0,6.41876328,0.05115773958333314,"{59: 3, 13: 1, 28: 8}","[13, 28, 59]",131288593,Pr3Al1Ni8
Nd3AlNi8,mp-1190723,0.0,6.29114698,0.04454765874999911,"{60: 3, 13: 1, 28: 8}","[13, 28, 60]",131288603,Nd3Al1Ni8
Sm3AlNi8,mp-1191453,0.0,6.09407397,1.1443048527827404,"{62: 3, 13: 1, 28: 8}","[13, 28, 62]",131288623,Sm3Al1Ni8
Tb3AlNi8,mp-1191846,0.0,6.31906916,0.03459373374999952,"{65: 3, 13: 1, 28: 8}","[13, 28, 65]",131288653,Tb3Al1Ni8
Dy3AlNi8,mp-1192283,0.0,6.51491936,0.0,"{66: 3, 13: 1, 28: 8}","[13, 28, 66]",131288663,Dy3Al1Ni8
Ho3AlNi8,mp-1191645,0.0,6.30930362,0.03379911833333349,"{67: 3, 13: 1, 28: 8}","[13, 28, 67]",131288673,Ho3Al1Ni8
Er3AlNi8,mp-1190746,0.0,6.24408492,0.03253367958333797,"{68: 3, 13: 1, 28: 8}","[13, 28, 68]",131288683,Er3Al1Ni8
Tm3AlNi8,mp-1192029,0.0,6.25776494,0.012816202083334893,"{69: 3, 13: 1, 28: 8}","[13, 28, 69]",131288693,Tm3Al1Ni8
Lu3AlNi8,mp-1192322,0.0,6.41616329,0.004127456458331125,"{71: 3, 13: 1, 28: 8}","[13, 28, 71]",131288713,Lu3Al1Ni8
La2AlNi9,mp-568040,0.0,8.31483473,0.0,"{57: 2, 13: 1, 28: 9}","[13, 28, 57]",131289572,La2Al1Ni9
Th2(Al3Ni2)5,mp-1192626,0.0,8.27738348,0.1114820081481458,"{90: 2, 13: 15, 28: 10}","[13, 28, 90]",13152810902,Th2Al15Ni10
Al15Ni3Ge4,mp-1194643,0.0,6.46096188,0.013438267272725568,"{13: 15, 28: 3, 32: 4}","[13, 28, 32]",1315283324,Al15Ni3Ge4
Sc6Al16Ni7,mp-1194264,0.0,7.49617963,0.014458375517241606,"{21: 6, 13: 16, 28: 7}","[13, 21, 28]",1316216287,Sc6Al16Ni7
Ti6Al16Ni7,mp-865235,0.0,8.18121903,0.0,"{22: 6, 13: 16, 28: 7}","[13, 22, 28]",1316226287,Ti6Al16Ni7
Zr6Al16Ni7,mp-1193679,0.0,7.38648245,0.0,"{40: 6, 13: 16, 28: 7}","[13, 28, 40]",1316287406,Zr6Al16Ni7
Al18Co5Ni3,mp-1229050,0.0,7.980507,0.01024430925480857,"{13: 18, 27: 5, 28: 3}","[13, 27, 28]",1318275283,Al18Co5Ni3
U4Al18Ni5,mp-581536,0.0,8.68105924,0.06382334067901763,"{92: 4, 13: 18, 28: 5}","[13, 28, 92]",1318285924,U4Al18Ni5
Y3Al19Ni5,mp-642428,0.0,7.63843032,0.00010649944444374171,"{39: 3, 13: 19, 28: 5}","[13, 28, 39]",1319285393,Y3Al19Ni5
U3Al19Ni5,mp-1196284,0.0,8.70698286,0.007149171882718797,"{92: 3, 13: 19, 28: 5}","[13, 28, 92]",1319285923,U3Al19Ni5
CaNiH3,mp-1207078,0.0,5.68914589,0.0,"{20: 1, 28: 1, 1: 3}","[1, 20, 28]",13201281,Ca1Ni1H3
Al2NiCl8,mp-605912,0.5434000000000001,0.46359179,0.0141819304545443,"{13: 2, 28: 1, 17: 8}","[13, 17, 28]",132178281,Al2Ni1Cl8
ScAl2Ni,mp-12781,0.0,6.79041243,0.0,"{21: 1, 13: 2, 28: 1}","[13, 21, 28]",132211281,Sc1Al2Ni1
Al2VNi9,mp-1228540,0.0,8.29782525,0.0,"{13: 2, 23: 1, 28: 9}","[13, 23, 28]",132231289,Al2V1Ni9
MnAl2Ni,mp-1221656,0.0,8.60800569,0.0,"{25: 1, 13: 2, 28: 1}","[13, 25, 28]",132251281,Mn1Al2Ni1
Al2FeNi,mp-1228910,0.0,8.66497251,0.0,"{13: 2, 26: 1, 28: 1}","[13, 26, 28]",132261281,Al2Fe1Ni1
Al2CoNi,mp-1228913,0.0,8.66817931,0.0,"{13: 2, 27: 1, 28: 1}","[13, 27, 28]",132271281,Al2Co1Ni1
Al2CuNi,mp-1095860,0.0,-2.55470806,2.2282159908374997,"{13: 2, 29: 1, 28: 1}","[13, 28, 29]",132281291,Al2Cu1Ni1
Pr2Al2CuNi,mp-1219968,0.0,5.44465619,0.010395273888889278,"{59: 2, 13: 2, 29: 1, 28: 1}","[13, 28, 29, 59]",132281291592,Pr2Al2Cu1Ni1
Al2Cu2Ni,mp-1228962,0.0,8.75955061,0.13700611891666625,"{13: 2, 29: 2, 28: 1}","[13, 28, 29]",132281292,Al2Cu2Ni1
YAl2Ni,mp-13094,0.0,6.24032105,0.0,"{39: 1, 13: 2, 28: 1}","[13, 28, 39]",132281391,Y1Al2Ni1
Zr6Al2Ni,mp-13092,0.0,4.92714515,0.016527299999999023,"{40: 6, 13: 2, 28: 1}","[13, 28, 40]",132281406,Zr6Al2Ni1
Al2TcNi,mp-1096100,0.0,-2.86398534,3.0335127162499997,"{13: 2, 43: 1, 28: 1}","[13, 28, 43]",132281431,Al2Tc1Ni1
Al2NiRu,mp-867775,0.0,9.2813357,0.0,"{13: 2, 28: 1, 44: 1}","[13, 28, 44]",132281441,Al2Ni1Ru1
CeAl2Ni,mp-1206482,0.0,7.93891749,0.03936800236111182,"{58: 1, 13: 2, 28: 1}","[13, 28, 58]",132281581,Ce1Al2Ni1
PrAl2Ni,mp-1206143,0.0,5.98816047,0.0,"{59: 1, 13: 2, 28: 1}","[13, 28, 59]",132281591,Pr1Al2Ni1
NdAl2Ni,mp-1206051,0.0,5.8700445,0.0,"{60: 1, 13: 2, 28: 1}","[13, 28, 60]",132281601,Nd1Al2Ni1
SmAl2Ni,mp-1025458,0.0,5.69692398,0.0,"{62: 1, 13: 2, 28: 1}","[13, 28, 62]",132281621,Sm1Al2Ni1
GdAl2Ni,mp-630019,0.0,6.04980922,0.0,"{64: 1, 13: 2, 28: 1}","[13, 28, 64]",132281641,Gd1Al2Ni1
TbAl2Ni,mp-16516,0.0,6.18200771,0.0,"{65: 1, 13: 2, 28: 1}","[13, 28, 65]",132281651,Tb1Al2Ni1
DyAl2Ni,mp-569385,0.0,6.37806051,0.0,"{66: 1, 13: 2, 28: 1}","[13, 28, 66]",132281661,Dy1Al2Ni1
HoAl2Ni,mp-16503,0.0,6.20353567,0.0,"{67: 1, 13: 2, 28: 1}","[13, 28, 67]",132281671,Ho1Al2Ni1
ErAl2Ni,mp-31182,0.0,6.24156725,0.0,"{68: 1, 13: 2, 28: 1}","[13, 28, 68]",132281681,Er1Al2Ni1
TmAl2Ni,mp-16517,0.0,6.24823674,0.0,"{69: 1, 13: 2, 28: 1}","[13, 28, 69]",132281691,Tm1Al2Ni1
LuAl2Ni,mp-1025389,0.0,6.2944886,0.0,"{71: 1, 13: 2, 28: 1}","[13, 28, 71]",132281711,Lu1Al2Ni1
Hf6Al2Ni,mp-1206477,0.0,5.36323402,0.0,"{72: 6, 13: 2, 28: 1}","[13, 28, 72]",132281726,Hf6Al2Ni1
Al2NiOs,mp-1183155,0.0,9.00210828,0.0,"{13: 2, 28: 1, 76: 1}","[13, 28, 76]",132281761,Al2Ni1Os1
Al2NiPt,mp-1228426,0.0,9.16930587,0.05745528937500044,"{13: 2, 28: 1, 78: 1}","[13, 28, 78]",132281781,Al2Ni1Pt1
Al2Ni3,mp-1229048,0.0,9.04654856,0.0592241350000009,"{13: 2, 28: 3}","[13, 28]",132283,Al2Ni3
PrAl2Ni3,mp-10897,0.0,6.82098111,0.008323776666668614,"{59: 1, 13: 2, 28: 3}","[13, 28, 59]",132283591,Pr1Al2Ni3
ThAl2Ni3,mp-1217273,0.0,8.02232068,0.0026248902579384392,"{90: 1, 13: 2, 28: 3}","[13, 28, 90]",132283901,Th1Al2Ni3
Y3(AlNi3)2,mp-4577,0.0,6.06408773,0.0,"{39: 3, 13: 2, 28: 6}","[13, 28, 39]",132286393,Y3Al2Ni6
Sm3(AlNi3)2,mp-573541,0.0,5.97176661,0.0,"{62: 3, 13: 2, 28: 6}","[13, 28, 62]",132286623,Sm3Al2Ni6
Gd3(AlNi3)2,mp-580327,0.0,5.95865483,0.0,"{64: 3, 13: 2, 28: 6}","[13, 28, 64]",132286643,Gd3Al2Ni6
Tb3(AlNi3)2,mp-1191827,0.0,6.05081912,0.0,"{65: 3, 13: 2, 28: 6}","[13, 28, 65]",132286653,Tb3Al2Ni6
Dy3(AlNi3)2,mp-16807,0.0,6.06256247,0.0,"{66: 3, 13: 2, 28: 6}","[13, 28, 66]",132286663,Dy3Al2Ni6
Ho3(AlNi3)2,mp-30791,0.0,6.00120753,0.0,"{67: 3, 13: 2, 28: 6}","[13, 28, 67]",132286673,Ho3Al2Ni6