formula,material_id,band_gap,efermi,energy_above_hull,comp_atoms,sorted_keys_comp_atoms,comp_number,new_formula
Pr(NiBi)2,mp-1080179,0.0,6.77900548,0.055878243874996514,"{59: 1, 28: 2, 83: 2}","[28, 59, 83]",282591832,Pr1Ni2Bi2
NdNi2,mp-1343,0.0,6.29802269,0.0027456041666642506,"{60: 1, 28: 2}","[28, 60]",282601,Nd1Ni2
Nd(NiBi)2,mp-976277,0.0,6.69341447,0.07737171987499636,"{60: 1, 28: 2, 83: 2}","[28, 60, 83]",282601832,Nd1Ni2Bi2
SmNi2,mp-1402,0.0,6.02553657,0.0,"{62: 1, 28: 2}","[28, 62]",282621,Sm1Ni2
SmDyNi2,mp-1219090,0.0,4.72040807,0.7226679858333354,"{62: 1, 66: 1, 28: 2}","[28, 62, 66]",282621661,Sm1Dy1Ni2
SmErNi2,mp-1219097,0.0,4.44308013,0.7039285212499999,"{62: 1, 68: 1, 28: 2}","[28, 62, 68]",282621681,Sm1Er1Ni2
Sm(NiBi)2,mp-978997,0.0,6.74379856,0.7414657702857141,"{62: 1, 28: 2, 83: 2}","[28, 62, 83]",282621832,Sm1Ni2Bi2
GdNi2,mp-543019,0.0,5.94032584,0.0,"{64: 1, 28: 2}","[28, 64]",282641,Gd1Ni2
GdDyNi2,mp-1224783,0.0,4.47887553,0.0006792341666654877,"{64: 1, 66: 1, 28: 2}","[28, 64, 66]",282641661,Gd1Dy1Ni2
TbNi2,mp-276,0.0,6.18216075,0.0,"{65: 1, 28: 2}","[28, 65]",282651,Tb1Ni2
Tb3Ni2,mp-1079480,0.0,4.58355947,0.011405888749999704,"{65: 3, 28: 2}","[28, 65]",282653,Tb3Ni2
Tb5Ni2Bi,mp-1208428,0.0,4.59682375,0.012545719652778509,"{65: 5, 28: 2, 83: 1}","[28, 65, 83]",282655831,Tb5Ni2Bi1
DyNi2,mp-421,0.0,6.03719267,0.0,"{66: 1, 28: 2}","[28, 66]",282661,Dy1Ni2
Dy(NiBi)2,mp-1080746,0.0,6.74684918,0.18450850587500067,"{66: 1, 28: 2, 83: 2}","[28, 66, 83]",282661832,Dy1Ni2Bi2
Dy3Ni2,mp-7281,0.0,4.36557112,0.0,"{66: 3, 28: 2}","[28, 66]",282663,Dy3Ni2
Dy5Ni2Bi,mp-1212912,0.0,4.57285456,0.0016784361805575188,"{66: 5, 28: 2, 83: 1}","[28, 66, 83]",282665831,Dy5Ni2Bi1
HoNi2,mp-673,0.0,6.08797387,0.0,"{67: 1, 28: 2}","[28, 67]",282671,Ho1Ni2
Ho2Ni2Pb,mp-3398,0.0,5.79789884,0.0,"{67: 2, 28: 2, 82: 1}","[28, 67, 82]",282672821,Ho2Ni2Pb1
Ho3Ni2,mp-1080523,0.0,4.33327659,0.005092273500003408,"{67: 3, 28: 2}","[28, 67]",282673,Ho3Ni2
Ho5Ni2Bi,mp-1189131,0.0,4.47288032,0.0047000035937490026,"{67: 5, 28: 2, 83: 1}","[28, 67, 83]",282675831,Ho5Ni2Bi1
ErNi2,mp-1939,0.0,6.03758261,0.0,"{68: 1, 28: 2}","[28, 68]",282681,Er1Ni2
Er3Ni2,mp-540546,0.0,4.27105413,0.012651877666664646,"{68: 3, 28: 2}","[28, 68]",282683,Er3Ni2
Er5Ni2Bi,mp-1213249,0.0,4.50738603,0.0,"{68: 5, 28: 2, 83: 1}","[28, 68, 83]",282685831,Er5Ni2Bi1
TmNi2,mp-1576,0.0,5.92765295,0.0,"{69: 1, 28: 2}","[28, 69]",282691,Tm1Ni2
Tm2Ni2Pb,mp-1206382,0.0,5.80641101,0.0,"{69: 2, 28: 2, 82: 1}","[28, 69, 82]",282692821,Tm2Ni2Pb1
Tm5Ni2Bi,mp-1208016,0.0,4.44960925,0.0,"{69: 5, 28: 2, 83: 1}","[28, 69, 83]",282695831,Tm5Ni2Bi1
LuNi2,mp-2130,0.0,5.97278512,0.0,"{71: 1, 28: 2}","[28, 71]",282711,Lu1Ni2
Lu5Ni2Bi,mp-1210651,0.0,4.39042047,0.0,"{71: 5, 28: 2, 83: 1}","[28, 71, 83]",282715831,Lu5Ni2Bi1
HfNi2,mp-30708,0.0,7.04065137,0.04818357683333474,"{72: 1, 28: 2}","[28, 72]",282721,Hf1Ni2
HfNi2Au,mp-1096255,0.2676000000000003,-2.92897341,2.619872504499998,"{72: 1, 28: 2, 79: 1}","[28, 72, 79]",282721791,Hf1Ni2Au1
TaNi2,mp-1157,0.0,7.2023788,0.003738403500005205,"{73: 1, 28: 2}","[28, 73]",282731,Ta1Ni2
Lu10Ni28As19,mp-1212094,0.0,6.91105295,0.0,"{71: 10, 28: 28, 33: 19}","[28, 33, 71]",282833197110,Lu10Ni28As19
ThNi2,mp-220,0.0,7.59186158,0.0,"{90: 1, 28: 2}","[28, 90]",282901,Th1Ni2
UNi2,mp-17023,0.0,11.14284239,0.020318664679490617,"{92: 1, 28: 2}","[28, 92]",282921,U1Ni2
NpNi2,mp-1532,0.0,12.54023685,0.0,"{93: 1, 28: 2}","[28, 93]",282931,Np1Ni2
PuNi2,mp-30803,0.0,12.19042199,0.4391769971759274,"{94: 1, 28: 2}","[28, 94]",282941,Pu1Ni2
Y15Ni32,mp-1200338,0.0,5.75240403,0.0,"{39: 15, 28: 32}","[28, 39]",28323915,Y15Ni32
Ce15Ni32,mp-1229288,0.0,9.03755089,0.0023196492198591656,"{58: 15, 28: 32}","[28, 58]",28325815,Ce15Ni32
CuNi3,mp-1184054,0.0,7.73145062,0.0430200825,"{29: 1, 28: 3}","[28, 29]",283291,Cu1Ni3
LaCu2Ni3,mp-1222916,0.0,7.8994052,0.0,"{57: 1, 29: 2, 28: 3}","[28, 29, 57]",283292571,La1Cu2Ni3
TbCu2Ni3,mp-1217570,0.0,6.26306891,0.0,"{65: 1, 29: 2, 28: 3}","[28, 29, 65]",283292651,Tb1Cu2Ni3
U6Cu3Ni3Sb8,mp-1217232,0.0,10.01050442,0.0,"{92: 6, 29: 3, 28: 3, 51: 8}","[28, 29, 51, 92]",283293518926,U6Cu3Ni3Sb8
ZnNi3,mp-971804,0.0,6.41783994,0.011426597499999858,"{30: 1, 28: 3}","[28, 30]",283301,Zn1Ni3
Zn(GaNi)3,mp-570845,0.0,5.6128012,0.0,"{30: 1, 31: 3, 28: 3}","[28, 30, 31]",283301313,Zn1Ga3Ni3
ZnNi3Sb2,mp-11620,0.0,8.56787658,0.21774195833333287,"{30: 1, 28: 3, 51: 2}","[28, 30, 51]",283301512,Zn1Ni3Sb2
La3ZnNi3,mp-18573,0.0,8.0111734,0.007067002619049134,"{57: 3, 30: 1, 28: 3}","[28, 30, 57]",283301573,La3Zn1Ni3
Zn22Ni3,mp-1207504,0.0,3.77691648,0.0,"{30: 22, 28: 3}","[28, 30]",2833022,Zn22Ni3
LaZn2Ni3,mp-1222749,0.0,6.86317242,0.0,"{57: 1, 30: 2, 28: 3}","[28, 30, 57]",283302571,La1Zn2Ni3
CeZn2Ni3,mp-1226538,0.0,6.3607291,0.007406550462962791,"{58: 1, 30: 2, 28: 3}","[28, 30, 58]",283302581,Ce1Zn2Ni3
GaNi3,mp-815,0.0,7.25783805,0.0,"{31: 1, 28: 3}","[28, 31]",283311,Ga1Ni3
GaNi3As,mp-1224813,0.0,6.90374684,0.06805563660417668,"{31: 1, 28: 3, 33: 1}","[28, 31, 33]",283311331,Ga1Ni3As1
Nb2GaNi3,mp-1220738,0.0,6.52750361,0.020976291199377606,"{41: 2, 31: 1, 28: 3}","[28, 31, 41]",283311412,Nb2Ga1Ni3
GaNi3Sb,mp-1224811,0.0,7.6000455,0.16502519099999802,"{31: 1, 28: 3, 51: 1}","[28, 31, 51]",283311511,Ga1Ni3Sb1
Ta2GaNi3,mp-1218018,0.0,6.93303264,0.029826270698926294,"{73: 2, 31: 1, 28: 3}","[28, 31, 73]",283311732,Ta2Ga1Ni3
YGa2Ni3,mp-30659,0.0,5.85199435,0.0,"{39: 1, 31: 2, 28: 3}","[28, 31, 39]",283312391,Y1Ga2Ni3
LaGa2Ni3,mp-1223449,0.0,7.17277915,0.0,"{57: 1, 31: 2, 28: 3}","[28, 31, 57]",283312571,La1Ga2Ni3
CeGa2Ni3,mp-1227952,0.0,6.83941818,0.0,"{58: 1, 31: 2, 28: 3}","[28, 31, 58]",283312581,Ce1Ga2Ni3
PrGa2Ni3,mp-1220050,0.0,5.53687906,0.0,"{59: 1, 31: 2, 28: 3}","[28, 31, 59]",283312591,Pr1Ga2Ni3
NdGa2Ni3,mp-1220258,0.0,5.45477601,0.0,"{60: 1, 31: 2, 28: 3}","[28, 31, 60]",283312601,Nd1Ga2Ni3
SmGa2Ni3,mp-1219054,0.0,5.54335874,0.0,"{62: 1, 31: 2, 28: 3}","[28, 31, 62]",283312621,Sm1Ga2Ni3
TbGa2Ni3,mp-1217547,0.0,5.65256386,0.0,"{65: 1, 31: 2, 28: 3}","[28, 31, 65]",283312651,Tb1Ga2Ni3
DyGa2Ni3,mp-1225918,0.0,5.61288232,0.0,"{66: 1, 31: 2, 28: 3}","[28, 31, 66]",283312661,Dy1Ga2Ni3
HoGa2Ni3,mp-1224460,0.0,5.5310549,0.0,"{67: 1, 31: 2, 28: 3}","[28, 31, 67]",283312671,Ho1Ga2Ni3
ErGa2Ni3,mp-1225816,0.0,5.63653162,0.0,"{68: 1, 31: 2, 28: 3}","[28, 31, 68]",283312681,Er1Ga2Ni3
TmGa2Ni3,mp-1106118,0.0,5.74207738,0.0,"{69: 1, 31: 2, 28: 3}","[28, 31, 69]",283312691,Tm1Ga2Ni3
LuGa2Ni3,mp-1222813,0.0,5.53732747,0.0,"{71: 1, 31: 2, 28: 3}","[28, 31, 71]",283312711,Lu1Ga2Ni3
Ga4Ni3,mp-30655,0.0,6.03340146,0.009664909328231275,"{31: 4, 28: 3}","[28, 31]",283314,Ga4Ni3
Ga4Ni3Pd,mp-1224821,0.0,5.82064581,0.022373894955357798,"{31: 4, 28: 3, 46: 1}","[28, 31, 46]",283314461,Ga4Ni3Pd1
Ga4Ni3Pt,mp-1224838,0.0,6.21887365,0.002767680072116363,"{31: 4, 28: 3, 78: 1}","[28, 31, 78]",283314781,Ga4Ni3Pt1
Hf4Ga5Ni3,mp-1224818,0.0,5.48221323,0.07867740090277664,"{72: 4, 31: 5, 28: 3}","[28, 31, 72]",283315724,Hf4Ga5Ni3
Ga7Ni3,mp-16852,0.0,4.84692716,0.017288673499997742,"{31: 7, 28: 3}","[28, 31]",283317,Ga7Ni3
Y3Ga8Ni3,mp-1216196,0.0,4.62410715,0.04337493000000148,"{39: 3, 31: 8, 28: 3}","[28, 31, 39]",283318393,Y3Ga8Ni3
Er3Ga8Ni3,mp-1225820,0.0,4.64225287,0.05131851785714048,"{68: 3, 31: 8, 28: 3}","[28, 31, 68]",283318683,Er3Ga8Ni3
Ni3Ge,mp-21008,0.0,8.66288834,0.0,"{28: 3, 32: 1}","[28, 32]",283321,Ni3Ge1
Ho4(NiGe4)3,mp-1224312,0.0,4.46289729,0.008386456929826203,"{67: 4, 28: 3, 32: 12}","[28, 32, 67]",2833212674,Ho4Ni3Ge12
Nb2Ni3Ge,mp-1220746,0.0,7.32915723,0.05387858472222362,"{41: 2, 28: 3, 32: 1}","[28, 32, 41]",283321412,Nb2Ni3Ge1
Ta2Ni3Ge,mp-1218029,0.0,7.85912766,0.055818578888892745,"{73: 2, 28: 3, 32: 1}","[28, 32, 73]",283321732,Ta2Ni3Ge1
Ba4Ni3Ge20,mp-30169,0.0,3.3582277,0.018151793425925433,"{56: 4, 28: 3, 32: 20}","[28, 32, 56]",2833220564,Ba4Ni3Ge20
SrNi3Ge2,mp-12521,0.0,6.0798678,0.0,"{38: 1, 28: 3, 32: 2}","[28, 32, 38]",283322381,Sr1Ni3Ge2
ErNi3Ge2,mp-570035,0.0,5.90457814,0.0,"{68: 1, 28: 3, 32: 2}","[28, 32, 68]",283322681,Er1Ni3Ge2
TmNi3Ge2,mp-1208263,0.0,5.85211109,0.0,"{69: 1, 28: 3, 32: 2}","[28, 32, 69]",283322691,Tm1Ni3Ge2
Sm(NiGe)3,mp-17658,0.0,7.0864277,0.4634283238095245,"{62: 1, 28: 3, 32: 3}","[28, 32, 62]",283323621,Sm1Ni3Ge3
Ce2Ni3Ge5,mp-1213960,0.0,7.08265365,0.0,"{58: 2, 28: 3, 32: 5}","[28, 32, 58]",283325582,Ce2Ni3Ge5
Pr2Ni3Ge5,mp-1188239,0.0,5.82035575,0.01072194724999953,"{59: 2, 28: 3, 32: 5}","[28, 32, 59]",283325592,Pr2Ni3Ge5
Sm4Ni3Ge8,mp-1219214,0.0,4.6456018,0.14878535277777782,"{62: 4, 28: 3, 32: 8}","[28, 32, 62]",283328624,Sm4Ni3Ge8
Tb4Ni3Ge8,mp-1217655,0.0,4.78037648,0.0021923451111200976,"{65: 4, 28: 3, 32: 8}","[28, 32, 65]",283328654,Tb4Ni3Ge8
Ni3As,mp-976930,0.0,8.92232413,0.08089684604166791,"{28: 3, 33: 1}","[28, 33]",283331,Ni3As1
Pr2(NiAs)3,mp-1207175,0.0,-1.48631851,2.3458215193750003,"{59: 2, 28: 3, 33: 3}","[28, 33, 59]",283333592,Pr2Ni3As3
Hf2(NiAs)3,mp-1203331,0.0,7.38667438,0.0,"{72: 2, 28: 3, 33: 3}","[28, 33, 72]",283333722,Hf2Ni3As3
U2Ni3As4,mp-1216884,0.0,9.13108296,0.02276050769097715,"{92: 2, 28: 3, 33: 4}","[28, 33, 92]",283334922,U2Ni3As4
Zr4Ni3As8,mp-1215378,0.0,6.64850344,0.0,"{40: 4, 28: 3, 33: 8}","[28, 33, 40]",283338404,Zr4Ni3As8
Hf4Ni3As8,mp-1224437,0.0,6.98412233,0.019468145726190045,"{72: 4, 28: 3, 33: 8}","[28, 33, 72]",283338724,Hf4Ni3As8
Ni3Se,mp-1186370,0.0,8.65360693,0.27393672124999924,"{28: 3, 34: 1}","[28, 34]",283341,Ni3Se1
Ni3Se2,mp-2056,0.0,6.12520908,0.0,"{28: 3, 34: 2}","[28, 34]",283342,Ni3Se2
Rb2Ni3Se2,mp-1212591,0.1198999999999999,1.60262451,0.34556896023809447,"{37: 2, 28: 3, 34: 2}","[28, 34, 37]",283342372,Rb2Ni3Se2
In2Ni3Se2,mp-1078086,0.0,7.01499097,0.031226062857140136,"{49: 2, 28: 3, 34: 2}","[28, 34, 49]",283342492,In2Ni3Se2
Ni3(PbSe)2,mp-19747,0.0,6.54983351,0.078700481428573,"{28: 3, 82: 2, 34: 2}","[28, 34, 82]",283342822,Ni3Pb2Se2
Ni3(BiSe)2,mp-30973,0.0,6.69169381,0.0,"{28: 3, 83: 2, 34: 2}","[28, 34, 83]",283342832,Ni3Bi2Se2
Ni3Se4,mp-1120781,0.0,5.36867839,0.0,"{28: 3, 34: 4}","[28, 34]",283344,Ni3Se4
Rb2Ni3Se4,mp-18691,0.0,1.24267693,0.0,"{37: 2, 28: 3, 34: 4}","[28, 34, 37]",283344372,Rb2Ni3Se4
Cs2Ni3Se4,mp-14336,0.6160000000000001,3.1075746,0.0,"{55: 2, 28: 3, 34: 4}","[28, 34, 55]",283344552,Cs2Ni3Se4
Ta2Ni3Se8,mp-541509,0.3317000000000001,3.84381739,0.0,"{73: 2, 28: 3, 34: 8}","[28, 34, 73]",283348732,Ta2Ni3Se8
YNi3,mp-569196,0.0,6.29827414,0.0,"{39: 1, 28: 3}","[28, 39]",283391,Y1Ni3
YNi3Sn2,mp-1216216,0.0,7.86107176,0.008269539419192284,"{39: 1, 28: 3, 50: 2}","[28, 39, 50]",283391502,Y1Ni3Sn2
ZrNi3,mp-485,0.0,7.05418019,0.0,"{40: 1, 28: 3}","[28, 40]",283401,Zr1Ni3
Zr3Ni3Sb4,mp-17926,0.4341999999999997,8.09654286,0.0,"{40: 3, 28: 3, 51: 4}","[28, 40, 51]",283403514,Zr3Ni3Sb4
NbNi3,mp-1451,0.0,7.34496715,0.0,"{41: 1, 28: 3}","[28, 41]",283411,Nb1Ni3
Ni3Mo,mp-11506,0.0,8.39069138,0.0,"{28: 3, 42: 1}","[28, 42]",283421,Ni3Mo1
Ni3Rh,mp-1186347,0.0,7.66306184,0.024257211249999244,"{28: 3, 45: 1}","[28, 45]",283451,Ni3Rh1
LaNi3Rh2,mp-1222896,0.0,7.56194264,0.0,"{57: 1, 28: 3, 45: 2}","[28, 45, 57]",283452571,La1Ni3Rh2
Ni3Ag,mp-1100764,0.0,6.21380567,0.23321139333333285,"{28: 3, 47: 1}","[28, 47]",283471,Ni3Ag1
InNi3,mp-22469,0.0,8.69695882,0.05902754499999929,"{49: 1, 28: 3}","[28, 49]",283491,In1Ni3
InNi3Sb,mp-1223697,0.0,8.65244994,0.06291715066666725,"{49: 1, 28: 3, 51: 1}","[28, 49, 51]",283491511,In1Ni3Sb1
LaIn2Ni3,mp-1223959,0.0,8.62385838,0.032034788787876245,"{57: 1, 49: 2, 28: 3}","[28, 49, 57]",283492571,La1In2Ni3
La(In2Ni)3,mp-607848,0.0,8.8385259,0.015141099500000088,"{57: 1, 49: 6, 28: 3}","[28, 49, 57]",283496571,La1In6Ni3
Ce(In2Ni)3,mp-1189631,0.0,8.48734783,0.01683607949999999,"{58: 1, 49: 6, 28: 3}","[28, 49, 58]",283496581,Ce1In6Ni3
In7Ni3,mp-1212307,0.8483999999999998,7.97055855,0.0,"{49: 7, 28: 3}","[28, 49]",283497,In7Ni3
Ni3Sn,mp-11522,0.0,9.40697824,0.0,"{28: 3, 50: 1}","[28, 50]",283501,Ni3Sn1
Pr6Ni3Sn14,mp-1219950,0.0,7.19796963,0.0,"{59: 6, 28: 3, 50: 14}","[28, 50, 59]",2835014596,Pr6Ni3Sn14
Ni3Sn2,mp-669720,0.0,9.43599123,0.0,"{28: 3, 50: 2}","[28, 50]",283502,Ni3Sn2
U3Ni3(SnSb)2,mp-1216878,0.0,10.50115146,0.004358410124998713,"{92: 3, 28: 3, 50: 2, 51: 2}","[28, 50, 51, 92]",283502512923,U3Ni3Sn2Sb2
SmNi3Sn2,mp-1219134,0.0,7.69596248,0.7135201873015884,"{62: 1, 28: 3, 50: 2}","[28, 50, 62]",283502621,Sm1Ni3Sn2
TbNi3Sn2,mp-1217546,0.0,7.81865241,0.0028966659090894353,"{65: 1, 28: 3, 50: 2}","[28, 50, 65]",283502651,Tb1Ni3Sn2
DyNi3Sn2,mp-1213483,0.0,7.8722779,0.11205025519841527,"{66: 1, 28: 3, 50: 2}","[28, 50, 66]",283502661,Dy1Ni3Sn2
Ce10(NiSn)3,mp-1227879,0.0,8.23204708,0.0717489420312507,"{58: 10, 28: 3, 50: 3}","[28, 50, 58]",2835035810,Ce10Ni3Sn3
Ni3Sn4,mp-20174,0.0,9.22172319,0.0,"{28: 3, 50: 4}","[28, 50]",283504,Ni3Sn4
Ni3(Sn2Pt)2,mp-1220105,0.0,8.38821594,0.03719527972222103,"{28: 3, 50: 4, 78: 2}","[28, 50, 78]",283504782,Ni3Sn4Pt2
Th3Ni3Sn4,mp-1189639,0.0,8.20250139,0.0,"{90: 3, 28: 3, 50: 4}","[28, 50, 90]",283504903,Th3Ni3Sn4
U3Ni3Sn4,mp-567905,0.0,10.12138168,0.006884985249999254,"{92: 3, 28: 3, 50: 4}","[28, 50, 92]",283504923,U3Ni3Sn4
La4Ni3Sn8,mp-1223411,0.0,8.26019409,0.007899338388893895,"{57: 4, 28: 3, 50: 8}","[28, 50, 57]",283508574,La4Ni3Sn8
Ni3Sb,mp-672371,0.0,10.06060376,0.031380285000000896,"{28: 3, 51: 1}","[28, 51]",283511,Ni3Sb1
Ni3(SbTe)2,mp-1220090,0.0,8.74323847,0.03900445499999705,"{28: 3, 51: 2, 52: 2}","[28, 51, 52]",283512522,Ni3Sb2Te2
Eu2Ni3Sb4,mp-1225511,0.0,6.93775912,0.0,"{63: 2, 28: 3, 51: 4}","[28, 51, 63]",283514632,Eu2Ni3Sb4
Hf3Ni3Sb4,mp-1212441,0.7419999999999991,8.90422995,0.0,"{72: 3, 28: 3, 51: 4}","[28, 51, 72]",283514723,Hf3Ni3Sb4
U3Ni3Sb4,mp-504640,0.0,10.44932268,0.0,"{92: 3, 28: 3, 51: 4}","[28, 51, 92]",283514923,U3Ni3Sb4
Ni3Te,mp-976953,0.0,10.18624813,0.15348791812500018,"{28: 3, 52: 1}","[28, 52]",283521,Ni3Te1
Ni3Te2,mp-31103,0.0,8.47867941,0.0034061739999984297,"{28: 3, 52: 2}","[28, 52]",283522,Ni3Te2
Ni3Te4,mp-1220085,0.0,8.50802316,0.015030465714286123,"{28: 3, 52: 4}","[28, 52]",283524,Ni3Te4
Ta2Ni3Te5,mp-1208475,0.02119999999999944,6.4068014,0.0,"{73: 2, 28: 3, 52: 5}","[28, 52, 73]",283525732,Ta2Ni3Te5
Ni3I,mp-973896,0.0,10.04862611,0.5744421524999987,"{28: 3, 53: 1}","[28, 53]",283531,Ni3I1
LaNi3,mp-2764,0.0,9.02867082,0.0017624329166672226,"{57: 1, 28: 3}","[28, 57]",283571,La1Ni3
La2Ni3,mp-1691,0.0,8.91472173,0.009477530333334094,"{57: 2, 28: 3}","[28, 57]",283572,La2Ni3
La3Ni3Bi4,mp-1211407,0.0,7.71813338,0.0,"{57: 3, 28: 3, 83: 4}","[28, 57, 83]",283573834,La3Ni3Bi4
La4Ni3Pb4,mp-602393,0.0,7.83907371,0.15411742504958514,"{57: 4, 28: 3, 82: 4}","[28, 57, 82]",283574824,La4Ni3Pb4
La7Ni3,mp-573855,0.0,8.08113676,0.0,"{57: 7, 28: 3}","[28, 57]",283577,La7Ni3
CeNi3,mp-580354,0.0,8.69568058,0.0,"{58: 1, 28: 3}","[28, 58]",283581,Ce1Ni3
Ce4Ni3Pt,mp-1226998,0.0,8.02397945,0.01239517124999967,"{58: 4, 28: 3, 78: 1}","[28, 58, 78]",283584781,Ce4Ni3Pt1
Ce4Ni3Bi8,mp-1227331,0.0,6.9660461,0.0,"{58: 4, 28: 3, 83: 8}","[28, 58, 83]",283584838,Ce4Ni3Bi8
Ce7Ni3,mp-1106354,0.0,8.48866075,0.01944965450000069,"{58: 7, 28: 3}","[28, 58]",283587,Ce7Ni3
PrNi3,mp-1102445,0.0,6.35067794,0.0,"{59: 1, 28: 3}","[28, 59]",283591,Pr1Ni3
Pr3Ni3Bi4,mp-1209761,0.0,5.92849163,0.0,"{59: 3, 28: 3, 83: 4}","[28, 59, 83]",283593834,Pr3Ni3Bi4
Pr7Ni3,mp-1189469,0.0,4.25023128,0.0010952619999988755,"{59: 7, 28: 3}","[28, 59]",283597,Pr7Ni3
NdNi3,mp-1095561,0.0,6.39638206,0.0,"{60: 1, 28: 3}","[28, 60]",283601,Nd1Ni3
Nd3Ni3Bi4,mp-1210154,0.0,5.95867783,0.008602082249994147,"{60: 3, 28: 3, 83: 4}","[28, 60, 83]",283603834,Nd3Ni3Bi4
Nd7Ni3,mp-1105619,0.0,4.04439442,0.0016086035000011378,"{60: 7, 28: 3}","[28, 60]",283607,Nd7Ni3
PmNi3,mp-863718,0.0,5.61552392,0.0,"{61: 1, 28: 3}","[28, 61]",283611,Pm1Ni3
SmNi3,mp-1095619,0.0,6.05593285,0.0,"{62: 1, 28: 3}","[28, 62]",283621,Sm1Ni3
Sm3Ni3Bi4,mp-1209049,0.0,5.83574065,0.48098507371428667,"{62: 3, 28: 3, 83: 4}","[28, 62, 83]",283623834,Sm3Ni3Bi4
EuNi3,mp-974834,0.0,5.61948809,0.2810163435000028,"{63: 1, 28: 3}","[28, 63]",283631,Eu1Ni3
Pr3(Ni9Ge4)4,mp-1220212,0.0,6.23733719,0.2797338696363658,"{59: 3, 28: 36, 32: 16}","[28, 32, 59]",28363216593,Pr3Ni36Ge16
GdNi3,mp-1101986,0.0,6.16523687,0.0,"{64: 1, 28: 3}","[28, 64]",283641,Gd1Ni3
TbNi3,mp-1102054,0.0,6.31453507,0.0,"{65: 1, 28: 3}","[28, 65]",283651,Tb1Ni3
Tb4Ni3Bi8,mp-1217660,0.0,6.09750675,0.02531412866666738,"{65: 4, 28: 3, 83: 8}","[28, 65, 83]",283654838,Tb4Ni3Bi8
DyNi3,mp-1102078,0.0,6.24078769,0.0,"{66: 1, 28: 3}","[28, 66]",283661,Dy1Ni3
Dy4Ni3Bi8,mp-1225392,0.0,6.04920456,0.03572922666666756,"{66: 4, 28: 3, 83: 8}","[28, 66, 83]",283664838,Dy4Ni3Bi8
HoNi3,mp-2042,0.0,6.26444842,0.0,"{67: 1, 28: 3}","[28, 67]",283671,Ho1Ni3
ErNi3,mp-1051,0.0,6.27022527,0.0,"{68: 1, 28: 3}","[28, 68]",283681,Er1Ni3
TmNi3,mp-1102684,0.0,6.07197,0.0,"{69: 1, 28: 3}","[28, 69]",283691,Tm1Ni3
LuNi3,mp-1185497,0.0,6.05242164,0.08189690583333231,"{71: 1, 28: 3}","[28, 71]",283711,Lu1Ni3
HfNi3,mp-12174,0.0,7.44119567,0.0,"{72: 1, 28: 3}","[28, 72]",283721,Hf1Ni3
TaNi3,mp-569776,0.0,7.64678997,0.0,"{73: 1, 28: 3}","[28, 73]",283731,Ta1Ni3
Ni3Pt,mp-12798,0.0,7.79805323,0.0,"{28: 3, 78: 1}","[28, 78]",283781,Ni3Pt1
Ni3Au,mp-976818,0.0,6.94366024,0.09746691250000339,"{28: 3, 79: 1}","[28, 79]",283791,Ni3Au1
Ni3Hg,mp-976935,0.0,6.37673875,0.19722874500000032,"{28: 3, 80: 1}","[28, 80]",283801,Ni3Hg1
Ni3Pb,mp-976830,0.0,8.77516966,0.1386689574999984,"{28: 3, 82: 1}","[28, 82]",283821,Ni3Pb1
Ni3Bi,mp-976799,0.0,8.72998302,0.1776556685937507,"{28: 3, 83: 1}","[28, 83]",283831,Ni3Bi1
U3Ni3Bi4,mp-1208030,0.034900000000000375,9.25528141,0.0,"{92: 3, 28: 3, 83: 4}","[28, 83, 92]",283834923,U3Ni3Bi4
Th7Ni3,mp-30809,0.0,7.70144547,0.0,"{90: 7, 28: 3}","[28, 90]",283907,Th7Ni3
PaNi3,mp-862852,0.0,10.65871834,0.0,"{91: 1, 28: 3}","[28, 91]",283911,Pa1Ni3
PuNi3,mp-636403,0.0,9.57513695,0.0,"{94: 1, 28: 3}","[28, 94]",283941,Pu1Ni3
LaCuNi4,mp-1222960,0.0,8.02814279,0.0,"{57: 1, 29: 1, 28: 4}","[28, 29, 57]",284291571,La1Cu1Ni4
NdCuNi4,mp-1220204,0.0,6.25002751,0.0,"{60: 1, 29: 1, 28: 4}","[28, 29, 60]",284291601,Nd1Cu1Ni4
TbCuNi4,mp-1217589,0.0,6.36144838,0.0,"{65: 1, 29: 1, 28: 4}","[28, 29, 65]",284291651,Tb1Cu1Ni4
ZnNi4,mp-1215582,0.0,6.87477946,0.07282676799999965,"{30: 1, 28: 4}","[28, 30]",284301,Zn1Ni4
ZrZnNi4,mp-11533,0.0,6.56790083,0.0,"{40: 1, 30: 1, 28: 4}","[28, 30, 40]",284301401,Zr1Zn1Ni4
LaZnNi4,mp-1222791,0.0,7.41120249,0.0,"{57: 1, 30: 1, 28: 4}","[28, 30, 57]",284301571,La1Zn1Ni4
CeZnNi4,mp-1226673,0.0,7.36795956,0.008942376944442998,"{58: 1, 30: 1, 28: 4}","[28, 30, 58]",284301581,Ce1Zn1Ni4
UZnNi4,mp-21899,0.0,8.69747027,0.0,"{92: 1, 30: 1, 28: 4}","[28, 30, 92]",284301921,U1Zn1Ni4
GaNi4Ge3,mp-1224915,0.0,7.53598238,0.01983764152083456,"{31: 1, 28: 4, 32: 3}","[28, 31, 32]",284311323,Ga1Ni4Ge3
LaGaNi4,mp-1222941,0.0,7.61633144,0.0,"{57: 1, 31: 1, 28: 4}","[28, 31, 57]",284311571,La1Ga1Ni4
CeGaNi4,mp-1226588,0.0,7.61907608,0.0,"{58: 1, 31: 1, 28: 4}","[28, 31, 58]",284311581,Ce1Ga1Ni4
TbGaNi4,mp-1208350,0.0,6.01996291,0.0,"{65: 1, 31: 1, 28: 4}","[28, 31, 65]",284311651,Tb1Ga1Ni4
La3(GaNi2)2,mp-573548,0.0,7.66813048,0.0016511240740761934,"{57: 3, 31: 2, 28: 4}","[28, 31, 57]",284312573,La3Ga2Ni4
Pr3(GaNi2)2,mp-1205884,0.0,5.55388374,0.016692565370376222,"{59: 3, 31: 2, 28: 4}","[28, 31, 59]",284312593,Pr3Ga2Ni4
Eu3(GaNi)4,mp-636287,0.0,4.22451563,0.0,"{63: 3, 31: 4, 28: 4}","[28, 31, 63]",284314633,Eu3Ga4Ni4
Ni4Ge,mp-1220076,0.0,8.15947333,0.313572001999999,"{28: 4, 32: 1}","[28, 32]",284321,Ni4Ge1
Nb9Ni4Ge,mp-1193661,0.0,5.78944484,0.009544974047619448,"{41: 9, 28: 4, 32: 1}","[28, 32, 41]",284321419,Nb9Ni4Ge1
Ni4GePt5,mp-1220122,0.0,7.81493046,0.12123060699999932,"{28: 4, 32: 1, 78: 5}","[28, 32, 78]",284321785,Ni4Ge1Pt5
Ni4(GeAs3)3,mp-1220089,0.0,5.4724439,0.028129709027776784,"{28: 4, 32: 3, 33: 9}","[28, 32, 33]",284323339,Ni4Ge3As9
Pr3(NiGe)4,mp-1103090,0.0,4.86018712,0.0,"{59: 3, 28: 4, 32: 4}","[28, 32, 59]",284324593,Pr3Ni4Ge4