formula,material_id,band_gap,efermi,energy_above_hull,comp_atoms,sorted_keys_comp_atoms,comp_number,new_formula
ScNi2Sn,mp-4536,0.0,8.39195959,0.0,"{21: 1, 28: 2, 50: 1}","[21, 28, 50]",211282501,Sc1Ni2Sn1
HfScNi2,mp-1093706,0.0,-2.45590009,3.1218891049999993,"{72: 1, 21: 1, 28: 2}","[21, 28, 72]",211282721,Hf1Sc1Ni2
ScNi3,mp-1186985,0.0,6.76088105,0.02393982208333334,"{21: 1, 28: 3}","[21, 28]",211283,Sc1Ni3
Sc(Ni2As)2,mp-1104526,0.0,7.73215145,0.0,"{21: 1, 28: 4, 33: 2}","[21, 28, 33]",211284332,Sc1Ni4As2
ScCdNi4,mp-1077397,0.0,6.18660519,0.0,"{21: 1, 48: 1, 28: 4}","[21, 28, 48]",211284481,Sc1Cd1Ni4
ScInNi4,mp-1207011,0.0,8.1355773,0.0,"{21: 1, 49: 1, 28: 4}","[21, 28, 49]",211284491,Sc1In1Ni4
ScNi4Sn,mp-11808,0.0,8.48580346,0.0,"{21: 1, 28: 4, 50: 1}","[21, 28, 50]",211284501,Sc1Ni4Sn1
ScNi4Au,mp-1072255,0.0,6.81052063,0.0,"{21: 1, 28: 4, 79: 1}","[21, 28, 79]",211284791,Sc1Ni4Au1
ScNi5,mp-570673,0.0,6.83178636,0.008523272916668212,"{21: 1, 28: 5}","[21, 28]",211285,Sc1Ni5
Zr4Sc(NiSn)5,mp-1215369,0.0,6.25939353,0.012637284000001081,"{40: 4, 21: 1, 28: 5, 50: 5}","[21, 28, 40, 50]",211285404505,Zr4Sc1Ni5Sn5
Sc(NiGe)6,mp-29802,0.0,6.75120065,0.02887629820512938,"{21: 1, 28: 6, 32: 6}","[21, 28, 32]",211286326,Sc1Ni6Ge6
Sc2CoNi,mp-1186936,0.0,5.31143664,0.01118606749999973,"{21: 2, 27: 1, 28: 1}","[21, 27, 28]",212271281,Sc2Co1Ni1
Sc2Ni,mp-867501,0.0,5.05580218,0.0,"{21: 2, 28: 1}","[21, 28]",212281,Sc2Ni1
Sc2CuNi,mp-1186945,0.0,5.73544338,0.003620189999999468,"{21: 2, 29: 1, 28: 1}","[21, 28, 29]",212281291,Sc2Cu1Ni1
Sc2ZnNi,mp-1093910,0.0602999999999998,-2.30016603,2.5158068075000006,"{21: 2, 30: 1, 28: 1}","[21, 28, 30]",212281301,Sc2Zn1Ni1
Sc2GaNi,mp-1186942,0.0,5.18753274,0.021547459374998468,"{21: 2, 31: 1, 28: 1}","[21, 28, 31]",212281311,Sc2Ga1Ni1
Sc2Ga8Ni,mp-1208973,0.0,4.78611533,0.0026552854545451865,"{21: 2, 31: 8, 28: 1}","[21, 28, 31]",212281318,Sc2Ga8Ni1
Sc2TcNi,mp-862424,0.0,5.67448033,0.046318452812501576,"{21: 2, 43: 1, 28: 1}","[21, 28, 43]",212281431,Sc2Tc1Ni1
Sc2NiRu,mp-862367,0.0,5.6966598,0.0,"{21: 2, 28: 1, 44: 1}","[21, 28, 44]",212281441,Sc2Ni1Ru1
Sc2NiRh,mp-972961,0.0,5.59062603,0.02037354749999931,"{21: 2, 28: 1, 45: 1}","[21, 28, 45]",212281451,Sc2Ni1Rh1
Sc2NiPd,mp-1186955,0.0,5.24071571,0.019168527499999755,"{21: 2, 28: 1, 46: 1}","[21, 28, 46]",212281461,Sc2Ni1Pd1
Sc2NiOs,mp-862361,0.0,5.57697498,0.0,"{21: 2, 28: 1, 76: 1}","[21, 28, 76]",212281761,Sc2Ni1Os1
Sc2NiIr,mp-862360,0.0,6.09483924,0.0,"{21: 2, 28: 1, 77: 1}","[21, 28, 77]",212281771,Sc2Ni1Ir1
Sc2NiPt,mp-862368,0.0,5.83428999,0.0,"{21: 2, 28: 1, 78: 1}","[21, 28, 78]",212281781,Sc2Ni1Pt1
Sc2TlNi,mp-1093821,0.0,-2.52836315,2.33585998861111,"{21: 2, 81: 1, 28: 1}","[21, 28, 81]",212281811,Sc2Tl1Ni1
Sc2InNi2,mp-13416,0.0,6.42422019,0.0,"{21: 2, 49: 1, 28: 2}","[21, 28, 49]",212282491,Sc2In1Ni2
Sc2Ni2Sn,mp-3363,0.0,6.81810632,0.0,"{21: 2, 28: 2, 50: 1}","[21, 28, 50]",212282501,Sc2Ni2Sn1
Sc2Ni7,mp-1197416,0.0,6.67886204,0.0,"{21: 2, 28: 7}","[21, 28]",212287,Sc2Ni7
Sc3(MnNi2)2,mp-1219441,0.0,6.14503002,0.016272747681991717,"{21: 3, 25: 2, 28: 4}","[21, 25, 28]",213252284,Sc3Mn2Ni4
Sc3Ni11Ge4,mp-1219451,0.0,6.45881576,0.011684909236114649,"{21: 3, 28: 11, 32: 4}","[21, 28, 32]",2132811324,Sc3Ni11Ge4
Sc3Ga5Ni,mp-1219142,0.0,4.74240399,0.09051628430555425,"{21: 3, 31: 5, 28: 1}","[21, 28, 31]",213281315,Sc3Ga5Ni1
Sc3(Ga2Ni)2,mp-1219410,0.0,4.75284592,0.08455759527777396,"{21: 3, 31: 4, 28: 2}","[21, 28, 31]",213282314,Sc3Ga4Ni2
Sc3(NiGe)4,mp-22490,0.0,6.78826082,0.0,"{21: 3, 28: 4, 32: 4}","[21, 28, 32]",213284324,Sc3Ni4Ge4
Sc4Ni,mp-1211596,0.0,3.49973156,0.46101961000000014,"{21: 4, 28: 1}","[21, 28]",214281,Sc4Ni1
Sc5(In2Ni)2,mp-603576,0.0,5.01346072,0.11495795545454612,"{21: 5, 49: 4, 28: 2}","[21, 28, 49]",215282494,Sc5In4Ni2
Sc5(NiTe)2,mp-29769,0.0,6.15735584,0.0,"{21: 5, 28: 2, 52: 2}","[21, 28, 52]",215282522,Sc5Ni2Te2
Sc6NiTe2,mp-10446,0.0,6.08204933,0.0,"{21: 6, 28: 1, 52: 2}","[21, 28, 52]",216281522,Sc6Ni1Te2
Sc6Ni16Ge7,mp-570547,0.0,7.48846313,0.0,"{21: 6, 28: 16, 32: 7}","[21, 28, 32]",2162816327,Sc6Ni16Ge7
Sc6Ni18Ge11,mp-569969,0.0,6.80400864,0.0,"{21: 6, 28: 18, 32: 11}","[21, 28, 32]",21628183211,Sc6Ni18Ge11
Sc7NiBr12,mp-1190159,0.14839999999999964,3.7578633,0.0,"{21: 7, 28: 1, 35: 12}","[21, 28, 35]",2172813512,Sc7Ni1Br12
Sc9Ni5Ge8,mp-915280,0.0,5.23391621,0.05958602418181158,"{21: 9, 28: 5, 32: 8}","[21, 28, 32]",219285328,Sc9Ni5Ge8
Ti11Ni9Pt4,mp-1196249,0.0,7.10076494,0.00854423739583332,"{22: 11, 28: 9, 78: 4}","[22, 28, 78]",2211289784,Ti11Ni9Pt4
TiMn(Ni2Sn)2,mp-1217085,0.0,9.10892546,0.04237800097290645,"{22: 1, 25: 1, 28: 4, 50: 2}","[22, 25, 28, 50]",221251284502,Ti1Mn1Ni4Sn2
TiCoNiSn,mp-1216950,0.0,8.79031533,0.05811619933035583,"{22: 1, 27: 1, 28: 1, 50: 1}","[22, 27, 28, 50]",221271281501,Ti1Co1Ni1Sn1
TiCoNi2,mp-1217064,0.0,7.14182397,0.019054988333334855,"{22: 1, 27: 1, 28: 2}","[22, 27, 28]",221271282,Ti1Co1Ni2
TiNi,mp-1048,0.0,7.00764848,0.0,"{22: 1, 28: 1}","[22, 28]",221281,Ti1Ni1
Ti(NbNi4)3,mp-1217370,0.0,7.51014942,0.016667490781251182,"{22: 1, 41: 3, 28: 12}","[22, 28, 41]",2212812413,Ti1Nb3Ni12
TiCuNi,mp-1216850,0.0,7.00230931,0.0,"{22: 1, 29: 1, 28: 1}","[22, 28, 29]",221281291,Ti1Cu1Ni1
TiGaNi,mp-30656,0.0,6.34586067,0.0,"{22: 1, 31: 1, 28: 1}","[22, 28, 31]",221281311,Ti1Ga1Ni1
TiGa5Ni,mp-1025313,0.0,5.33835544,0.04536378599999402,"{22: 1, 31: 5, 28: 1}","[22, 28, 31]",221281315,Ti1Ga5Ni1
TiNiGe,mp-16356,0.0,7.6656837,0.0,"{22: 1, 28: 1, 32: 1}","[22, 28, 32]",221281321,Ti1Ni1Ge1
TiNiAs,mp-1102086,0.0,8.24014169,0.0,"{22: 1, 28: 1, 33: 1}","[22, 28, 33]",221281331,Ti1Ni1As1
ZrTiNi,mp-1215337,0.0,5.66869474,0.06198088805555457,"{40: 1, 22: 1, 28: 1}","[22, 28, 40]",221281401,Zr1Ti1Ni1
TiNiSn,mp-924130,0.4527000000000001,7.66299415,0.0,"{22: 1, 28: 1, 50: 1}","[22, 28, 50]",221281501,Ti1Ni1Sn1
TiNiSb,mp-20952,0.0,8.86156108,0.0,"{22: 1, 28: 1, 51: 1}","[22, 28, 51]",221281511,Ti1Ni1Sb1
TiCuNi2,mp-1207070,0.0,7.50953057,0.010458273437500942,"{22: 1, 29: 1, 28: 2}","[22, 28, 29]",221282291,Ti1Cu1Ni2
TiZnNi2,mp-865093,0.0,6.63395292,0.0,"{22: 1, 30: 1, 28: 2}","[22, 28, 30]",221282301,Ti1Zn1Ni2
TiGaNi2,mp-30657,0.0,7.02923794,0.0,"{22: 1, 31: 1, 28: 2}","[22, 28, 31]",221282311,Ti1Ga1Ni2
ZrTiNi2,mp-1215191,0.0,6.15614662,0.039173400000000136,"{40: 1, 22: 1, 28: 2}","[22, 28, 40]",221282401,Zr1Ti1Ni2
TiInNi2,mp-22463,0.0,8.45671615,0.03213600499999991,"{22: 1, 49: 1, 28: 2}","[22, 28, 49]",221282491,Ti1In1Ni2
TiNi2Sn,mp-3740,0.0,9.10216642,0.03585484116071225,"{22: 1, 28: 2, 50: 1}","[22, 28, 50]",221282501,Ti1Ni2Sn1
TiNi2Sb,mp-10261,0.0,10.0176655,0.09822099895833247,"{22: 1, 28: 2, 51: 1}","[22, 28, 51]",221282511,Ti1Ni2Sb1
HfTiNi2,mp-1097535,0.0,-2.47108824,3.3386979799999983,"{72: 1, 22: 1, 28: 2}","[22, 28, 72]",221282721,Hf1Ti1Ni2
TiNi3,mp-1409,0.0,8.16614808,0.0,"{22: 1, 28: 3}","[22, 28]",221283,Ti1Ni3
Hf2TiNi3,mp-1199653,0.0,6.45133959,0.0678306633333321,"{72: 2, 22: 1, 28: 3}","[22, 28, 72]",221283722,Hf2Ti1Ni3
TiGaNi6,mp-1216876,0.0,7.58949577,0.0,"{22: 1, 31: 1, 28: 6}","[22, 28, 31]",221286311,Ti1Ga1Ni6
TaTiNi6,mp-1217832,0.0,7.99225437,0.010734950000001575,"{73: 1, 22: 1, 28: 6}","[22, 28, 73]",221286731,Ta1Ti1Ni6
Ti2VNi9,mp-1217583,0.0,8.18698968,0.023292617500000112,"{22: 2, 23: 1, 28: 9}","[22, 23, 28]",222231289,Ti2V1Ni9
Ti2MnNi,mp-865712,0.0,6.82828689,0.0,"{22: 2, 25: 1, 28: 1}","[22, 25, 28]",222251281,Ti2Mn1Ni1
Ti2FeNiSb2,mp-1217120,0.940999999999999,7.72511873,0.0,"{22: 2, 26: 1, 28: 1, 51: 2}","[22, 26, 28, 51]",222261281512,Ti2Fe1Ni1Sb2
Ti2CoNi,mp-1217078,0.0,6.75996033,0.030916730000000392,"{22: 2, 27: 1, 28: 1}","[22, 27, 28]",222271281,Ti2Co1Ni1
Ti2CoNiSn2,mp-1217160,0.0,6.20330779,0.6856708356597254,"{22: 2, 27: 1, 28: 1, 50: 2}","[22, 27, 28, 50]",222271281502,Ti2Co1Ni1Sn2
Ti2Ni,mp-1808,0.0,6.57345179,0.0,"{22: 2, 28: 1}","[22, 28]",222281,Ti2Ni1
Ti2CuNi,mp-1217130,0.0,6.88367668,0.05710765999999978,"{22: 2, 29: 1, 28: 1}","[22, 28, 29]",222281291,Ti2Cu1Ni1
Ti2GaNi,mp-999053,0.0,6.55832915,0.19098405750000058,"{22: 2, 31: 1, 28: 1}","[22, 28, 31]",222281311,Ti2Ga1Ni1
Ti2NiSe4,mp-1025281,0.0,5.6454114,0.019777375714284062,"{22: 2, 28: 1, 34: 4}","[22, 28, 34]",222281344,Ti2Ni1Se4
Ti2NiMo,mp-865591,0.0,6.89752477,0.0,"{22: 2, 28: 1, 42: 1}","[22, 28, 42]",222281421,Ti2Ni1Mo1
Ti2TcNi,mp-865878,0.0,7.32946537,0.0,"{22: 2, 43: 1, 28: 1}","[22, 28, 43]",222281431,Ti2Tc1Ni1
Ti2NiPd,mp-1217097,0.0,6.47068441,0.054076739374997906,"{22: 2, 28: 1, 46: 1}","[22, 28, 46]",222281461,Ti2Ni1Pd1
Ti2InNi,mp-999076,0.0,7.79196708,0.2068041012499986,"{22: 2, 49: 1, 28: 1}","[22, 28, 49]",222281491,Ti2In1Ni1
Ti2NiW,mp-1095775,0.0,-2.76551409,3.7830667331249996,"{22: 2, 28: 1, 74: 1}","[22, 28, 74]",222281741,Ti2Ni1W1
Ti2ReNi,mp-865728,0.0,6.85057834,0.0,"{22: 2, 75: 1, 28: 1}","[22, 28, 75]",222281751,Ti2Re1Ni1
Ti2NiOs,mp-1093952,0.0,-3.04325387,3.6039103274999977,"{22: 2, 28: 1, 76: 1}","[22, 28, 76]",222281761,Ti2Ni1Os1
Ti2NiIr,mp-865529,0.0,7.88911704,0.0,"{22: 2, 28: 1, 77: 1}","[22, 28, 77]",222281771,Ti2Ni1Ir1
Ti2InNi2,mp-20339,0.0,7.84091106,0.0,"{22: 2, 49: 1, 28: 2}","[22, 28, 49]",222282491,Ti2In1Ni2
ZrTi2Ni9,mp-1215266,0.0,7.62347244,0.01851818750000067,"{40: 1, 22: 2, 28: 9}","[22, 28, 40]",222289401,Zr1Ti2Ni9
Ti2NbNi9,mp-1217555,0.0,8.01688179,0.02882490208333177,"{22: 2, 41: 1, 28: 9}","[22, 28, 41]",222289411,Ti2Nb1Ni9
Ti3Ni,mp-981209,0.0,6.46644552,0.12903531729166673,"{22: 3, 28: 1}","[22, 28]",223281,Ti3Ni1
Ti3Ni4,mp-567653,0.0,7.31273236,0.007696926964285922,"{22: 3, 28: 4}","[22, 28]",223284,Ti3Ni4
Ti4FeNi,mp-1217277,0.0,6.23152018,0.015678900277777963,"{22: 4, 26: 1, 28: 1}","[22, 26, 28]",224261281,Ti4Fe1Ni1
Ti4CoNi,mp-1217247,0.0,6.30262219,0.0,"{22: 4, 27: 1, 28: 1}","[22, 27, 28]",224271281,Ti4Co1Ni1
Ti4In2CoNi,mp-1217339,0.0,7.35740602,0.2078881231249996,"{22: 4, 49: 2, 27: 1, 28: 1}","[22, 27, 28, 49]",224271281492,Ti4In2Co1Ni1
Ti4Co5Ni,mp-1217224,0.0,6.28785973,0.07377126191666772,"{22: 4, 27: 5, 28: 1}","[22, 27, 28]",224275281,Ti4Co5Ni1
Ti4NiBi2,mp-571457,0.0,6.89115795,0.0,"{22: 4, 28: 1, 83: 2}","[22, 28, 83]",224281832,Ti4Ni1Bi2
Ti4Ga3Ni2,mp-30705,0.0,6.03916617,0.05217436777777795,"{22: 4, 31: 3, 28: 2}","[22, 28, 31]",224282313,Ti4Ga3Ni2
Ti4Ni4Ge7,mp-1193680,0.0,8.16381956,0.028000402999998286,"{22: 4, 28: 4, 32: 7}","[22, 28, 32]",224284327,Ti4Ni4Ge7
Ti5NiSn3,mp-1208243,0.0,7.97024269,0.01614615777777839,"{22: 5, 28: 1, 50: 3}","[22, 28, 50]",225281503,Ti5Ni1Sn3
Ti6Ni16Ge7,mp-582759,0.0,8.06783989,0.01952978648275927,"{22: 6, 28: 16, 32: 7}","[22, 28, 32]",2262816327,Ti6Ni16Ge7
Ti6Ga16Ni7,mp-1194458,0.0,6.03713811,0.0377705249827569,"{22: 6, 31: 16, 28: 7}","[22, 28, 31]",2262873116,Ti6Ga16Ni7
Ti8In4CoNi3,mp-1217465,0.0,7.38670084,0.21688759031249916,"{22: 8, 49: 4, 27: 1, 28: 3}","[22, 27, 28, 49]",228271283494,Ti8In4Co1Ni3
Ti8InCo3NiSn3,mp-1217480,0.0,7.82522491,0.2166340938541662,"{22: 8, 49: 1, 27: 3, 28: 1, 50: 3}","[22, 27, 28, 49, 50]",228273281491503,Ti8In1Co3Ni1Sn3
Ti8Co3NiSn4,mp-1217234,0.0,7.90945628,0.23519216062502402,"{22: 8, 27: 3, 28: 1, 50: 4}","[22, 27, 28, 50]",228273281504,Ti8Co3Ni1Sn4
Ti8Cu3Ni,mp-1217065,0.0,6.34558185,0.0,"{22: 8, 29: 3, 28: 1}","[22, 28, 29]",228281293,Ti8Cu3Ni1
MnVNi,mp-631555,0.0,5.32262359,0.8264400266666669,"{25: 1, 23: 1, 28: 1}","[23, 25, 28]",231251281,Mn1V1Ni1
MnV(Ni2Sn)2,mp-1221615,0.0,8.88630852,0.10931744593750103,"{25: 1, 23: 1, 28: 4, 50: 2}","[23, 25, 28, 50]",231251284502,Mn1V1Ni4Sn2
VCoNiPd,mp-1216424,0.0,5.91354033,0.26386753291666665,"{23: 1, 27: 1, 28: 1, 46: 1}","[23, 27, 28, 46]",231271281461,V1Co1Ni1Pd1
VCo2Ni,mp-1102168,0.0,6.66368907,0.0,"{23: 1, 27: 2, 28: 1}","[23, 27, 28]",231272281,V1Co2Ni1
VNi,mp-1216313,0.0,7.11362891,0.19526388979166498,"{23: 1, 28: 1}","[23, 28]",231281,V1Ni1
VGaNi,mp-961690,0.0,4.51454338,0.6008006850000012,"{23: 1, 31: 1, 28: 1}","[23, 28, 31]",231281311,V1Ga1Ni1
VNiGe,mp-1095536,0.0,7.97786688,0.002239053749998554,"{23: 1, 28: 1, 32: 1}","[23, 28, 32]",231281321,V1Ni1Ge1
VNiAs,mp-1101976,0.0,8.13917752,0.0,"{23: 1, 28: 1, 33: 1}","[23, 28, 33]",231281331,V1Ni1As1
ZrVNi,mp-1215279,0.0,5.80142762,0.0653792591666651,"{40: 1, 23: 1, 28: 1}","[23, 28, 40]",231281401,Zr1V1Ni1
NbVNi,mp-1220599,0.0,6.26641923,0.0,"{41: 1, 23: 1, 28: 1}","[23, 28, 41]",231281411,Nb1V1Ni1
VNiSb,mp-505599,0.0,8.0590061,0.128043692857144,"{23: 1, 28: 1, 51: 1}","[23, 28, 51]",231281511,V1Ni1Sb1
TaVNi,mp-1217864,0.0,6.50667064,0.007231251500005698,"{73: 1, 23: 1, 28: 1}","[23, 28, 73]",231281731,Ta1V1Ni1
VNi2,mp-11531,0.0,7.60642183,0.0,"{23: 1, 28: 2}","[23, 28]",231282,V1Ni2
VGaNi2,mp-30658,0.0,6.91626891,0.0223659731018504,"{23: 1, 31: 1, 28: 2}","[23, 28, 31]",231282311,V1Ga1Ni2
VNi2Sn,mp-20864,0.0,9.42588131,0.11414399548610277,"{23: 1, 28: 2, 50: 1}","[23, 28, 50]",231282501,V1Ni2Sn1
VNi3,mp-171,0.0,7.92572361,0.0,"{23: 1, 28: 3}","[23, 28]",231283,V1Ni3
Zr2VNi3,mp-1215561,0.0,6.35027646,0.07605241944444696,"{40: 2, 23: 1, 28: 3}","[23, 28, 40]",231283402,Zr2V1Ni3
VGaNi6,mp-1216351,0.0,7.58934961,0.0,"{23: 1, 31: 1, 28: 6}","[23, 28, 31]",231286311,V1Ga1Ni6
V2NiSe4,mp-7823,0.0,5.94777227,0.014602706190467885,"{23: 2, 28: 1, 34: 4}","[23, 28, 34]",232281344,V2Ni1Se4
V2NiSb,mp-1067900,0.0,8.64774293,0.31286928928571456,"{23: 2, 28: 1, 51: 1}","[23, 28, 51]",232281511,V2Ni1Sb1
V2NiSb2,mp-1216549,0.0,8.3776911,0.1587693140000006,"{23: 2, 28: 1, 51: 2}","[23, 28, 51]",232281512,V2Ni1Sb2
Zr3(VNi2)2,mp-1216016,0.0,6.05318816,0.07675690287037007,"{40: 3, 23: 2, 28: 4}","[23, 28, 40]",232284403,Zr3V2Ni4
V3Ni,mp-7226,0.0,6.67725754,0.0,"{23: 3, 28: 1}","[23, 28]",233281,V3Ni1
V3Ni2,mp-1216708,0.0,6.83924693,0.0,"{23: 3, 28: 2}","[23, 28]",233282,V3Ni2
V4NiSb4,mp-1216455,0.0,7.80267972,0.1550610357407436,"{23: 4, 28: 1, 51: 4}","[23, 28, 51]",234281514,V4Ni1Sb4
V6FeNi,mp-1216443,0.0,6.22132586,0.0,"{23: 6, 26: 1, 28: 1}","[23, 26, 28]",236261281,V6Fe1Ni1
V6CoNi,mp-1216439,0.0,6.48891346,0.0005113562500014268,"{23: 6, 27: 1, 28: 1}","[23, 27, 28]",236271281,V6Co1Ni1
Cr11Ni40Mo9,mp-766580,0.0,8.09269877,0.026579263166667033,"{24: 11, 28: 40, 42: 9}","[24, 28, 42]",24112840429,Cr11Ni40Mo9
MnCr(Ni2Sn)2,mp-1221685,0.0,8.84760418,0.07550054402658102,"{25: 1, 24: 1, 28: 4, 50: 2}","[24, 25, 28, 50]",241251284502,Mn1Cr1Ni4Sn2
Mn2CrNiSb2,mp-1221891,0.0,6.73225489,0.4591182758333261,"{25: 2, 24: 1, 28: 1, 51: 2}","[24, 25, 28, 51]",241252281512,Mn2Cr1Ni1Sb2
CrFeCoNi,mp-1012640,0.0,6.49703246,0.06658532291666752,"{24: 1, 26: 1, 27: 1, 28: 1}","[24, 26, 27, 28]",241261271281,Cr1Fe1Co1Ni1
CrNi,mp-1226232,0.0,7.44463818,0.1656473475000002,"{24: 1, 28: 1}","[24, 28]",241281,Cr1Ni1
CrCu4NiSn2,mp-1226279,0.0,8.54043395,0.20151021041666706,"{24: 1, 29: 4, 28: 1, 50: 2}","[24, 28, 29, 50]",241281294502,Cr1Cu4Ni1Sn2
CrNiAs,mp-4989,0.0,7.59655165,0.0,"{24: 1, 28: 1, 33: 1}","[24, 28, 33]",241281331,Cr1Ni1As1
ZrCrNi,mp-1215355,0.0,6.03331918,0.11686311166666741,"{40: 1, 24: 1, 28: 1}","[24, 28, 40]",241281401,Zr1Cr1Ni1
NbCrNi,mp-1220594,0.0,6.47853187,0.05024690538888699,"{41: 1, 24: 1, 28: 1}","[24, 28, 41]",241281411,Nb1Cr1Ni1
CrNiSb,mp-1018161,0.0,7.54905214,0.1543926633333328,"{24: 1, 28: 1, 51: 1}","[24, 28, 51]",241281511,Cr1Ni1Sb1
CrNiSb2,mp-1226212,0.0,8.38607948,0.09493401749999819,"{24: 1, 28: 1, 51: 2}","[24, 28, 51]",241281512,Cr1Ni1Sb2
TaCrNi,mp-1218063,0.0,6.79878852,0.06988949900000208,"{73: 1, 24: 1, 28: 1}","[24, 28, 73]",241281731,Ta1Cr1Ni1
UCrNi,mp-1216701,0.0,10.63298061,0.17952707156250192,"{92: 1, 24: 1, 28: 1}","[24, 28, 92]",241281921,U1Cr1Ni1
CrNi2,mp-784631,0.0,8.0020981,0.11159117333333235,"{24: 1, 28: 2}","[24, 28]",241282,Cr1Ni2
CrInNi2,mp-1007991,0.0,8.09004261,0.15288174125000076,"{24: 1, 49: 1, 28: 2}","[24, 28, 49]",241282491,Cr1In1Ni2
CrNi2Hg,mp-631502,0.0,5.56783931,0.40069030875000067,"{24: 1, 28: 2, 80: 1}","[24, 28, 80]",241282801,Cr1Ni2Hg1
CrNi3,mp-1007974,0.0,7.77721867,0.007950109999999455,"{24: 1, 28: 3}","[24, 28]",241283,Cr1Ni3
CrNi3Sb4,mp-1226284,0.0,8.79849532,0.041849203750000896,"{24: 1, 28: 3, 51: 4}","[24, 28, 51]",241283514,Cr1Ni3Sb4
Cr22Ni50Mo3,mp-767825,0.0,7.86806542,0.006090442799999707,"{24: 22, 28: 50, 42: 3}","[24, 28, 42]",24222850423,Cr22Ni50Mo3
Cr2Ni,mp-1077252,0.0,6.97651218,0.27875750499999974,"{24: 2, 28: 1}","[24, 28]",242281,Cr2Ni1
Cr2NiSe4,mp-1025151,0.0,5.30046028,0.03121361690476565,"{24: 2, 28: 1, 34: 4}","[24, 28, 34]",242281344,Cr2Ni1Se4
Cr3Ni,mp-1008278,0.0,7.37065479,0.15726529125000077,"{24: 3, 28: 1}","[24, 28]",243281,Cr3Ni1
Cr3Cu2NiSe8,mp-1226324,0.0,4.27095198,0.017753980357138488,"{24: 3, 29: 2, 28: 1, 34: 8}","[24, 28, 29, 34]",243281292348,Cr3Cu2Ni1Se8
Cr3NiSn8,mp-1226408,0.0,8.55440967,0.1346749358333339,"{24: 3, 28: 1, 50: 8}","[24, 28, 50]",243281508,Cr3Ni1Sn8
Cr3NiSb4,mp-1226332,0.0,7.52813349,0.08126365999999763,"{24: 3, 28: 1, 51: 4}","[24, 28, 51]",243281514,Cr3Ni1Sb4
Cr4Ni,mp-1226243,0.0,7.38094562,0.09597814100000157,"{24: 4, 28: 1}","[24, 28]",244281,Cr4Ni1
Cr4CuNiSe8,mp-1226405,0.0,4.21906243,0.0,"{24: 4, 29: 1, 28: 1, 34: 8}","[24, 28, 29, 34]",244281291348,Cr4Cu1Ni1Se8
Cr5NiAs3,mp-1226031,0.0,6.9887641,0.08280135111111164,"{24: 5, 28: 1, 33: 3}","[24, 28, 33]",245281333,Cr5Ni1As3
Cr5NiSn12,mp-1226062,0.0,8.98512378,0.13457330611111207,"{24: 5, 28: 1, 50: 12}","[24, 28, 50]",2452815012,Cr5Ni1Sn12
Cr7Ni20Mo3,mp-768498,0.0,7.92211019,0.015227642666665986,"{24: 7, 28: 20, 42: 3}","[24, 28, 42]",2472820423,Cr7Ni20Mo3
Cr8Ni50Mo15W2,mp-767372,0.0,8.14847178,0.02753527933333544,"{24: 8, 28: 50, 42: 15, 74: 2}","[24, 28, 42, 74]",24828504215742,Cr8Ni50Mo15W2
Cr8Ni50Mo17,mp-766895,0.0,8.16878953,0.02692117808888561,"{24: 8, 28: 50, 42: 17}","[24, 28, 42]",24828504217,Cr8Ni50Mo17
MnCoNiSn,mp-1221649,0.0,8.32156153,0.039662316666666975,"{25: 1, 27: 1, 28: 1, 50: 1}","[25, 27, 28, 50]",251271281501,Mn1Co1Ni1Sn1
MnNi,mp-11500,0.0,6.22194089,0.0,"{25: 1, 28: 1}","[25, 28]",251281,Mn1Ni1
MnCuNiSn,mp-1221630,0.0,8.40153719,0.06911206149938476,"{25: 1, 29: 1, 28: 1, 50: 1}","[25, 28, 29, 50]",251281291501,Mn1Cu1Ni1Sn1
MnGaNi,mp-1210773,0.0,6.11045648,0.011312523017240395,"{25: 1, 31: 1, 28: 1}","[25, 28, 31]",251281311,Mn1Ga1Ni1
MnGa2Ni,mp-1206866,0.0,6.1086332,0.12461850525862062,"{25: 1, 31: 2, 28: 1}","[25, 28, 31]",251281312,Mn1Ga2Ni1
MnNiGe,mp-20007,0.0,7.47363299,0.0,"{25: 1, 28: 1, 32: 1}","[25, 28, 32]",251281321,Mn1Ni1Ge1
MnNiAs,mp-1079845,0.0,7.18998564,0.0,"{25: 1, 28: 1, 33: 1}","[25, 28, 33]",251281331,Mn1Ni1As1
MnNiSe2,mp-1221348,0.0,7.15066949,0.08575288833333516,"{25: 1, 28: 1, 34: 2}","[25, 28, 34]",251281342,Mn1Ni1Se2
ZrMnNi,mp-1215315,0.0,6.06209534,0.042726079583331966,"{40: 1, 25: 1, 28: 1}","[25, 28, 40]",251281401,Zr1Mn1Ni1
MnNiSnRh,mp-1221328,0.0,8.10547302,0.046244431517601825,"{25: 1, 28: 1, 50: 1, 45: 1}","[25, 28, 45, 50]",251281451501,Mn1Ni1Sn1Rh1
MnNiSnPd,mp-1221332,0.0,7.87405047,0.054043701803161426,"{25: 1, 28: 1, 50: 1, 46: 1}","[25, 28, 46, 50]",251281461501,Mn1Ni1Sn1Pd1
MnNiSb,mp-600124,0.0,7.85258082,0.0,"{25: 1, 28: 1, 51: 1}","[25, 28, 51]",251281511,Mn1Ni1Sb1
MnNiSb2,mp-1221333,0.0,8.35846976,0.039574244375000234,"{25: 1, 28: 1, 51: 2}","[25, 28, 51]",251281512,Mn1Ni1Sb2
MnNiTe2,mp-1221364,0.0,8.13643674,0.03340843051723752,"{25: 1, 28: 1, 52: 2}","[25, 28, 52]",251281522,Mn1Ni1Te2
Hf2MnNi,mp-1095824,0.0,-2.63831444,3.6818905746875004,"{72: 2, 25: 1, 28: 1}","[25, 28, 72]",251281722,Hf2Mn1Ni1
MnZnNi2,mp-1186005,0.0,5.75846472,0.0,"{25: 1, 30: 1, 28: 2}","[25, 28, 30]",251282301,Mn1Zn1Ni2
MnGaNi2,mp-601285,0.0,6.373966,0.0,"{25: 1, 31: 1, 28: 2}","[25, 28, 31]",251282311,Mn1Ga1Ni2
MnNi2Ge,mp-22029,0.0,8.10774923,0.01854423213362022,"{25: 1, 28: 2, 32: 1}","[25, 28, 32]",251282321,Mn1Ni2Ge1
MnInNi2,mp-22731,0.0,7.9551134,0.03854070617816063,"{25: 1, 49: 1, 28: 2}","[25, 28, 49]",251282491,Mn1In1Ni2
MnNi2Sn,mp-20440,0.0,8.86435789,0.01119294053519937,"{25: 1, 28: 2, 50: 1}","[25, 28, 50]",251282501,Mn1Ni2Sn1
MnNi2Sb,mp-5124,0.0,9.37081215,0.06822530249999659,"{25: 1, 28: 2, 51: 1}","[25, 28, 51]",251282511,Mn1Ni2Sb1