formula,material_id,band_gap,efermi,energy_above_hull,comp_atoms,sorted_keys_comp_atoms,comp_number,new_formula
DyGa3Ni2,mp-542992,0.0,5.40992615,0.00015794908729915846,"{66: 1, 31: 3, 28: 2}","[28, 31, 66]",282313661,Dy1Ga3Ni2
Ni2Ge,mp-17383,0.0,8.97771088,0.004732982500000205,"{28: 2, 32: 1}","[28, 32]",282321,Ni2Ge1
SrNi2Ge,mp-12520,0.0,5.27801879,0.0,"{38: 1, 28: 2, 32: 1}","[28, 32, 38]",282321381,Sr1Ni2Ge1
PaNi2Ge,mp-1006056,0.0,9.57605461,0.016755511666666223,"{91: 1, 28: 2, 32: 1}","[28, 32, 91]",282321911,Pa1Ni2Ge1
Sr(NiGe)2,mp-3207,0.0,5.45012622,0.0,"{38: 1, 28: 2, 32: 2}","[28, 32, 38]",282322381,Sr1Ni2Ge2
Y(NiGe)2,mp-5109,0.0,6.50813945,0.0,"{39: 1, 28: 2, 32: 2}","[28, 32, 39]",282322391,Y1Ni2Ge2
La(NiGe)2,mp-19979,0.0,7.93255065,0.0,"{57: 1, 28: 2, 32: 2}","[28, 32, 57]",282322571,La1Ni2Ge2
Ce(NiGe)2,mp-3325,0.0,7.87755607,0.0,"{58: 1, 28: 2, 32: 2}","[28, 32, 58]",282322581,Ce1Ni2Ge2
Pr(NiGe)2,mp-5819,0.0,6.30475771,0.0,"{59: 1, 28: 2, 32: 2}","[28, 32, 59]",282322591,Pr1Ni2Ge2
Nd(NiGe)2,mp-4302,0.0,6.29654096,0.0,"{60: 1, 28: 2, 32: 2}","[28, 32, 60]",282322601,Nd1Ni2Ge2
Sm(NiGe)2,mp-5167,0.0,6.2457741,0.3682226740000001,"{62: 1, 28: 2, 32: 2}","[28, 32, 62]",282322621,Sm1Ni2Ge2
Eu(NiGe)2,mp-3333,0.0,5.74307426,0.0,"{63: 1, 28: 2, 32: 2}","[28, 32, 63]",282322631,Eu1Ni2Ge2
Gd(NiGe)2,mp-646399,0.0,6.25533155,0.8615227669999941,"{64: 1, 28: 2, 32: 2}","[28, 32, 64]",282322641,Gd1Ni2Ge2
Tb(NiGe)2,mp-3329,0.0,6.47349035,0.0,"{65: 1, 28: 2, 32: 2}","[28, 32, 65]",282322651,Tb1Ni2Ge2
Dy(NiGe)2,mp-21415,0.0,6.51203638,0.0,"{66: 1, 28: 2, 32: 2}","[28, 32, 66]",282322661,Dy1Ni2Ge2
Ho(NiGe)2,mp-4291,0.0,6.45788933,0.0,"{67: 1, 28: 2, 32: 2}","[28, 32, 67]",282322671,Ho1Ni2Ge2
Er(NiGe)2,mp-4865,0.0,6.47351763,0.0,"{68: 1, 28: 2, 32: 2}","[28, 32, 68]",282322681,Er1Ni2Ge2
Tm(NiGe)2,mp-4195,0.0,6.48474371,0.0,"{69: 1, 28: 2, 32: 2}","[28, 32, 69]",282322691,Tm1Ni2Ge2
Lu(NiGe)2,mp-13399,0.0,6.51368281,0.0,"{71: 1, 28: 2, 32: 2}","[28, 32, 71]",282322711,Lu1Ni2Ge2
Th(NiGe)2,mp-3264,0.0,8.00601375,0.0,"{90: 1, 28: 2, 32: 2}","[28, 32, 90]",282322901,Th1Ni2Ge2
U(NiGe)2,mp-5591,0.0,8.11668649,0.01689968729999869,"{92: 1, 28: 2, 32: 2}","[28, 32, 92]",282322921,U1Ni2Ge2
Np(NiGe)2,mp-570073,0.0,9.21129245,0.0,"{93: 1, 28: 2, 32: 2}","[28, 32, 93]",282322931,Np1Ni2Ge2
Lu3Ni2Ge3,mp-29779,0.0,5.82270064,0.0,"{71: 3, 28: 2, 32: 3}","[28, 32, 71]",282323713,Lu3Ni2Ge3
Dy4In(NiGe2)2,mp-20748,0.0,5.94385303,0.0,"{66: 4, 49: 1, 28: 2, 32: 4}","[28, 32, 49, 66]",282324491664,Dy4In1Ni2Ge4
Ho4In(NiGe2)2,mp-13510,0.0,5.92917511,0.0,"{67: 4, 49: 1, 28: 2, 32: 4}","[28, 32, 49, 67]",282324491674,Ho4In1Ni2Ge4
Er4In(NiGe2)2,mp-13508,0.0,5.99196279,0.0,"{68: 4, 49: 1, 28: 2, 32: 4}","[28, 32, 49, 68]",282324491684,Er4In1Ni2Ge4
Tm4In(NiGe2)2,mp-13511,0.0,6.00429025,0.0,"{69: 4, 49: 1, 28: 2, 32: 4}","[28, 32, 49, 69]",282324491694,Tm4In1Ni2Ge4
TbNd(NiGe2)2,mp-1217497,0.0,5.0078643,0.0,"{65: 1, 60: 1, 28: 2, 32: 4}","[28, 32, 60, 65]",282324601651,Tb1Nd1Ni2Ge4
Ce3Ni2Ge7,mp-1213875,0.0,7.81635017,0.0,"{58: 3, 28: 2, 32: 7}","[28, 32, 58]",282327583,Ce3Ni2Ge7
Re5(NiAs6)2,mp-504815,0.0,6.96704171,0.0010848486466166207,"{75: 5, 28: 2, 33: 12}","[28, 33, 75]",2823312755,Re5Ni2As12
Sr(NiAs)2,mp-4316,0.0,5.83596736,0.0,"{38: 1, 28: 2, 33: 2}","[28, 33, 38]",282332381,Sr1Ni2As2
Ba(NiAs)2,mp-568280,0.0,5.11381284,0.0,"{56: 1, 28: 2, 33: 2}","[28, 33, 56]",282332561,Ba1Ni2As2
La(NiAs)2,mp-20044,0.0,8.50666515,0.0,"{57: 1, 28: 2, 33: 2}","[28, 33, 57]",282332571,La1Ni2As2
Ce(NiAs)2,mp-610645,0.0,9.13614906,0.0,"{58: 1, 28: 2, 33: 2}","[28, 33, 58]",282332581,Ce1Ni2As2
Pr(NiAs)2,mp-1087218,0.0,6.95172911,0.0,"{59: 1, 28: 2, 33: 2}","[28, 33, 59]",282332591,Pr1Ni2As2
Nd(NiAs)2,mp-20836,0.0,6.98443641,0.0,"{60: 1, 28: 2, 33: 2}","[28, 33, 60]",282332601,Nd1Ni2As2
Sm(NiAs)2,mp-1079033,0.0,6.91062648,0.0026489416867363502,"{62: 1, 28: 2, 33: 2}","[28, 33, 62]",282332621,Sm1Ni2As2
Eu(NiAs)2,mp-6992,0.0,6.23383965,0.0,"{63: 1, 28: 2, 33: 2}","[28, 33, 63]",282332631,Eu1Ni2As2
Gd(NiAs)2,mp-582433,0.0,6.95132586,0.0,"{64: 1, 28: 2, 33: 2}","[28, 33, 64]",282332641,Gd1Ni2As2
U(NiAs)2,mp-1078649,0.0,9.69065893,0.06690572884374912,"{92: 1, 28: 2, 33: 2}","[28, 33, 92]",282332921,U1Ni2As2
Ni2As3Pd4,mp-1220078,0.0,6.8862609,0.015275549797983956,"{28: 2, 33: 3, 46: 4}","[28, 33, 46]",282333464,Ni2As3Pd4
Zr6Ni23,mp-1194271,0.0,6.9998805,0.042554500000000495,"{40: 6, 28: 23}","[28, 40]",2823406,Zr6Ni23
TaNi2TeSe,mp-622009,0.0,6.42209577,0.0,"{73: 1, 28: 2, 52: 1, 34: 1}","[28, 34, 52, 73]",282341521731,Ta1Ni2Te1Se1
Ni2PdSe2,mp-569983,0.0,5.94938687,0.014711995414410595,"{28: 2, 46: 1, 34: 2}","[28, 34, 46]",282342461,Ni2Pd1Se2
Tl(NiSe)2,mp-4354,0.0,5.62739199,0.0223194512333329,"{81: 1, 28: 2, 34: 2}","[28, 34, 81]",282342811,Tl1Ni2Se2
Ta11(NiSe4)2,mp-22744,0.0,5.47812484,0.0,"{73: 11, 28: 2, 34: 8}","[28, 34, 73]",2823487311,Ta11Ni2Se8
Ni23Te42,mp-684997,0.0,7.84473892,0.0038538451538450147,"{28: 23, 52: 42}","[28, 52]",28235242,Ni23Te42
Sr(NiSb)2,mp-569881,0.0,6.89191583,0.0,"{38: 1, 28: 2, 51: 2}","[28, 38, 51]",282381512,Sr1Ni2Sb2
YNi2,mp-1019,0.0,5.99512864,0.005393703529413152,"{39: 1, 28: 2}","[28, 39]",282391,Y1Ni2
Y(Cd10Ni)2,mp-1195833,0.0,3.0187084,0.009773773709770284,"{39: 1, 48: 20, 28: 2}","[28, 39, 48]",2823914820,Y1Cd20Ni2
SmYNi2,mp-1218998,0.0,4.62913744,0.7374585712500004,"{62: 1, 39: 1, 28: 2}","[28, 39, 62]",282391621,Sm1Y1Ni2
TbYNi2,mp-1217442,0.0,4.79142407,0.0010408710416669464,"{65: 1, 39: 1, 28: 2}","[28, 39, 65]",282391651,Tb1Y1Ni2
YErNi2,mp-1215981,0.0,4.69207088,0.0017457875000008727,"{39: 1, 68: 1, 28: 2}","[28, 39, 68]",282391681,Y1Er1Ni2
Y2InNi2,mp-569523,0.0,5.61277224,0.0,"{39: 2, 49: 1, 28: 2}","[28, 39, 49]",282392491,Y2In1Ni2
Y2Ni2Sn,mp-1068331,0.0,6.28758982,0.002984275302750916,"{39: 2, 28: 2, 50: 1}","[28, 39, 50]",282392501,Y2Ni2Sn1
Y3Ni2,mp-582134,0.0,4.21523618,0.0,"{39: 3, 28: 2}","[28, 39]",282393,Y3Ni2
Y5Ni2Sb,mp-1207758,0.0,4.68947501,0.00758166958333284,"{39: 5, 28: 2, 51: 1}","[28, 39, 51]",282395511,Y5Ni2Sb1
Y5(NiTe)2,mp-1207773,0.0,5.41790319,0.0,"{39: 5, 28: 2, 52: 2}","[28, 39, 52]",282395522,Y5Ni2Te2
Y5Ni2Bi,mp-1189582,0.0,4.56531659,0.0075083071874981755,"{39: 5, 28: 2, 83: 1}","[28, 39, 83]",282395831,Y5Ni2Bi1
ZrNi2,mp-2250,0.0,6.60268026,0.04556328583333169,"{40: 1, 28: 2}","[28, 40]",282401,Zr1Ni2
ZrInNi2,mp-20744,0.0,7.65480843,0.0,"{40: 1, 49: 1, 28: 2}","[28, 40, 49]",282401491,Zr1In1Ni2
ZrNi2Sn,mp-19877,0.0,8.11353959,0.048818432421874114,"{40: 1, 28: 2, 50: 1}","[28, 40, 50]",282401501,Zr1Ni2Sn1
ZrNi2Sb,mp-3469,0.0,8.33396252,0.0,"{40: 1, 28: 2, 51: 1}","[28, 40, 51]",282401511,Zr1Ni2Sb1
Zr2InNi2,mp-19906,0.0,6.59128458,0.0,"{40: 2, 49: 1, 28: 2}","[28, 40, 49]",282402491,Zr2In1Ni2
Zr2Ni2Sn,mp-510040,0.0,7.22354064,0.017457659499999778,"{40: 2, 28: 2, 50: 1}","[28, 40, 50]",282402501,Zr2Ni2Sn1
NbNi2,mp-1103618,0.0,7.10346618,0.07626971661111259,"{41: 1, 28: 2}","[28, 41]",282411,Nb1Ni2
NbInNi2,mp-1097137,0.0,-2.86048184,2.8127513235119066,"{41: 1, 49: 1, 28: 2}","[28, 41, 49]",282411491,Nb1In1Ni2
NbNi2Sn,mp-3504,0.0,9.04703614,0.051920869838712136,"{41: 1, 28: 2, 50: 1}","[28, 41, 50]",282411501,Nb1Ni2Sn1
Ni2Mo,mp-784630,0.0,8.21142548,0.007272286666665906,"{28: 2, 42: 1}","[28, 42]",282421,Ni2Mo1
Y9Ni24Sn49,mp-1216614,0.0,8.44500943,0.02097456145579457,"{39: 9, 28: 24, 50: 49}","[28, 39, 50]",28243995049,Y9Ni24Sn49
Ho3(NiRu2)2,mp-1224476,0.0,5.8855334,0.0,"{67: 3, 28: 2, 44: 4}","[28, 44, 67]",282444673,Ho3Ni2Ru4
Pr9Ni24Sn49,mp-1220833,0.0,8.34198527,0.007800216585374109,"{59: 9, 28: 24, 50: 49}","[28, 50, 59]",28245049599,Pr9Ni24Sn49
Nd9Ni24Sn49,mp-1221008,0.0,8.25737641,0.011736115679441106,"{60: 9, 28: 24, 50: 49}","[28, 50, 60]",28245049609,Nd9Ni24Sn49
Sm9Ni24Sn49,mp-1219586,0.0,8.43625477,0.3549313183797915,"{62: 9, 28: 24, 50: 49}","[28, 50, 62]",28245049629,Sm9Ni24Sn49
Tb9Ni24Sn49,mp-1217867,0.0,8.39973223,0.018450462439025372,"{65: 9, 28: 24, 50: 49}","[28, 50, 65]",28245049659,Tb9Ni24Sn49
LaNi2Rh3,mp-1018742,0.0,7.2528776,0.0,"{57: 1, 28: 2, 45: 3}","[28, 45, 57]",282453571,La1Ni2Rh3
La2CdNi2,mp-1207146,0.0,6.86152889,0.0,"{57: 2, 48: 1, 28: 2}","[28, 48, 57]",282481572,La2Cd1Ni2
Pr2CdNi2,mp-11990,0.0,4.37651231,0.0,"{59: 2, 48: 1, 28: 2}","[28, 48, 59]",282481592,Pr2Cd1Ni2
Nd2CdNi2,mp-11991,0.0,4.2984333,0.0,"{60: 2, 48: 1, 28: 2}","[28, 48, 60]",282481602,Nd2Cd1Ni2
Sm2CdNi2,mp-1206624,0.0,4.04210301,0.6366456809999974,"{62: 2, 48: 1, 28: 2}","[28, 48, 62]",282481622,Sm2Cd1Ni2
Tb2CdNi2,mp-1206788,0.0,4.32331536,0.0,"{65: 2, 48: 1, 28: 2}","[28, 48, 65]",282481652,Tb2Cd1Ni2
La(Cd10Ni)2,mp-1204376,0.0,3.31959688,0.004097867869564897,"{57: 1, 48: 20, 28: 2}","[28, 48, 57]",2824820571,La1Cd20Ni2
Ce(Cd10Ni)2,mp-1203677,0.0,3.25508136,0.02369553021739379,"{58: 1, 48: 20, 28: 2}","[28, 48, 58]",2824820581,Ce1Cd20Ni2
Pr(Cd10Ni)2,mp-1199068,0.0,3.01163253,0.0,"{59: 1, 48: 20, 28: 2}","[28, 48, 59]",2824820591,Pr1Cd20Ni2
Nd(Cd10Ni)2,mp-1202765,0.0,3.00450807,0.0,"{60: 1, 48: 20, 28: 2}","[28, 48, 60]",2824820601,Nd1Cd20Ni2
Sm(Cd10Ni)2,mp-1197639,0.0,3.04235549,0.1564380246075685,"{62: 1, 48: 20, 28: 2}","[28, 48, 62]",2824820621,Sm1Cd20Ni2
Gd(Cd10Ni)2,mp-1196375,0.0,2.65713927,0.2377934436335425,"{64: 1, 48: 20, 28: 2}","[28, 48, 64]",2824820641,Gd1Cd20Ni2
Tb(Cd10Ni)2,mp-1201592,0.0,3.0484057,0.015150835069171364,"{65: 1, 48: 20, 28: 2}","[28, 48, 65]",2824820651,Tb1Cd20Ni2
InNi2,mp-21092,0.0,8.63010913,0.10042597999999892,"{49: 1, 28: 2}","[28, 49]",282491,In1Ni2
InNi2Sn,mp-1223749,0.0,8.502361,0.0069619088541665874,"{49: 1, 28: 2, 50: 1}","[28, 49, 50]",282491501,In1Ni2Sn1
LaInNi2,mp-21207,0.0,8.41832602,0.0,"{57: 1, 49: 1, 28: 2}","[28, 49, 57]",282491571,La1In1Ni2
La2InNi2,mp-1106017,0.0,8.22994851,0.0,"{57: 2, 49: 1, 28: 2}","[28, 49, 57]",282491572,La2In1Ni2
Ce2InNi2,mp-640108,0.0,8.22534892,0.0,"{58: 2, 49: 1, 28: 2}","[28, 49, 58]",282491582,Ce2In1Ni2
PrInNi2,mp-1080775,0.0,6.5219617,0.0,"{59: 1, 49: 1, 28: 2}","[28, 49, 59]",282491591,Pr1In1Ni2
Pr2InNi2,mp-1080181,0.0,5.61318464,0.0,"{59: 2, 49: 1, 28: 2}","[28, 49, 59]",282491592,Pr2In1Ni2
NdInNi2,mp-1079595,0.0,6.50764986,0.0,"{60: 1, 49: 1, 28: 2}","[28, 49, 60]",282491601,Nd1In1Ni2
Nd2InNi2,mp-1079664,0.0,5.56076636,0.0,"{60: 2, 49: 1, 28: 2}","[28, 49, 60]",282491602,Nd2In1Ni2
PmInNi2,mp-862922,0.0,6.84490134,0.0,"{61: 1, 49: 1, 28: 2}","[28, 49, 61]",282491611,Pm1In1Ni2
Sm2InNi2,mp-1070631,0.0,5.40374812,0.0,"{62: 2, 49: 1, 28: 2}","[28, 49, 62]",282491622,Sm2In1Ni2
Gd2InNi2,mp-1076993,0.0,5.15156208,0.0,"{64: 2, 49: 1, 28: 2}","[28, 49, 64]",282491642,Gd2In1Ni2
Tb2InNi2,mp-1068164,0.0,5.72193779,0.0,"{65: 2, 49: 1, 28: 2}","[28, 49, 65]",282491652,Tb2In1Ni2
Dy2InNi2,mp-1068319,0.0,5.67256474,0.0,"{66: 2, 49: 1, 28: 2}","[28, 49, 66]",282491662,Dy2In1Ni2
Ho2InNi2,mp-1068024,0.0,5.57406511,0.0,"{67: 2, 49: 1, 28: 2}","[28, 49, 67]",282491672,Ho2In1Ni2
Er2InNi2,mp-1067986,0.0,5.61682515,0.0,"{68: 2, 49: 1, 28: 2}","[28, 49, 68]",282491682,Er2In1Ni2
Er5InNi2,mp-1213219,0.0,4.3904845,0.005161397500001996,"{68: 5, 49: 1, 28: 2}","[28, 49, 68]",282491685,Er5In1Ni2
Tm2InNi2,mp-1068283,0.0,5.56243746,0.0,"{69: 2, 49: 1, 28: 2}","[28, 49, 69]",282491692,Tm2In1Ni2
LuInNi2,mp-865945,0.0,7.24643845,0.042424083611111385,"{71: 1, 49: 1, 28: 2}","[28, 49, 71]",282491711,Lu1In1Ni2
Lu2InNi2,mp-1068243,0.0,5.56043726,0.0,"{71: 2, 49: 1, 28: 2}","[28, 49, 71]",282491712,Lu2In1Ni2
HfInNi2,mp-640024,0.0,8.4251999,0.03463929312096692,"{72: 1, 49: 1, 28: 2}","[28, 49, 72]",282491721,Hf1In1Ni2
Hf2InNi2,mp-1185055,0.0,7.08087113,0.0,"{72: 2, 49: 1, 28: 2}","[28, 49, 72]",282491722,Hf2In1Ni2
InNi2Au,mp-1184770,0.0,7.60434604,0.057278940625000274,"{49: 1, 28: 2, 79: 1}","[28, 49, 79]",282491791,In1Ni2Au1
PaInNi2,mp-1186470,0.0,9.75380326,0.04253907333332663,"{91: 1, 49: 1, 28: 2}","[28, 49, 91]",282491911,Pa1In1Ni2
UInNi2,mp-646821,0.0,9.9083579,0.12503790258241665,"{92: 1, 49: 1, 28: 2}","[28, 49, 92]",282491921,U1In1Ni2
U2InNi2,mp-647194,0.0,10.32936931,0.13278243004464407,"{92: 2, 49: 1, 28: 2}","[28, 49, 92]",282491922,U2In1Ni2
Np2InNi2,mp-20091,0.0,10.64649344,0.1376322936500003,"{93: 2, 49: 1, 28: 2}","[28, 49, 93]",282491932,Np2In1Ni2
Pu2InNi2,mp-640458,0.0,11.0146526,0.7303601285277814,"{94: 2, 49: 1, 28: 2}","[28, 49, 94]",282491942,Pu2In1Ni2
In3Ni2,mp-21385,0.0,8.90197844,0.0,"{49: 3, 28: 2}","[28, 49]",282493,In3Ni2
Tb5(In2Ni)2,mp-1191784,0.0,5.71547087,0.0,"{65: 5, 49: 4, 28: 2}","[28, 49, 65]",282494655,Tb5In4Ni2
Dy5(In2Ni)2,mp-607124,0.0,5.79049147,0.0,"{66: 5, 49: 4, 28: 2}","[28, 49, 66]",282494665,Dy5In4Ni2
Ho5(In2Ni)2,mp-1191532,0.0,5.73864521,0.0,"{67: 5, 49: 4, 28: 2}","[28, 49, 67]",282494675,Ho5In4Ni2
Er5(In2Ni)2,mp-1192568,0.0,5.81375431,0.0,"{68: 5, 49: 4, 28: 2}","[28, 49, 68]",282494685,Er5In4Ni2
Tm5(In2Ni)2,mp-1191271,0.0,5.76658466,0.0,"{69: 5, 49: 4, 28: 2}","[28, 49, 69]",282494695,Tm5In4Ni2
Lu5(In2Ni)2,mp-646321,0.0,5.79145478,0.0,"{71: 5, 49: 4, 28: 2}","[28, 49, 71]",282494715,Lu5In4Ni2
Ce2Ni2Sn,mp-22713,0.0,8.7484676,0.0,"{58: 2, 28: 2, 50: 1}","[28, 50, 58]",282501582,Ce2Ni2Sn1
Pr2Ni2Sn,mp-1068489,0.0,6.13484693,0.0,"{59: 2, 28: 2, 50: 1}","[28, 50, 59]",282501592,Pr2Ni2Sn1
Nd2Ni2Sn,mp-1207129,0.0,6.13555251,0.0,"{60: 2, 28: 2, 50: 1}","[28, 50, 60]",282501602,Nd2Ni2Sn1
Nd6Ni2Sn,mp-1209994,0.0,4.3951786,0.038322285046296756,"{60: 6, 28: 2, 50: 1}","[28, 50, 60]",282501606,Nd6Ni2Sn1
PmNi2Sn,mp-862952,0.0,7.17683482,0.0,"{61: 1, 28: 2, 50: 1}","[28, 50, 61]",282501611,Pm1Ni2Sn1
Gd2Ni2Sn,mp-1206945,0.0,5.9772422,0.0,"{64: 2, 28: 2, 50: 1}","[28, 50, 64]",282501642,Gd2Ni2Sn1
Tb2Ni2Sn,mp-1068217,0.0,6.26170302,0.0,"{65: 2, 28: 2, 50: 1}","[28, 50, 65]",282501652,Tb2Ni2Sn1
Tb6Ni2Sn,mp-1105993,0.0,4.49262409,0.03137265158950697,"{65: 6, 28: 2, 50: 1}","[28, 50, 65]",282501656,Tb6Ni2Sn1
Dy2Ni2Sn,mp-1207036,0.0,6.27950049,0.0,"{66: 2, 28: 2, 50: 1}","[28, 50, 66]",282501662,Dy2Ni2Sn1
Dy6Ni2Sn,mp-1106355,0.0,4.52668907,0.017736212901236392,"{66: 6, 28: 2, 50: 1}","[28, 50, 66]",282501666,Dy6Ni2Sn1
Ho2Ni2Sn,mp-1078261,0.0,5.94530562,0.0,"{67: 2, 28: 2, 50: 1}","[28, 50, 67]",282501672,Ho2Ni2Sn1
Ho6Ni2Sn,mp-1189081,0.0,4.46985748,0.02191035861111068,"{67: 6, 28: 2, 50: 1}","[28, 50, 67]",282501676,Ho6Ni2Sn1
Er2Ni2Sn,mp-1080713,0.0,6.0119879,0.0,"{68: 2, 28: 2, 50: 1}","[28, 50, 68]",282501682,Er2Ni2Sn1
Er6Ni2Sn,mp-3816,0.0,4.46162983,0.015882632962963328,"{68: 6, 28: 2, 50: 1}","[28, 50, 68]",282501686,Er6Ni2Sn1
TmNi2Sn,mp-865974,0.0,7.48677642,0.02365042407737672,"{69: 1, 28: 2, 50: 1}","[28, 50, 69]",282501691,Tm1Ni2Sn1
Tm2Ni2Sn,mp-1095204,0.0,5.84323387,0.0,"{69: 2, 28: 2, 50: 1}","[28, 50, 69]",282501692,Tm2Ni2Sn1
Tm6Ni2Sn,mp-1188573,0.0,4.31921748,0.011244623333332981,"{69: 6, 28: 2, 50: 1}","[28, 50, 69]",282501696,Tm6Ni2Sn1
LuNi2Sn,mp-11492,0.0,7.60622506,0.01792669265624891,"{71: 1, 28: 2, 50: 1}","[28, 50, 71]",282501711,Lu1Ni2Sn1
Lu6Ni2Sn,mp-30771,0.0,4.37347759,0.0,"{71: 6, 28: 2, 50: 1}","[28, 50, 71]",282501716,Lu6Ni2Sn1
HfNi2Sn,mp-4828,0.0,8.50510691,0.04730787291071081,"{72: 1, 28: 2, 50: 1}","[28, 50, 72]",282501721,Hf1Ni2Sn1
Hf2Ni2Sn,mp-510041,0.0,7.61572003,0.010986379499998478,"{72: 2, 28: 2, 50: 1}","[28, 50, 72]",282501722,Hf2Ni2Sn1
PaNi2Sn,mp-861995,0.0,10.50910748,0.0,"{91: 1, 28: 2, 50: 1}","[28, 50, 91]",282501911,Pa1Ni2Sn1
UNi2Sn,mp-672374,0.0,10.47948925,0.03942285126059186,"{92: 1, 28: 2, 50: 1}","[28, 50, 92]",282501921,U1Ni2Sn1
U2Ni2Sn,mp-22813,0.0,10.46898486,0.10814430793750152,"{92: 2, 28: 2, 50: 1}","[28, 50, 92]",282501922,U2Ni2Sn1
Pu2Ni2Sn,mp-640051,0.0,10.36669842,0.013850152763895451,"{94: 2, 28: 2, 50: 1}","[28, 50, 94]",282501942,Pu2Ni2Sn1
La(NiSn)2,mp-1078717,0.0,8.63771734,0.0,"{57: 1, 28: 2, 50: 2}","[28, 50, 57]",282502571,La1Ni2Sn2
Ce(NiSn)2,mp-1078794,0.0,8.62434433,0.0,"{58: 1, 28: 2, 50: 2}","[28, 50, 58]",282502581,Ce1Ni2Sn2
Pr(NiSn)2,mp-567909,0.0,6.96646561,0.0,"{59: 1, 28: 2, 50: 2}","[28, 50, 59]",282502591,Pr1Ni2Sn2
Nd(NiSn)2,mp-20000,0.0,7.17601401,0.0,"{60: 1, 28: 2, 50: 2}","[28, 50, 60]",282502601,Nd1Ni2Sn2
Sm(NiSn)2,mp-1080144,0.0,7.17181274,0.5370515912857146,"{62: 1, 28: 2, 50: 2}","[28, 50, 62]",282502621,Sm1Ni2Sn2
Th(NiSn)2,mp-980110,0.0,8.78493465,0.0,"{90: 1, 28: 2, 50: 2}","[28, 50, 90]",282502901,Th1Ni2Sn2
Ni2Sn4Au,mp-568925,0.0,8.47777087,0.0,"{28: 2, 50: 4, 79: 1}","[28, 50, 79]",282504791,Ni2Sn4Au1
La3Ni2Sn7,mp-13093,0.0,8.7743681,0.0,"{57: 3, 28: 2, 50: 7}","[28, 50, 57]",282507573,La3Ni2Sn7
Ce3Ni2Sn7,mp-510126,0.0,8.60139072,0.0,"{58: 3, 28: 2, 50: 7}","[28, 50, 58]",282507583,Ce3Ni2Sn7
Pr3Ni2Sn7,mp-1103584,0.0,5.53404145,0.5181348472829841,"{59: 3, 28: 2, 50: 7}","[28, 50, 59]",282507593,Pr3Ni2Sn7
Nd3Ni2Sn7,mp-1101908,0.0,7.27067757,0.0,"{60: 3, 28: 2, 50: 7}","[28, 50, 60]",282507603,Nd3Ni2Sn7
Ni2SbTe,mp-38006,0.0,9.39160617,0.009936296250000254,"{28: 2, 51: 1, 52: 1}","[28, 51, 52]",282511521,Ni2Sb1Te1
Ni2SbTe2,mp-3250,0.0,8.08232919,0.0,"{28: 2, 51: 1, 52: 2}","[28, 51, 52]",282511522,Ni2Sb1Te2
Tb5Ni2Sb,mp-1208414,0.0,4.86815835,0.015250824027777554,"{65: 5, 28: 2, 51: 1}","[28, 51, 65]",282511655,Tb5Ni2Sb1
Dy5Ni2Sb,mp-9353,0.0,4.79328632,0.0,"{66: 5, 28: 2, 51: 1}","[28, 51, 66]",282511665,Dy5Ni2Sb1
Ho5Ni2Sb,mp-10500,0.0,4.70198552,0.0039519189062513504,"{67: 5, 28: 2, 51: 1}","[28, 51, 67]",282511675,Ho5Ni2Sb1
Er5Ni2Sb,mp-1213207,0.0,4.70337711,0.0,"{68: 5, 28: 2, 51: 1}","[28, 51, 68]",282511685,Er5Ni2Sb1
Tm5Ni2Sb,mp-1207984,0.0,4.72296351,0.0,"{69: 5, 28: 2, 51: 1}","[28, 51, 69]",282511695,Tm5Ni2Sb1
Lu5Ni2Sb,mp-1210754,0.0,4.61434312,0.0,"{71: 5, 28: 2, 51: 1}","[28, 51, 71]",282511715,Lu5Ni2Sb1
HfNi2Sb,mp-1078574,0.0,8.73916181,0.0,"{72: 1, 28: 2, 51: 1}","[28, 51, 72]",282511721,Hf1Ni2Sb1
PaNi2Sb,mp-861992,0.0,10.66638973,0.037414378500002954,"{91: 1, 28: 2, 51: 1}","[28, 51, 91]",282511911,Pa1Ni2Sb1
Ce(NiSb)2,mp-1078924,0.0,9.14637289,0.0,"{58: 1, 28: 2, 51: 2}","[28, 51, 58]",282512581,Ce1Ni2Sb2
Pr(NiSb)2,mp-1078736,0.0,7.95130135,0.0,"{59: 1, 28: 2, 51: 2}","[28, 51, 59]",282512591,Pr1Ni2Sb2
Nd(NiSb)2,mp-976380,0.0,7.8342306,0.0,"{60: 1, 28: 2, 51: 2}","[28, 51, 60]",282512601,Nd1Ni2Sb2
Sm(NiSb)2,mp-1080567,0.0,7.88416896,0.015458291000001623,"{62: 1, 28: 2, 51: 2}","[28, 51, 62]",282512621,Sm1Ni2Sb2
Eu(NiSb)2,mp-570308,0.0,7.14897336,0.0,"{63: 1, 28: 2, 51: 2}","[28, 51, 63]",282512631,Eu1Ni2Sb2
Gd(NiSb)2,mp-569296,0.0,7.08100691,0.09694732799999617,"{64: 1, 28: 2, 51: 2}","[28, 51, 64]",282512641,Gd1Ni2Sb2
Tb(NiSb)2,mp-1086656,0.0,8.04907998,0.07122284399999668,"{65: 1, 28: 2, 51: 2}","[28, 51, 65]",282512651,Tb1Ni2Sb2
Dy(NiSb)2,mp-1080718,0.0,8.22305108,0.09119780399999833,"{66: 1, 28: 2, 51: 2}","[28, 51, 66]",282512661,Dy1Ni2Sb2
Ho(NiSb)2,mp-1079761,0.0,7.96133183,0.10618287099999968,"{67: 1, 28: 2, 51: 2}","[28, 51, 67]",282512671,Ho1Ni2Sb2
Er(NiSb)2,mp-1079414,0.0,8.06878882,0.12441243699999927,"{68: 1, 28: 2, 51: 2}","[28, 51, 68]",282512681,Er1Ni2Sb2
Er5(NiTe)2,mp-567994,0.0,5.43305059,0.0,"{68: 5, 28: 2, 52: 2}","[28, 52, 68]",282522685,Er5Ni2Te2
Er7(NiTe)2,mp-29914,0.0,4.71456104,0.0,"{68: 7, 28: 2, 52: 2}","[28, 52, 68]",282522687,Er7Ni2Te2
Lu7(NiTe)2,mp-11752,0.0,4.67472988,0.0,"{71: 7, 28: 2, 52: 2}","[28, 52, 71]",282522717,Lu7Ni2Te2
Ta(NiTe)2,mp-28667,0.0,6.8642157,0.0036726987499831054,"{73: 1, 28: 2, 52: 2}","[28, 52, 73]",282522731,Ta1Ni2Te2
TaNi2Te3,mp-9391,0.0,5.94233357,0.0,"{73: 1, 28: 2, 52: 3}","[28, 52, 73]",282523731,Ta1Ni2Te3
La2Ni2I,mp-1070264,0.0,7.67773843,0.0,"{57: 2, 28: 2, 53: 1}","[28, 53, 57]",282531572,La2Ni2I1
Pr2Ni2I,mp-568506,0.0,5.51522295,0.0,"{59: 2, 28: 2, 53: 1}","[28, 53, 59]",282531592,Pr2Ni2I1
Y4ZrNi25,mp-1216356,0.0,6.47722036,0.00715504933333122,"{39: 4, 40: 1, 28: 25}","[28, 39, 40]",2825394401,Y4Zr1Ni25
LaNi2,mp-2708,0.0,9.65673913,0.023639428888890812,"{57: 1, 28: 2}","[28, 57]",282571,La1Ni2
LaNdNi2,mp-1223354,0.0,4.8075167,0.6553728674999997,"{57: 1, 60: 1, 28: 2}","[28, 57, 60]",282571601,La1Nd1Ni2
CeNi2,mp-1654,0.0,9.38692474,0.0,"{58: 1, 28: 2}","[28, 58]",282581,Ce1Ni2
PrNi2,mp-2016,0.0,6.3925,0.012228450000001168,"{59: 1, 28: 2}","[28, 59]",282591,Pr1Ni2