formula,material_id,band_gap,efermi,energy_above_hull,comp_atoms,sorted_keys_comp_atoms,comp_number,new_formula
SiNi3W2,mp-1219226,0.0,8.69001101,0.0045038366666609875,"{14: 1, 28: 3, 74: 2}","[14, 28, 74]",141283742,Si1Ni3W2
Zn12SiNi4,mp-1208620,0.20530000000000026,-3.53576735,1.6650565799243693,"{30: 12, 14: 1, 28: 4}","[14, 28, 30]",1412843012,Zn12Si1Ni4
Ga3SiNi4,mp-1224819,0.0,7.13354845,0.014440899687500064,"{31: 3, 14: 1, 28: 4}","[14, 28, 31]",141284313,Ga3Si1Ni4
YSiNi4,mp-1072437,0.0,7.03954083,0.0,"{39: 1, 14: 1, 28: 4}","[14, 28, 39]",141284391,Y1Si1Ni4
LaSiNi4,mp-1071627,0.0,8.89124838,0.0,"{57: 1, 14: 1, 28: 4}","[14, 28, 57]",141284571,La1Si1Ni4
CeSiNi4,mp-1072537,0.0,8.91883188,0.0,"{58: 1, 14: 1, 28: 4}","[14, 28, 58]",141284581,Ce1Si1Ni4
Ce6SiNi4,mp-1214252,0.0,8.30498744,0.07699817227272643,"{58: 6, 14: 1, 28: 4}","[14, 28, 58]",141284586,Ce6Si1Ni4
NdSiNi4,mp-1070857,0.0,7.05089828,0.0,"{60: 1, 14: 1, 28: 4}","[14, 28, 60]",141284601,Nd1Si1Ni4
SmSiNi4,mp-1070955,0.0,6.98031223,0.0,"{62: 1, 14: 1, 28: 4}","[14, 28, 62]",141284621,Sm1Si1Ni4
TbSiNi4,mp-1070859,0.0,7.15002737,0.0,"{65: 1, 14: 1, 28: 4}","[14, 28, 65]",141284651,Tb1Si1Ni4
DySiNi4,mp-1077126,0.0,7.12470036,0.0,"{66: 1, 14: 1, 28: 4}","[14, 28, 66]",141284661,Dy1Si1Ni4
HoSiNi4,mp-1071731,0.0,7.10539551,0.0,"{67: 1, 14: 1, 28: 4}","[14, 28, 67]",141284671,Ho1Si1Ni4
GaSiNi6,mp-1224834,0.0,8.32344225,0.0,"{31: 1, 14: 1, 28: 6}","[14, 28, 31]",141286311,Ga1Si1Ni6
SiNi6Ge,mp-1219193,0.0,9.20371632,4.940250000196045e-05,"{14: 1, 28: 6, 32: 1}","[14, 28, 32]",141286321,Si1Ni6Ge1
Si(Ni3Se)2,mp-1219269,0.0,7.90010991,0.028873554444445837,"{14: 1, 28: 6, 34: 2}","[14, 28, 34]",141286342,Si1Ni6Se2
U4SiNi7,mp-1216955,0.0,11.41776367,0.007745749166666371,"{92: 4, 14: 1, 28: 7}","[14, 28, 92]",141287924,U4Si1Ni7
Nb3SiNi8,mp-1220646,0.0,7.55776562,0.2094000687847215,"{41: 3, 14: 1, 28: 8}","[14, 28, 41]",141288413,Nb3Si1Ni8
Ta3SiNi8,mp-1218043,0.0,8.01166224,0.2239866041493066,"{73: 3, 14: 1, 28: 8}","[14, 28, 73]",141288733,Ta3Si1Ni8
Ni(H2Cl)2,mp-1210104,0.0,1.5713084,0.7210631883928569,"{28: 1, 1: 4, 17: 2}","[1, 17, 28]",14172281,Ni1H4Cl2
Si2NiP3,mp-28945,0.0,6.9380343,0.0044675661979169945,"{14: 2, 28: 1, 15: 3}","[14, 15, 28]",142153281,Si2Ni1P3
Si2Ni5P3,mp-649521,0.0,9.22836974,0.05108773637500086,"{14: 2, 28: 5, 15: 3}","[14, 15, 28]",142153285,Si2Ni5P3
Si2Ni7P5,mp-582159,0.0,9.35435679,0.0367586349702389,"{14: 2, 28: 7, 15: 5}","[14, 15, 28]",142155287,Si2Ni7P5
La6Si2NiS14,mp-1223361,0.9031000000000002,5.80887481,0.0,"{57: 6, 14: 2, 28: 1, 16: 14}","[14, 16, 28, 57]",1421614281576,La6Si2Ni1S14
Cu4Si2NiS7,mp-557274,0.0,5.36871012,0.023640346274998336,"{29: 4, 14: 2, 28: 1, 16: 7}","[14, 16, 28, 29]",142167281294,Cu4Si2Ni1S7
Ca(SiNi)2,mp-5292,0.0,6.72812912,0.0,"{20: 1, 14: 2, 28: 2}","[14, 20, 28]",142201282,Ca1Si2Ni2
Ca3Si2Ni3,mp-542138,0.0,4.82396924,0.0,"{20: 3, 14: 2, 28: 3}","[14, 20, 28]",142203283,Ca3Si2Ni3
Sc(SiNi)2,mp-3587,0.0,7.66163208,0.0,"{21: 1, 14: 2, 28: 2}","[14, 21, 28]",142211282,Sc1Si2Ni2
MnSi2Ni,mp-1221554,0.0,9.97129723,0.007114602499999734,"{25: 1, 14: 2, 28: 1}","[14, 25, 28]",142251281,Mn1Si2Ni1
Fe3Si2Ni3,mp-1225224,0.0,8.23869402,0.05190266508064045,"{26: 3, 14: 2, 28: 3}","[14, 26, 28]",142263283,Fe3Si2Ni3
UFe5Si2Ni5,mp-1217037,0.0,8.2741983,0.18328163326923175,"{92: 1, 26: 5, 14: 2, 28: 5}","[14, 26, 28, 92]",142265285921,U1Fe5Si2Ni5
Si2Ni,mp-2291,0.0,10.02070622,0.0,"{14: 2, 28: 1}","[14, 28]",142281,Si2Ni1
Gd(SiNi5)2,mp-1225143,0.0,7.80274618,0.01957770474358611,"{64: 1, 14: 2, 28: 10}","[14, 28, 64]",1422810641,Gd1Si2Ni10
Tb(SiNi5)2,mp-21601,0.0,7.94822321,0.0,"{65: 1, 14: 2, 28: 10}","[14, 28, 65]",1422810651,Tb1Si2Ni10
Dy(SiNi5)2,mp-542389,0.0,7.94048934,0.0,"{66: 1, 14: 2, 28: 10}","[14, 28, 66]",1422810661,Dy1Si2Ni10
Ho(SiNi5)2,mp-542390,0.0,7.92649013,0.0,"{67: 1, 14: 2, 28: 10}","[14, 28, 67]",1422810671,Ho1Si2Ni10
Er(SiNi5)2,mp-21548,0.0,7.95102122,0.0,"{68: 1, 14: 2, 28: 10}","[14, 28, 68]",1422810681,Er1Si2Ni10
Tm(SiNi5)2,mp-542391,0.0,7.96698704,0.0,"{69: 1, 14: 2, 28: 10}","[14, 28, 69]",1422810691,Tm1Si2Ni10
U(SiNi5)2,mp-1217045,0.0,9.51483776,0.02481630203297147,"{92: 1, 14: 2, 28: 10}","[14, 28, 92]",1422810921,U1Si2Ni10
YCuSi2Ni,mp-1215939,0.0,7.04994008,0.009645307999994301,"{39: 1, 29: 1, 14: 2, 28: 1}","[14, 28, 29, 39]",142281291391,Y1Cu1Si2Ni1
LaCuSi2Ni,mp-1222926,0.0,8.55484936,0.012202477999989192,"{57: 1, 29: 1, 14: 2, 28: 1}","[14, 28, 29, 57]",142281291571,La1Cu1Si2Ni1
CeCuSi2Ni,mp-1226605,0.0,8.52615348,0.0,"{58: 1, 29: 1, 14: 2, 28: 1}","[14, 28, 29, 58]",142281291581,Ce1Cu1Si2Ni1
UCuSi2Ni,mp-1216599,0.0,10.10205375,0.0,"{92: 1, 29: 1, 14: 2, 28: 1}","[14, 28, 29, 92]",142281291921,U1Cu1Si2Ni1
Si2NiSe4,mp-1025341,0.0,5.60729297,0.29296874083333435,"{14: 2, 28: 1, 34: 4}","[14, 28, 34]",142281344,Si2Ni1Se4
YSi2Ni,mp-1206088,0.0,7.40564094,0.0,"{39: 1, 14: 2, 28: 1}","[14, 28, 39]",142281391,Y1Si2Ni1
Si2NiPd,mp-1219266,0.0,8.72863571,0.02614373697916683,"{14: 2, 28: 1, 46: 1}","[14, 28, 46]",142281461,Si2Ni1Pd1
Ce2Si2Ni15,mp-1202894,0.0,8.26659615,0.13288672184210437,"{58: 2, 14: 2, 28: 15}","[14, 28, 58]",1422815582,Ce2Si2Ni15
LaSi2Ni,mp-1079037,0.0,8.9418205,0.0,"{57: 1, 14: 2, 28: 1}","[14, 28, 57]",142281571,La1Si2Ni1
CeSi2Ni,mp-15653,0.0,8.93327816,0.0,"{58: 1, 14: 2, 28: 1}","[14, 28, 58]",142281581,Ce1Si2Ni1
Ce2Si2NiPt,mp-1226865,0.0,7.84703781,0.012751918333333556,"{58: 2, 14: 2, 28: 1, 78: 1}","[14, 28, 58, 78]",142281582781,Ce2Si2Ni1Pt1
PrSi2Ni,mp-5493,0.0,7.07009938,0.0,"{59: 1, 14: 2, 28: 1}","[14, 28, 59]",142281591,Pr1Si2Ni1
NdSi2Ni,mp-3734,0.0,7.01815393,0.0,"{60: 1, 14: 2, 28: 1}","[14, 28, 60]",142281601,Nd1Si2Ni1
SmSi2Ni,mp-1025420,0.0,6.92523924,0.0,"{62: 1, 14: 2, 28: 1}","[14, 28, 62]",142281621,Sm1Si2Ni1
Sm3Si2Ni,mp-617312,0.0,4.91615285,0.0,"{62: 3, 14: 2, 28: 1}","[14, 28, 62]",142281623,Sm3Si2Ni1
EuSi2Ni,mp-1025553,0.0,6.27355726,0.0,"{63: 1, 14: 2, 28: 1}","[14, 28, 63]",142281631,Eu1Si2Ni1
GdSi2Ni,mp-1079677,0.0,7.54929975,0.0,"{64: 1, 14: 2, 28: 1}","[14, 28, 64]",142281641,Gd1Si2Ni1
TbSi2Ni,mp-4993,0.0,7.29447478,0.0,"{65: 1, 14: 2, 28: 1}","[14, 28, 65]",142281651,Tb1Si2Ni1
Tb3Si2Ni,mp-1190904,0.0,4.88096573,0.0,"{65: 3, 14: 2, 28: 1}","[14, 28, 65]",142281653,Tb3Si2Ni1
DySi2Ni,mp-4171,0.0,7.33779455,0.0,"{66: 1, 14: 2, 28: 1}","[14, 28, 66]",142281661,Dy1Si2Ni1
Dy3Si2Ni,mp-1192305,0.0,4.77218984,0.0,"{66: 3, 14: 2, 28: 1}","[14, 28, 66]",142281663,Dy3Si2Ni1
HoSi2Ni,mp-5150,0.0,7.36718042,0.0,"{67: 1, 14: 2, 28: 1}","[14, 28, 67]",142281671,Ho1Si2Ni1
ErSi2Ni,mp-12382,0.0,7.33959918,0.0,"{68: 1, 14: 2, 28: 1}","[14, 28, 68]",142281681,Er1Si2Ni1
TmSi2Ni,mp-1025393,0.0,7.39392876,0.0,"{69: 1, 14: 2, 28: 1}","[14, 28, 69]",142281691,Tm1Si2Ni1
LuSi2Ni,mp-973633,0.0,7.46918616,0.0,"{71: 1, 14: 2, 28: 1}","[14, 28, 71]",142281711,Lu1Si2Ni1
ThSi2Ni,mp-1025413,0.0,8.91297352,0.0,"{90: 1, 14: 2, 28: 1}","[14, 28, 90]",142281901,Th1Si2Ni1
Y(SiNi)2,mp-5176,0.0,7.11878538,0.0,"{39: 1, 14: 2, 28: 2}","[14, 28, 39]",142282391,Y1Si2Ni2
Y3(SiNi)2,mp-1207763,0.0,5.17272008,0.009707937285714507,"{39: 3, 14: 2, 28: 2}","[14, 28, 39]",142282393,Y3Si2Ni2
Zr(SiNi)2,mp-7707,0.0,8.09529868,0.0,"{40: 1, 14: 2, 28: 2}","[14, 28, 40]",142282401,Zr1Si2Ni2
Ba(SiNi)2,mp-27388,0.0,5.18587359,0.0,"{56: 1, 14: 2, 28: 2}","[14, 28, 56]",142282561,Ba1Si2Ni2
La(SiNi)2,mp-5898,0.0,8.68545333,0.0,"{57: 1, 14: 2, 28: 2}","[14, 28, 57]",142282571,La1Si2Ni2
Ce(SiNi)2,mp-4537,0.0,8.68017934,0.0,"{58: 1, 14: 2, 28: 2}","[14, 28, 58]",142282581,Ce1Si2Ni2
Pr(SiNi)2,mp-4439,0.0,6.94089032,0.0,"{59: 1, 14: 2, 28: 2}","[14, 28, 59]",142282591,Pr1Si2Ni2
Nd(SiNi)2,mp-4007,0.0,6.94611081,0.0,"{60: 1, 14: 2, 28: 2}","[14, 28, 60]",142282601,Nd1Si2Ni2
Sm(SiNi)2,mp-3939,0.0,6.89214028,0.0,"{62: 1, 14: 2, 28: 2}","[14, 28, 62]",142282621,Sm1Si2Ni2
Eu(SiNi)2,mp-4768,0.0,6.50131669,0.0,"{63: 1, 14: 2, 28: 2}","[14, 28, 63]",142282631,Eu1Si2Ni2
Gd(SiNi)2,mp-20956,0.0,7.07542643,0.0,"{64: 1, 14: 2, 28: 2}","[14, 28, 64]",142282641,Gd1Si2Ni2
Gd4Si2Ni2Bi,mp-1213412,0.0,5.23403906,0.0,"{64: 4, 14: 2, 28: 2, 83: 1}","[14, 28, 64, 83]",142282644831,Gd4Si2Ni2Bi1
Tb(SiNi)2,mp-4466,0.0,7.16262673,0.0,"{65: 1, 14: 2, 28: 2}","[14, 28, 65]",142282651,Tb1Si2Ni2
Dy(SiNi)2,mp-4692,0.0,7.16525652,0.0,"{66: 1, 14: 2, 28: 2}","[14, 28, 66]",142282661,Dy1Si2Ni2
Ho(SiNi)2,mp-2924,0.0,7.15430255,0.0,"{67: 1, 14: 2, 28: 2}","[14, 28, 67]",142282671,Ho1Si2Ni2
Er(SiNi)2,mp-4881,0.0,7.12359441,0.0,"{68: 1, 14: 2, 28: 2}","[14, 28, 68]",142282681,Er1Si2Ni2
Tm(SiNi)2,mp-4469,0.0,7.19164005,0.0,"{69: 1, 14: 2, 28: 2}","[14, 28, 69]",142282691,Tm1Si2Ni2
Lu(SiNi)2,mp-12100,0.0,7.20762563,0.0,"{71: 1, 14: 2, 28: 2}","[14, 28, 71]",142282711,Lu1Si2Ni2
Hf(SiNi)2,mp-571147,0.0,8.37711019,0.0,"{72: 1, 14: 2, 28: 2}","[14, 28, 72]",142282721,Hf1Si2Ni2
Th(SiNi)2,mp-5682,0.0,8.75975372,0.0,"{90: 1, 14: 2, 28: 2}","[14, 28, 90]",142282901,Th1Si2Ni2
U(SiNi)2,mp-20596,0.0,10.10344186,0.0,"{92: 1, 14: 2, 28: 2}","[14, 28, 92]",142282921,U1Si2Ni2
Np(SiNi)2,mp-571509,0.0,10.24218468,0.0193500371249975,"{93: 1, 14: 2, 28: 2}","[14, 28, 93]",142282931,Np1Si2Ni2
Pu(SiNi)2,mp-20171,0.0,9.97449135,0.0,"{94: 1, 14: 2, 28: 2}","[14, 28, 94]",142282941,Pu1Si2Ni2
Si2Ni3,mp-29667,0.0,9.86050604,0.003400225500001852,"{14: 2, 28: 3}","[14, 28]",142283,Si2Ni3
ZnSi2Ni3,mp-1215806,0.0,8.93996739,0.022972708333334424,"{30: 1, 14: 2, 28: 3}","[14, 28, 30]",142283301,Zn1Si2Ni3
Ga(SiNi3)2,mp-1225418,0.0,9.22578593,0.0,"{31: 1, 14: 2, 28: 6}","[14, 28, 31]",142286311,Ga1Si2Ni6
Y3(SiNi3)2,mp-1207795,0.0,6.66210945,0.0,"{39: 3, 14: 2, 28: 6}","[14, 28, 39]",142286393,Y3Si2Ni6
Ce3(SiNi3)2,mp-510324,0.0,9.02749293,0.0,"{58: 3, 14: 2, 28: 6}","[14, 28, 58]",142286583,Ce3Si2Ni6
Pr3(SiNi3)2,mp-1191765,0.0,6.75315516,0.008747834272728738,"{59: 3, 14: 2, 28: 6}","[14, 28, 59]",142286593,Pr3Si2Ni6
Nd3(SiNi3)2,mp-1190765,0.0,6.65586245,0.018475124421489575,"{60: 3, 14: 2, 28: 6}","[14, 28, 60]",142286603,Nd3Si2Ni6
Sm3(SiNi3)2,mp-1191578,0.0,6.46889523,0.8247066287662346,"{62: 3, 14: 2, 28: 6}","[14, 28, 62]",142286623,Sm3Si2Ni6
Eu3(SiNi3)2,mp-1191000,0.0,6.13740272,0.015896594545452558,"{63: 3, 14: 2, 28: 6}","[14, 28, 63]",142286633,Eu3Si2Ni6
Gd3(SiNi3)2,mp-1192140,0.0,5.97355428,0.0,"{64: 3, 14: 2, 28: 6}","[14, 28, 64]",142286643,Gd3Si2Ni6
Dy3(SiNi3)2,mp-1191905,0.0,6.67643307,0.0,"{66: 3, 14: 2, 28: 6}","[14, 28, 66]",142286663,Dy3Si2Ni6
Ho3(SiNi3)2,mp-1191275,0.0,6.63674969,0.0,"{67: 3, 14: 2, 28: 6}","[14, 28, 67]",142286673,Ho3Si2Ni6
Er3(SiNi3)2,mp-1192164,0.0,6.62736374,0.0,"{68: 3, 14: 2, 28: 6}","[14, 28, 68]",142286683,Er3Si2Ni6
Tm3(SiNi3)2,mp-1192110,0.0,6.63036071,0.0,"{69: 3, 14: 2, 28: 6}","[14, 28, 69]",142286693,Tm3Si2Ni6
Lu3(SiNi3)2,mp-1191707,0.0,6.75806658,0.0,"{71: 3, 14: 2, 28: 6}","[14, 28, 71]",142286713,Lu3Si2Ni6
UCu2(SiNi4)2,mp-1217249,0.0,8.9582816,0.07400711568047402,"{92: 1, 29: 2, 14: 2, 28: 8}","[14, 28, 29, 92]",142288292921,U1Cu2Si2Ni8
LaSi2Ni9,mp-1190732,0.0,8.84624554,0.0,"{57: 1, 14: 2, 28: 9}","[14, 28, 57]",142289571,La1Si2Ni9
CeSi2Ni9,mp-1191823,0.0,8.88708009,0.0,"{58: 1, 14: 2, 28: 9}","[14, 28, 58]",142289581,Ce1Si2Ni9
PrSi2Ni9,mp-1190679,0.0,7.8616039,0.0,"{59: 1, 14: 2, 28: 9}","[14, 28, 59]",142289591,Pr1Si2Ni9
NdSi2Ni9,mp-1190833,0.0,7.90986186,0.0,"{60: 1, 14: 2, 28: 9}","[14, 28, 60]",142289601,Nd1Si2Ni9
SmSi2Ni9,mp-1191393,0.0,7.80883372,0.4656144917916887,"{62: 1, 14: 2, 28: 9}","[14, 28, 62]",142289621,Sm1Si2Ni9
EuSi2Ni9,mp-1190872,0.0,7.62199853,0.0,"{63: 1, 14: 2, 28: 9}","[14, 28, 63]",142289631,Eu1Si2Ni9
Ti13Si31Ni40,mp-867049,0.05120000000000147,9.67288711,0.0,"{22: 13, 14: 31, 28: 40}","[14, 22, 28]",143122132840,Ti13Si31Ni40
Si3NiP4,mp-8311,0.3365,7.15695372,0.0,"{14: 3, 28: 1, 15: 4}","[14, 15, 28]",143154281,Si3Ni1P4
Ca2Si3Ni,mp-1227470,0.0,5.57958995,0.09447323916666939,"{20: 2, 14: 3, 28: 1}","[14, 20, 28]",143202281,Ca2Si3Ni1
ScSi3Ni,mp-3129,0.0,7.98434497,0.0,"{21: 1, 14: 3, 28: 1}","[14, 21, 28]",143211281,Sc1Si3Ni1
ScSi3Ni2,mp-15605,0.0,7.84943138,0.016717776666669515,"{21: 1, 14: 3, 28: 2}","[14, 21, 28]",143211282,Sc1Si3Ni2
Sc3Si3Ni,mp-8392,0.0,6.61326405,0.0,"{21: 3, 14: 3, 28: 1}","[14, 21, 28]",143213281,Sc3Si3Ni1
Sc3Si3Ni2,mp-11338,0.0,7.05347074,0.0,"{21: 3, 14: 3, 28: 2}","[14, 21, 28]",143213282,Sc3Si3Ni2
Mn4Si3Ni5,mp-1221824,0.0,8.01661618,0.07865077454657232,"{25: 4, 14: 3, 28: 5}","[14, 25, 28]",143254285,Mn4Si3Ni5
SrSi3Ni,mp-1069139,0.0,7.29186885,0.0,"{38: 1, 14: 3, 28: 1}","[14, 28, 38]",143281381,Sr1Si3Ni1
Sr2Si3Ni,mp-1218730,0.0,4.98364152,0.057745462916663826,"{38: 2, 14: 3, 28: 1}","[14, 28, 38]",143281382,Sr2Si3Ni1
YSi3Ni,mp-10284,0.0,7.44764005,0.024345344000001212,"{39: 1, 14: 3, 28: 1}","[14, 28, 39]",143281391,Y1Si3Ni1
Y3Si3Ni,mp-1216074,0.0,5.57389837,0.03596995035714112,"{39: 3, 14: 3, 28: 1}","[14, 28, 39]",143281393,Y3Si3Ni1
Si3NiMo12,mp-1219305,0.0,8.89564995,0.021662441145831934,"{14: 3, 28: 1, 42: 12}","[14, 28, 42]",1432814212,Si3Ni1Mo12
Ba2Si3Ni,mp-29819,0.0,4.85477585,0.0,"{56: 2, 14: 3, 28: 1}","[14, 28, 56]",143281562,Ba2Si3Ni1
La2Si3Ni,mp-1223258,0.0,8.48328246,0.08045746333333437,"{57: 2, 14: 3, 28: 1}","[14, 28, 57]",143281572,La2Si3Ni1
La3Si3Ni,mp-1223188,0.0,8.22310723,0.010697497857144356,"{57: 3, 14: 3, 28: 1}","[14, 28, 57]",143281573,La3Si3Ni1
Ce2Si3Ni,mp-1226898,0.0,8.27135819,0.03618886041666691,"{58: 2, 14: 3, 28: 1}","[14, 28, 58]",143281582,Ce2Si3Ni1
Pr2Si3Ni,mp-1219858,0.0,6.14967604,0.12188653041666431,"{59: 2, 14: 3, 28: 1}","[14, 28, 59]",143281592,Pr2Si3Ni1
Pr3Si3Ni,mp-1219833,0.0,5.44771235,0.015227209999999936,"{59: 3, 14: 3, 28: 1}","[14, 28, 59]",143281593,Pr3Si3Ni1
Nd2Si3Ni,mp-1220388,0.0,6.06155658,0.11629809166666938,"{60: 2, 14: 3, 28: 1}","[14, 28, 60]",143281602,Nd2Si3Ni1
Nd3Si3Ni,mp-1220236,0.0,5.24828314,0.02067424000000173,"{60: 3, 14: 3, 28: 1}","[14, 28, 60]",143281603,Nd3Si3Ni1
SmSi3Ni,mp-10283,0.0,7.07675793,0.003142532999994785,"{62: 1, 14: 3, 28: 1}","[14, 28, 62]",143281621,Sm1Si3Ni1
Sm2Si3Ni,mp-1219157,0.0,5.97080944,0.14734461434523993,"{62: 2, 14: 3, 28: 1}","[14, 28, 62]",143281622,Sm2Si3Ni1
Sm3Si3Ni,mp-1219191,0.0,5.16034241,0.18902094015306758,"{62: 3, 14: 3, 28: 1}","[14, 28, 62]",143281623,Sm3Si3Ni1
EuSi3Ni,mp-1225162,0.0,7.54450406,0.0,"{63: 1, 14: 3, 28: 1}","[14, 28, 63]",143281631,Eu1Si3Ni1
Eu2Si3Ni,mp-1225271,0.0,5.40806456,0.11474705750000158,"{63: 2, 14: 3, 28: 1}","[14, 28, 63]",143281632,Eu2Si3Ni1
Gd2Si3Ni,mp-1224775,0.0,5.99400348,0.10958954999999726,"{64: 2, 14: 3, 28: 1}","[14, 28, 64]",143281642,Gd2Si3Ni1
Tb3Si3Ni,mp-1217636,0.0,5.49123347,0.026779368214286947,"{65: 3, 14: 3, 28: 1}","[14, 28, 65]",143281653,Tb3Si3Ni1
Dy2Si3Ni,mp-1225306,0.0,6.32313991,0.1381788216666644,"{66: 2, 14: 3, 28: 1}","[14, 28, 66]",143281662,Dy2Si3Ni1
ErSi3Ni,mp-12386,0.0,7.43591347,0.020331149999997855,"{68: 1, 14: 3, 28: 1}","[14, 28, 68]",143281681,Er1Si3Ni1
Er2Si3Ni,mp-1225562,0.0,6.29012756,0.14033179916666771,"{68: 2, 14: 3, 28: 1}","[14, 28, 68]",143281682,Er2Si3Ni1
Er3Si3Ni,mp-569818,0.0,5.67902047,0.0,"{68: 3, 14: 3, 28: 1}","[14, 28, 68]",143281683,Er3Si3Ni1
Tm3Si3Ni,mp-1207982,0.0,5.67707576,0.0,"{69: 3, 14: 3, 28: 1}","[14, 28, 69]",143281693,Tm3Si3Ni1
Th2Si3Ni,mp-1217306,0.0,8.2598992,0.004923636666665843,"{90: 2, 14: 3, 28: 1}","[14, 28, 90]",143281902,Th2Si3Ni1
U2Si3Ni,mp-1216879,0.0,10.41146835,0.06965248854166628,"{92: 2, 14: 3, 28: 1}","[14, 28, 92]",143281922,U2Si3Ni1
La6Si3Ni2,mp-1223674,0.0,8.31680843,0.06584855819865254,"{57: 6, 14: 3, 28: 2}","[14, 28, 57]",143282576,La6Si3Ni2
Pr6Si3Ni2,mp-1220056,0.0,4.61592005,0.07520879211038878,"{59: 6, 14: 3, 28: 2}","[14, 28, 59]",143282596,Pr6Si3Ni2
Nd6Si3Ni2,mp-1220745,0.0,4.75926708,0.047920219667831,"{60: 6, 14: 3, 28: 2}","[14, 28, 60]",143282606,Nd6Si3Ni2
Sm6Si3Ni2,mp-1219424,0.0,4.66051055,0.3225440404545452,"{62: 6, 14: 3, 28: 2}","[14, 28, 62]",143282626,Sm6Si3Ni2
Hf3Si3Ni2,mp-9605,0.0,7.58474534,0.0,"{72: 3, 14: 3, 28: 2}","[14, 28, 72]",143282723,Hf3Si3Ni2
USi3Ni2,mp-1217005,0.0,10.09996487,0.02375120930555319,"{92: 1, 14: 3, 28: 2}","[14, 28, 92]",143282921,U1Si3Ni2
YSi3Ni5,mp-21661,0.0,8.1915154,0.0,"{39: 1, 14: 3, 28: 5}","[14, 28, 39]",143285391,Y1Si3Ni5
DySi3Ni5,mp-1213227,0.0,8.26248947,0.0,"{66: 1, 14: 3, 28: 5}","[14, 28, 66]",143285661,Dy1Si3Ni5
HoSi3Ni5,mp-1200132,0.0,8.1311186,0.0,"{67: 1, 14: 3, 28: 5}","[14, 28, 67]",143285671,Ho1Si3Ni5
ErSi3Ni5,mp-1204590,0.0,8.12407151,0.0,"{68: 1, 14: 3, 28: 5}","[14, 28, 68]",143285681,Er1Si3Ni5
TmSi3Ni5,mp-1207851,0.0,8.25103118,0.0,"{69: 1, 14: 3, 28: 5}","[14, 28, 69]",143285691,Tm1Si3Ni5
LuSi3Ni5,mp-1210991,0.0,8.29836132,0.0,"{71: 1, 14: 3, 28: 5}","[14, 28, 71]",143285711,Lu1Si3Ni5
Eu2Si3Ni8,mp-1202253,0.0,6.9005939,0.0,"{63: 2, 14: 3, 28: 8}","[14, 28, 63]",143288632,Eu2Si3Ni8
GdSi3Ni8,mp-1190689,0.0,8.2805655,0.0,"{64: 1, 14: 3, 28: 8}","[14, 28, 64]",143288641,Gd1Si3Ni8
TbSi3Ni8,mp-1190542,0.0,8.41283486,0.0104075620833326,"{65: 1, 14: 3, 28: 8}","[14, 28, 65]",143288651,Tb1Si3Ni8
Sc3Si4Ni11,mp-27918,0.0,7.96281088,0.0441253279220053,"{21: 3, 14: 4, 28: 11}","[14, 21, 28]",1442132811,Sc3Si4Ni11
Sc3(Si2Ni)2,mp-542486,0.0,7.31174765,0.0,"{21: 3, 14: 4, 28: 2}","[14, 21, 28]",144213282,Sc3Si4Ni2
Sc3(SiNi)4,mp-1103076,0.0,7.38336759,0.0,"{21: 3, 14: 4, 28: 4}","[14, 21, 28]",144213284,Sc3Si4Ni4
Ti4Si4Ni,mp-1199666,0.0,8.45859923,0.02524367736111266,"{22: 4, 14: 4, 28: 1}","[14, 22, 28]",144224281,Ti4Si4Ni1
CoSi4Ni,mp-1226006,0.0,9.84234981,0.0,"{27: 1, 14: 4, 28: 1}","[14, 27, 28]",144271281,Co1Si4Ni1
CoSi4Ni3,mp-1226011,0.0,9.57263807,0.006904919687501732,"{27: 1, 14: 4, 28: 3}","[14, 27, 28]",144271283,Co1Si4Ni3
U2Cu3Si4Ni,mp-1217046,0.0,9.82857319,0.0,"{92: 2, 29: 3, 14: 4, 28: 1}","[14, 28, 29, 92]",144281293922,U2Cu3Si4Ni1
Nd3Si4Ni29,mp-1199358,0.0,7.39963638,0.13197781597222047,"{60: 3, 14: 4, 28: 29}","[14, 28, 60]",1442829603,Nd3Si4Ni29
Zr2Si4Ni3,mp-1189144,0.0,8.73029138,0.0003125102777801203,"{40: 2, 14: 4, 28: 3}","[14, 28, 40]",144283402,Zr2Si4Ni3
Hf2Si4Ni3,mp-14589,0.0,9.00997155,0.0,"{72: 2, 14: 4, 28: 3}","[14, 28, 72]",144283722,Hf2Si4Ni3
La3(SiNi)4,mp-568370,0.0,8.43253349,0.008780289090908333,"{57: 3, 14: 4, 28: 4}","[14, 28, 57]",144284573,La3Si4Ni4
Ce3(SiNi)4,mp-1206722,0.0,8.25025637,0.0,"{58: 3, 14: 4, 28: 4}","[14, 28, 58]",144284583,Ce3Si4Ni4
U3(SiNi)4,mp-9903,0.0,10.05168928,0.038304036363635774,"{92: 3, 14: 4, 28: 4}","[14, 28, 92]",144284923,U3Si4Ni4
Pr6Si4Ni7,mp-650277,0.0,5.81781985,0.0,"{59: 6, 14: 4, 28: 7}","[14, 28, 59]",144287596,Pr6Si4Ni7
Nd6Si4Ni7,mp-1210820,0.0,5.5188037,0.0,"{60: 6, 14: 4, 28: 7}","[14, 28, 60]",144287606,Nd6Si4Ni7
LaSi4Ni9,mp-11726,0.0,9.38463167,0.0,"{57: 1, 14: 4, 28: 9}","[14, 28, 57]",144289571,La1Si4Ni9
CeSi4Ni9,mp-31051,0.0,9.14425517,0.004779764866069236,"{58: 1, 14: 4, 28: 9}","[14, 28, 58]",144289581,Ce1Si4Ni9
Ba8Si43Ni3,mp-1228480,0.028699999999999726,6.55186375,0.0,"{56: 8, 14: 43, 28: 3}","[14, 28, 56]",1443283568,Ba8Si43Ni3
NiH44C12(N5O8)2,mp-746662,3.146,-0.54695548,0.2925613157981948,"{28: 1, 1: 44, 6: 12, 7: 10, 8: 16}","[1, 6, 7, 8, 28]",144612710816281,Ni1H44C12N10O16
NiH44C12N8(ClO5)2,mp-746343,0.0,-0.16502257,0.19212590625000203,"{28: 1, 1: 44, 6: 12, 7: 8, 17: 2, 8: 10}","[1, 6, 7, 8, 17, 28]",14461278810172281,Ni1H44C12N8Cl2O10
Ce10Si5Ni,mp-1227652,0.0,8.33802287,0.0031692654166670664,"{58: 10, 14: 5, 28: 1}","[14, 28, 58]",1452815810,Ce10Si5Ni1
Ce2Si5Ni17,mp-1227485,0.0,8.97409761,0.048439488541667686,"{58: 2, 14: 5, 28: 17}","[14, 28, 58]",1452817582,Ce2Si5Ni17
Pr7Si5Ni2,mp-1199517,0.0,4.86670979,0.0,"{59: 7, 14: 5, 28: 2}","[14, 28, 59]",145282597,Pr7Si5Ni2
Y2Si5Ni3,mp-16914,0.0,8.11832707,0.009789674000002968,"{39: 2, 14: 5, 28: 3}","[14, 28, 39]",145283392,Y2Si5Ni3
Ce2Si5Ni3,mp-1183797,0.0,9.58394798,0.0,"{58: 2, 14: 5, 28: 3}","[14, 28, 58]",145283582,Ce2Si5Ni3
Nd2Si5Ni3,mp-1209921,0.0,7.69020997,0.017899590249998987,"{60: 2, 14: 5, 28: 3}","[14, 28, 60]",145283602,Nd2Si5Ni3
Sm2Si5Ni3,mp-1189327,0.0,7.78108712,0.1093961754285715,"{62: 2, 14: 5, 28: 3}","[14, 28, 62]",145283622,Sm2Si5Ni3