formula,material_id,band_gap,efermi,energy_above_hull,comp_atoms,sorted_keys_comp_atoms,comp_number,new_formula
NaLaCeNiO6,mp-1523368,1.4265999999999996,4.70515862,0.20497064658333386,"{11: 1, 57: 1, 58: 1, 28: 1, 8: 6}","[8, 11, 28, 57, 58]",86111281571581,Na1La1Ce1Ni1O6
NaLaNiWO6,mp-1173651,3.3392,7.25962451,0.013306377500000188,"{11: 1, 57: 1, 28: 1, 74: 1, 8: 6}","[8, 11, 28, 57, 74]",86111281571741,Na1La1Ni1W1O6
NaPrEuNiO6,mp-1522238,0.0,4.99618381,0.38096050189582975,"{11: 1, 59: 1, 63: 1, 28: 1, 8: 6}","[8, 11, 28, 59, 63]",86111281591631,Na1Pr1Eu1Ni1O6
NaNi2BiO6,mp-1120818,0.0,4.3136954,0.1662097780833358,"{11: 1, 28: 2, 83: 1, 8: 6}","[8, 11, 28, 83]",86111282831,Na1Ni2Bi1O6
Ba2Na(NiO2)3,mp-19397,0.3005,2.88511561,0.0983983343750019,"{56: 2, 11: 1, 28: 3, 8: 6}","[8, 11, 28, 56]",86111283562,Ba2Na1Ni3O6
NaNi5O6,mp-753049,0.0,4.93196932,0.0325383027083328,"{11: 1, 28: 5, 8: 6}","[8, 11, 28]",86111285,Na1Ni5O6
Na2MnCoNiO6,mp-1221339,0.0,2.4285541,0.06098088982953964,"{11: 2, 25: 1, 27: 1, 28: 1, 8: 6}","[8, 11, 25, 27, 28]",86112251271281,Na2Mn1Co1Ni1O6
Na3MgNi2SbO6,mp-2227506,2.4567,3.16726512,0.3486719901923099,"{11: 3, 12: 1, 28: 2, 51: 1, 8: 6}","[8, 11, 12, 28, 51]",86113121282511,Na3Mg1Ni2Sb1O6
Na3MnCoNiO6,mp-1221227,0.20299999999999985,3.23574471,0.043011180416666406,"{11: 3, 25: 1, 27: 1, 28: 1, 8: 6}","[8, 11, 25, 27, 28]",86113251271281,Na3Mn1Co1Ni1O6
Na3Ni2SbO6,mp-971678,1.8083,3.92056119,0.0,"{11: 3, 28: 2, 51: 1, 8: 6}","[8, 11, 28, 51]",86113282511,Na3Ni2Sb1O6
Na4Mg(NiO3)2,mp-2224805,0.3955000000000002,2.31846352,0.16744140850961475,"{11: 4, 12: 1, 28: 2, 8: 6}","[8, 11, 12, 28]",86114121282,Na4Mg1Ni2O6
Na6Mg(NiO3)2,mp-2225014,1.3760999999999999,1.98366288,0.11772922833333155,"{11: 6, 12: 1, 28: 2, 8: 6}","[8, 11, 12, 28]",86116121282,Na6Mg1Ni2O6
Na8NiO6,mp-849670,0.0,0.44382867,0.03184654047222235,"{11: 8, 28: 1, 8: 6}","[8, 11, 28]",86118281,Na8Ni1O6
MgSi2NiO6,mp-1041887,3.7430000000000003,3.23679861,0.015691301291662185,"{12: 1, 14: 2, 28: 1, 8: 6}","[8, 12, 14, 28]",86121142281,Mg1Si2Ni1O6
Sr4MgNi2(ClO3)2,mp-2232172,0.0,3.36156744,0.32252980588888835,"{38: 4, 12: 1, 28: 2, 17: 2, 8: 6}","[8, 12, 17, 28, 38]",86121172282384,Sr4Mg1Ni2Cl2O6
KMgNiIO6,mp-2222843,2.3441,1.35997538,0.0,"{19: 1, 12: 1, 28: 1, 53: 1, 8: 6}","[8, 12, 19, 28, 53]",86121191281531,K1Mg1Ni1I1O6
MgScNi2SbO6,mp-2234085,1.9499999999999993,5.17202502,0.2317282342897693,"{12: 1, 21: 1, 28: 2, 51: 1, 8: 6}","[8, 12, 21, 28, 51]",86121211282511,Mg1Sc1Ni2Sb1O6
La2MgTiNiO6,mp-2223109,0.006700000000000372,7.98872079,0.6901242734090998,"{57: 2, 12: 1, 22: 1, 28: 1, 8: 6}","[8, 12, 22, 28, 57]",86121221281572,La2Mg1Ti1Ni1O6
MgTi2NiO6,mp-1221952,0.0,4.83365183,0.0,"{12: 1, 22: 2, 28: 1, 8: 6}","[8, 12, 22, 28]",86121222281,Mg1Ti2Ni1O6
MgTi2(NiO3)2,mp-2217827,0.30489999999999995,6.46377272,0.33559557295453857,"{12: 1, 22: 2, 28: 2, 8: 6}","[8, 12, 22, 28]",86121222282,Mg1Ti2Ni2O6
MgV2NiO6,mp-2217145,0.0,4.99274767,0.09139676150000131,"{12: 1, 23: 2, 28: 1, 8: 6}","[8, 12, 23, 28]",86121232281,Mg1V2Ni1O6
LaMgCrNiO6,mp-1048931,0.0,5.24095753,0.14765700349998934,"{57: 1, 12: 1, 24: 1, 28: 1, 8: 6}","[8, 12, 24, 28, 57]",86121241281571,La1Mg1Cr1Ni1O6
MgMn2(NiO3)2,mp-2217993,0.0,4.39994372,0.211293507272722,"{12: 1, 25: 2, 28: 2, 8: 6}","[8, 12, 25, 28]",86121252282,Mg1Mn2Ni2O6
LaMgFeNiO6,mp-1043870,0.0,4.98546924,0.09028853172222373,"{57: 1, 12: 1, 26: 1, 28: 1, 8: 6}","[8, 12, 26, 28, 57]",86121261281571,La1Mg1Fe1Ni1O6
MgFe2(NiO3)2,mp-2223661,2.6607000000000003,3.76086567,0.18682600090909318,"{12: 1, 26: 2, 28: 2, 8: 6}","[8, 12, 26, 28]",86121262282,Mg1Fe2Ni2O6
MgCo2NiO6,mp-2217107,0.7882000000000002,2.50959016,0.08504511866666764,"{12: 1, 27: 2, 28: 1, 8: 6}","[8, 12, 27, 28]",86121272281,Mg1Co2Ni1O6
La2MgZnNiO6,mp-2241389,3.0029999999999992,5.27744479,0.18801190295455683,"{57: 2, 12: 1, 30: 1, 28: 1, 8: 6}","[8, 12, 28, 30, 57]",86121281301572,La2Mg1Zn1Ni1O6
MgNi(GeO3)2,mp-1043162,2.0863,2.63920908,0.018148755750002188,"{12: 1, 28: 1, 32: 2, 8: 6}","[8, 12, 28, 32]",86121281322,Mg1Ni1Ge2O6
Sr2MgNiRuO6,mp-2223673,0.0,4.30147274,0.3071858272727299,"{38: 2, 12: 1, 28: 1, 44: 1, 8: 6}","[8, 12, 28, 38, 44]",86121281382441,Sr2Mg1Ni1Ru1O6
Sr2MgNiIrO6,mp-2240423,0.0,4.20954965,0.21130439563636472,"{38: 2, 12: 1, 28: 1, 77: 1, 8: 6}","[8, 12, 28, 38, 77]",86121281382771,Sr2Mg1Ni1Ir1O6
Ba2MgNiMoO6,mp-2218092,1.2401,3.91406903,0.36763911272727423,"{56: 2, 12: 1, 28: 1, 42: 1, 8: 6}","[8, 12, 28, 42, 56]",86121281421562,Ba2Mg1Ni1Mo1O6
BaLaMgNiRuO6,mp-2217872,0.00990000000000002,5.43784686,0.3376281763635971,"{56: 1, 57: 1, 12: 1, 28: 1, 44: 1, 8: 6}","[8, 12, 28, 44, 56, 57]",86121281441561571,Ba1La1Mg1Ni1Ru1O6
Ba2MgNiWO6,mp-2222926,1.3667000000000007,4.23689056,0.4686761281818228,"{56: 2, 12: 1, 28: 1, 74: 1, 8: 6}","[8, 12, 28, 56, 74]",86121281562741,Ba2Mg1Ni1W1O6
La2MgNiO6,mp-1391671,1.3640999999999996,7.79694159,0.0,"{57: 2, 12: 1, 28: 1, 8: 6}","[8, 12, 28, 57]",86121281572,La2Mg1Ni1O6
MgInNi2SbO6,mp-2222766,1.8513000000000002,5.83158758,0.2236233240151435,"{12: 1, 49: 1, 28: 2, 51: 1, 8: 6}","[8, 12, 28, 49, 51]",86121282491511,Mg1In1Ni2Sb1O6
Ba2Mg(NiO3)2,mp-2215935,0.6219999999999999,2.74377615,0.1705049863636372,"{56: 2, 12: 1, 28: 2, 8: 6}","[8, 12, 28, 56]",86121282562,Ba2Mg1Ni2O6
La2Mg(NiO3)2,mp-2217604,2.3189,5.63761259,0.26941476250000296,"{57: 2, 12: 1, 28: 2, 8: 6}","[8, 12, 28, 57]",86121282572,La2Mg1Ni2O6
PrMg(NiO3)2,mp-1044749,0.0,3.75566664,0.10646328372222147,"{59: 1, 12: 1, 28: 2, 8: 6}","[8, 12, 28, 59]",86121282591,Pr1Mg1Ni2O6
Pr2Mg(NiO3)2,mp-2218047,2.3921,3.44295771,0.2794428657954562,"{59: 2, 12: 1, 28: 2, 8: 6}","[8, 12, 28, 59]",86121282592,Pr2Mg1Ni2O6
Tb2Mg(NiO3)2,mp-2217728,2.8739000000000003,3.6725559,0.22532504852272783,"{65: 2, 12: 1, 28: 2, 8: 6}","[8, 12, 28, 65]",86121282652,Tb2Mg1Ni2O6
HoMg(NiO3)2,mp-1041116,0.0,3.65261424,0.08155960802777962,"{67: 1, 12: 1, 28: 2, 8: 6}","[8, 12, 28, 67]",86121282671,Ho1Mg1Ni2O6
MgNi2(BiO3)2,mp-2217787,1.7572,4.47953754,0.1837602713636377,"{12: 1, 28: 2, 83: 2, 8: 6}","[8, 12, 28, 83]",86121282832,Mg1Ni2Bi2O6
Mg(Ni2O3)2,mp-1043361,0.0,4.67751739,0.05114352909091302,"{12: 1, 28: 4, 8: 6}","[8, 12, 28]",86121284,Mg1Ni4O6
Mg2NiSbO6,mp-1374281,0.4833999999999996,5.6479379,0.10486478104167052,"{12: 2, 28: 1, 51: 1, 8: 6}","[8, 12, 28, 51]",86122281511,Mg2Ni1Sb1O6
Mg2TaNiO6,mp-1376265,0.0,3.61623508,0.12436873254167047,"{12: 2, 73: 1, 28: 1, 8: 6}","[8, 12, 28, 73]",86122281731,Mg2Ta1Ni1O6
Mg2NiWO6,mp-1372490,2.5452000000000004,3.53385884,0.08496803399999919,"{12: 2, 28: 1, 74: 1, 8: 6}","[8, 12, 28, 74]",86122281741,Mg2Ni1W1O6
Mg2NiIrO6,mp-1345538,0.0,4.64406416,0.0,"{12: 2, 28: 1, 77: 1, 8: 6}","[8, 12, 28, 77]",86122281771,Mg2Ni1Ir1O6
Al(NiO2)3,mp-1045119,0.0,3.85736046,0.07827378679545482,"{13: 1, 28: 3, 8: 6}","[8, 13, 28]",86131283,Al1Ni3O6
CaSi2NiO6,mp-19220,4.2294,3.33099215,0.005918372000003558,"{20: 1, 14: 2, 28: 1, 8: 6}","[8, 14, 20, 28]",86142201281,Ca1Si2Ni1O6
Si2NiO6,mp-1264292,0.0,2.09729283,0.2277236219444454,"{14: 2, 28: 1, 8: 6}","[8, 14, 28]",86142281,Si2Ni1O6
ZnSi2NiO6,mp-1258028,3.9418,2.5008389,0.029907164416669296,"{30: 1, 14: 2, 28: 1, 8: 6}","[8, 14, 28, 30]",86142281301,Zn1Si2Ni1O6
Ni(PO3)2,mp-19135,1.4862999999999995,2.93079906,0.0,"{28: 1, 15: 2, 8: 6}","[8, 15, 28]",86152281,Ni1P2O6
La3NiW(SO2)3,mp-1193278,0.0,6.47290365,0.16287465327380612,"{57: 3, 28: 1, 74: 1, 16: 3, 8: 6}","[8, 16, 28, 57, 74]",86163281573741,La3Ni1W1S3O6
Ni(ClO3)2,mp-1084850,0.0,0.94731105,0.7100246152083329,"{28: 1, 17: 2, 8: 6}","[8, 17, 28]",86172281,Ni1Cl2O6
Sr2NiSe2(ClO3)2,mp-553947,3.3870000000000005,1.75663179,0.0,"{38: 2, 28: 1, 34: 2, 17: 2, 8: 6}","[8, 17, 28, 34, 38]",86172281342382,Sr2Ni1Se2Cl2O6
NiSn(ClO)6,mp-1180055,1.526,0.48156609,0.4375061776339306,"{28: 1, 50: 1, 17: 6, 8: 6}","[8, 17, 28, 50]",86176281501,Ni1Sn1Cl6O6
NiSn3(ClO)6,mp-1211345,0.0230999999999999,1.56038521,0.5322544691015603,"{28: 1, 50: 3, 17: 6, 8: 6}","[8, 17, 28, 50]",86176281503,Ni1Sn3Cl6O6
KNi(BrO2)3,mp-1212294,0.17300000000000004,0.73890164,0.23636398017045757,"{19: 1, 28: 1, 35: 3, 8: 6}","[8, 19, 28, 35]",86191281353,K1Ni1Br3O6
KLaNbNiO6,mp-1520198,0.0,3.90832833,0.14553773618749677,"{19: 1, 57: 1, 41: 1, 28: 1, 8: 6}","[8, 19, 28, 41, 57]",86191281411571,K1La1Nb1Ni1O6
KLaNiSbO6,mp-1517441,0.0,4.71432272,0.17032762033333437,"{19: 1, 57: 1, 28: 1, 51: 1, 8: 6}","[8, 19, 28, 51, 57]",86191281511571,K1La1Ni1Sb1O6
KNiTeO6,mp-1147706,0.0,0.37578932,0.10661933347221719,"{19: 1, 28: 1, 52: 1, 8: 6}","[8, 19, 28, 52]",86191281521,K1Ni1Te1O6
KNiIO6,mp-550959,1.7517999999999998,0.57750359,0.0,"{19: 1, 28: 1, 53: 1, 8: 6}","[8, 19, 28, 53]",86191281531,K1Ni1I1O6
KLaCeNiO6,mp-1517811,1.3357,4.59920792,0.18264729550000158,"{19: 1, 57: 1, 58: 1, 28: 1, 8: 6}","[8, 19, 28, 57, 58]",86191281571581,K1La1Ce1Ni1O6
KLaTbNiO6,mp-1522770,0.0,3.44881134,0.21112791018750166,"{19: 1, 57: 1, 65: 1, 28: 1, 8: 6}","[8, 19, 28, 57, 65]",86191281571651,K1La1Tb1Ni1O6
KLaNiWO6,mp-1517874,2.8449,4.2009502,0.11072208699999564,"{19: 1, 57: 1, 28: 1, 74: 1, 8: 6}","[8, 19, 28, 57, 74]",86191281571741,K1La1Ni1W1O6
KPrNiWO6,mp-1519999,3.1020999999999996,2.98614926,0.11534504849999827,"{19: 1, 59: 1, 28: 1, 74: 1, 8: 6}","[8, 19, 28, 59, 74]",86191281591741,K1Pr1Ni1W1O6
KNiBiWO6,mp-1519358,1.3429000000000002,3.57806872,0.18348302049999887,"{19: 1, 28: 1, 83: 1, 74: 1, 8: 6}","[8, 19, 28, 74, 83]",86191281741831,K1Ni1Bi1W1O6
K4(NiO2)3,mp-1104174,0.6912999999999999,0.98700688,0.019108794230769277,"{19: 4, 28: 3, 8: 6}","[8, 19, 28]",86194283,K4Ni3O6
CaLaCrNiO6,mp-1048901,0.6463000000000001,4.95118733,0.07056459133333437,"{20: 1, 57: 1, 24: 1, 28: 1, 8: 6}","[8, 20, 24, 28, 57]",86201241281571,Ca1La1Cr1Ni1O6
CaLaFeNiO6,mp-1043874,0.0,4.88639084,0.0,"{20: 1, 57: 1, 26: 1, 28: 1, 8: 6}","[8, 20, 26, 28, 57]",86201261281571,Ca1La1Fe1Ni1O6
CaNi(GeO3)2,mp-1043165,2.8164000000000002,2.16693708,0.004226829166664281,"{20: 1, 28: 1, 32: 2, 8: 6}","[8, 20, 28, 32]",86201281322,Ca1Ni1Ge2O6
SrCaCeNiO6,mp-1517796,1.3610000000000002,3.61596733,0.14558381250000085,"{38: 1, 20: 1, 58: 1, 28: 1, 8: 6}","[8, 20, 28, 38, 58]",86201281381581,Sr1Ca1Ce1Ni1O6
SrCaTbNiO6,mp-1518602,0.0,2.44498909,0.16877216399999906,"{38: 1, 20: 1, 65: 1, 28: 1, 8: 6}","[8, 20, 28, 38, 65]",86201281381651,Sr1Ca1Tb1Ni1O6
SrCaNiWO6,mp-1218491,2.9899,2.94743891,0.011888360000002152,"{38: 1, 20: 1, 28: 1, 74: 1, 8: 6}","[8, 20, 28, 38, 74]",86201281381741,Sr1Ca1Ni1W1O6
SrCaNiBiO6,mp-1518274,0.0,3.41439823,0.1528490327749985,"{38: 1, 20: 1, 28: 1, 83: 1, 8: 6}","[8, 20, 28, 38, 83]",86201281381831,Sr1Ca1Ni1Bi1O6
BaCaCeNiO6,mp-1518826,1.2559999999999998,3.59454724,0.1678088139999998,"{56: 1, 20: 1, 58: 1, 28: 1, 8: 6}","[8, 20, 28, 56, 58]",86201281561581,Ba1Ca1Ce1Ni1O6
BaCaNiBiO6,mp-1517136,0.0,3.15078732,0.16578412138888865,"{56: 1, 20: 1, 28: 1, 83: 1, 8: 6}","[8, 20, 28, 56, 83]",86201281561831,Ba1Ca1Ni1Bi1O6
CaEuDyNiO6,mp-1519833,0.0,2.87525174,0.28139779162499856,"{20: 1, 63: 1, 66: 1, 28: 1, 8: 6}","[8, 20, 28, 63, 66]",86201281631661,Ca1Eu1Dy1Ni1O6
CaEuNiBiO6,mp-1521776,0.0,3.7266091,0.2786022832916659,"{20: 1, 63: 1, 28: 1, 83: 1, 8: 6}","[8, 20, 28, 63, 83]",86201281631831,Ca1Eu1Ni1Bi1O6
CaNiWO6,mp-1345055,0.0,2.1668247,0.23254577796296516,"{20: 1, 28: 1, 74: 1, 8: 6}","[8, 20, 28, 74]",86201281741,Ca1Ni1W1O6
CaPr(NiO3)2,mp-1044733,0.0,3.46167411,0.01923847212499119,"{20: 1, 59: 1, 28: 2, 8: 6}","[8, 20, 28, 59]",86201282591,Ca1Pr1Ni2O6
CaHo(NiO3)2,mp-1041234,0.0,3.29425783,0.09917582781250012,"{20: 1, 67: 1, 28: 2, 8: 6}","[8, 20, 28, 67]",86201282671,Ca1Ho1Ni2O6
Ca(Ni2O3)2,mp-1043722,0.0,4.3502183,0.033673340681817265,"{20: 1, 28: 4, 8: 6}","[8, 20, 28]",86201284,Ca1Ni4O6
Ca2MnNiO6,mp-1326305,0.0,1.60000403,0.18865362816666398,"{20: 2, 25: 1, 28: 1, 8: 6}","[8, 20, 25, 28]",86202251281,Ca2Mn1Ni1O6
Ca2NiSbO6,mp-1373974,0.0,4.04060229,0.08189144949999871,"{20: 2, 28: 1, 51: 1, 8: 6}","[8, 20, 28, 51]",86202281511,Ca2Ni1Sb1O6
Ca2CeNiO6,mp-1520291,1.4500000000000002,3.74640807,0.1982714386250013,"{20: 2, 58: 1, 28: 1, 8: 6}","[8, 20, 28, 58]",86202281581,Ca2Ce1Ni1O6
Ca2TbNiO6,mp-1520076,0.0,2.54843081,0.2125715339999994,"{20: 2, 65: 1, 28: 1, 8: 6}","[8, 20, 28, 65]",86202281651,Ca2Tb1Ni1O6
Ca2TaNiO6,mp-1367927,0.42569999999999997,3.64030858,0.0864187807916661,"{20: 2, 73: 1, 28: 1, 8: 6}","[8, 20, 28, 73]",86202281731,Ca2Ta1Ni1O6
Ca2NiWO6,mp-19114,2.9330000000000003,3.2293884,0.0,"{20: 2, 28: 1, 74: 1, 8: 6}","[8, 20, 28, 74]",86202281741,Ca2Ni1W1O6
Ca2NiOsO6,mp-22020,0.0,4.53673563,0.0,"{20: 2, 28: 1, 76: 1, 8: 6}","[8, 20, 28, 76]",86202281761,Ca2Ni1Os1O6
Ca2NiIrO6,mp-1047142,0.0,3.96764736,0.0,"{20: 2, 28: 1, 77: 1, 8: 6}","[8, 20, 28, 77]",86202281771,Ca2Ni1Ir1O6
Ca2NiBiO6,mp-1516857,0.0,3.68139568,0.1925703948749975,"{20: 2, 28: 1, 83: 1, 8: 6}","[8, 20, 28, 83]",86202281831,Ca2Ni1Bi1O6
Ca3TiNiO6,mp-997184,3.1552,2.98650287,0.05822204931818131,"{20: 3, 22: 1, 28: 1, 8: 6}","[8, 20, 22, 28]",86203221281,Ca3Ti1Ni1O6
Ca3MnNiO6,mp-22533,0.0,4.0922037,0.0009029778787903453,"{20: 3, 25: 1, 28: 1, 8: 6}","[8, 20, 25, 28]",86203251281,Ca3Mn1Ni1O6
Sr3ScNiO6,mp-17557,0.0,2.96666605,0.0,"{38: 3, 21: 1, 28: 1, 8: 6}","[8, 21, 28, 38]",86211281383,Sr3Sc1Ni1O6
ScNi2SbO6,mp-1078244,0.0,6.10113052,0.0,"{21: 1, 28: 2, 51: 1, 8: 6}","[8, 21, 28, 51]",86211282511,Sc1Ni2Sb1O6
Sc2MnNiO6,mp-1105225,1.8180999999999998,3.96321319,0.03463379937500122,"{21: 2, 25: 1, 28: 1, 8: 6}","[8, 21, 25, 28]",86212251281,Sc2Mn1Ni1O6
TiNiO6,mp-33738,0.0,-0.53589049,0.5807630133124988,"{22: 1, 28: 1, 8: 6}","[8, 22, 28]",86221281,Ti1Ni1O6
La2TiNiO6,mp-1211325,2.8034,6.2123886,0.011032406249999127,"{57: 2, 22: 1, 28: 1, 8: 6}","[8, 22, 28, 57]",86221281572,La2Ti1Ni1O6
Ti2MnNiO6,mp-1217119,2.2676,3.86932134,0.004209087500013808,"{22: 2, 25: 1, 28: 1, 8: 6}","[8, 22, 25, 28]",86222251281,Ti2Mn1Ni1O6
V2NiO6,mp-28162,1.5548000000000002,3.70875496,0.0,"{23: 2, 28: 1, 8: 6}","[8, 23, 28]",86232281,V2Ni1O6
V2Cu3NiO6,mp-1275560,0.5053999999999998,4.18986164,0.004153573333342209,"{23: 2, 29: 3, 28: 1, 8: 6}","[8, 23, 28, 29]",86232281293,V2Cu3Ni1O6
V3NiO6,mp-1216522,0.0,4.52637934,0.056507048000018045,"{23: 3, 28: 1, 8: 6}","[8, 23, 28]",86233281,V3Ni1O6
LaCrNiO6,mp-1881105,0.0,3.76327671,0.2546230406481502,"{57: 1, 24: 1, 28: 1, 8: 6}","[8, 24, 28, 57]",86241281571,La1Cr1Ni1O6
Y2MnNiO6,mp-19192,0.0,4.2312691,0.0,"{39: 2, 25: 1, 28: 1, 8: 6}","[8, 25, 28, 39]",86251281392,Y2Mn1Ni1O6
MnIn2NiO6,mp-1188474,0.0,6.13868261,0.05312556650000033,"{25: 1, 49: 2, 28: 1, 8: 6}","[8, 25, 28, 49]",86251281492,Mn1In2Ni1O6
La2MnNiO6,mp-1188812,0.0,7.20461011,0.04253266981665149,"{57: 2, 25: 1, 28: 1, 8: 6}","[8, 25, 28, 57]",86251281572,La2Mn1Ni1O6
Pr2MnNiO6,mp-1209751,1.6564,5.28102547,0.0,"{59: 2, 25: 1, 28: 1, 8: 6}","[8, 25, 28, 59]",86251281592,Pr2Mn1Ni1O6
Nd2MnNiO6,mp-18899,1.2030000000000003,3.53485257,0.0,"{60: 2, 25: 1, 28: 1, 8: 6}","[8, 25, 28, 60]",86251281602,Nd2Mn1Ni1O6
Sm2MnNiO6,mp-555010,0.0,4.17060971,0.0,"{62: 2, 25: 1, 28: 1, 8: 6}","[8, 25, 28, 62]",86251281622,Sm2Mn1Ni1O6
Gd2MnNiO6,mp-1212655,0.0,4.93384981,0.0,"{64: 2, 25: 1, 28: 1, 8: 6}","[8, 25, 28, 64]",86251281642,Gd2Mn1Ni1O6
Tb2MnNiO6,mp-573037,1.1852999999999998,3.45469143,0.0,"{65: 2, 25: 1, 28: 1, 8: 6}","[8, 25, 28, 65]",86251281652,Tb2Mn1Ni1O6
Dy2MnNiO6,mp-1104659,0.5364999999999998,3.77989048,0.0,"{66: 2, 25: 1, 28: 1, 8: 6}","[8, 25, 28, 66]",86251281662,Dy2Mn1Ni1O6
Ho2MnNiO6,mp-1212340,1.8696000000000002,4.98780077,0.0,"{67: 2, 25: 1, 28: 1, 8: 6}","[8, 25, 28, 67]",86251281672,Ho2Mn1Ni1O6
MnNi(BiO3)2,mp-555839,0.0,5.75078466,0.015241049916658866,"{25: 1, 28: 1, 83: 2, 8: 6}","[8, 25, 28, 83]",86251281832,Mn1Ni1Bi2O6
Mn2NiO6,mp-25285,0.6342000000000001,0.62183583,0.09717553796296574,"{25: 2, 28: 1, 8: 6}","[8, 25, 28]",86252281,Mn2Ni1O6
LaZnFeNiO6,mp-1044026,0.0,4.56157674,0.12508852375000323,"{57: 1, 30: 1, 26: 1, 28: 1, 8: 6}","[8, 26, 28, 30, 57]",86261281301571,La1Zn1Fe1Ni1O6
La2FeNiO6,mp-1223335,0.0,6.57575061,0.0,"{57: 2, 26: 1, 28: 1, 8: 6}","[8, 26, 28, 57]",86261281572,La2Fe1Ni1O6
Nd2FeNiO6,mp-1220540,0.0,4.03291586,0.0,"{60: 2, 26: 1, 28: 1, 8: 6}","[8, 26, 28, 60]",86261281602,Nd2Fe1Ni1O6
La2CoNiO6,mp-1223259,0.9971999999999994,6.5738835,0.0,"{57: 2, 27: 1, 28: 1, 8: 6}","[8, 27, 28, 57]",86271281572,La2Co1Ni1O6
Nd2CoNiO6,mp-1220568,0.6075999999999997,4.14316396,0.0,"{60: 2, 27: 1, 28: 1, 8: 6}","[8, 27, 28, 60]",86271281602,Nd2Co1Ni1O6
Sm2CoNiO6,mp-1219319,0.512,3.87058385,0.0,"{62: 2, 27: 1, 28: 1, 8: 6}","[8, 27, 28, 62]",86271281622,Sm2Co1Ni1O6
Co2NiO6,mp-752759,0.0,1.10936946,0.05093895083333422,"{27: 2, 28: 1, 8: 6}","[8, 27, 28]",86272281,Co2Ni1O6
Cu2NiTeO6,mp-1225905,0.2721,4.97806032,0.03804160874999596,"{29: 2, 28: 1, 52: 1, 8: 6}","[8, 28, 29, 52]",86281292521,Cu2Ni1Te1O6
Cu6NiO6,mp-1147668,0.0,5.35198806,0.20226902038461425,"{29: 6, 28: 1, 8: 6}","[8, 28, 29]",86281296,Cu6Ni1O6
ZnNi(GeO3)2,mp-1043166,2.2656,1.74317678,0.04364508250000121,"{30: 1, 28: 1, 32: 2, 8: 6}","[8, 28, 30, 32]",86281301322,Zn1Ni1Ge2O6
La2ZnNiO6,mp-1385224,1.0987999999999998,6.21029626,0.02477869825000134,"{57: 2, 30: 1, 28: 1, 8: 6}","[8, 28, 30, 57]",86281301572,La2Zn1Ni1O6
Zn2NiSbO6,mp-1339909,0.22269999999999968,4.36211739,0.13279399587500063,"{30: 2, 28: 1, 51: 1, 8: 6}","[8, 28, 30, 51]",86281302511,Zn2Ni1Sb1O6
TaZn2NiO6,mp-1372315,0.0,2.65753519,0.14105142706249385,"{73: 1, 30: 2, 28: 1, 8: 6}","[8, 28, 30, 73]",86281302731,Ta1Zn2Ni1O6
Zn2NiWO6,mp-1275491,0.00010000000000065512,5.57142142,0.08430955900000203,"{30: 2, 28: 1, 74: 1, 8: 6}","[8, 28, 30, 74]",86281302741,Zn2Ni1W1O6
Zn2NiIrO6,mp-1047130,0.0,3.61158859,0.01688606549999605,"{30: 2, 28: 1, 77: 1, 8: 6}","[8, 28, 30, 77]",86281302771,Zn2Ni1Ir1O6
La2GaNiO6,mp-1272284,0.6707999999999998,6.1909071,0.04367646040000217,"{57: 2, 31: 1, 28: 1, 8: 6}","[8, 28, 31, 57]",86281311572,La2Ga1Ni1O6
Ni(GeO3)2,mp-1043444,0.0,0.07160026,0.2723953463888922,"{28: 1, 32: 2, 8: 6}","[8, 28, 32]",86281322,Ni1Ge2O6
Ni(AsO3)2,mp-19384,0.0,5.11287047,0.0,"{28: 1, 33: 2, 8: 6}","[8, 28, 33]",86281332,Ni1As2O6
SrLaNiRuO6,mp-694873,0.2865000000000002,5.21687452,0.0,"{38: 1, 57: 1, 28: 1, 44: 1, 8: 6}","[8, 28, 38, 44, 57]",86281381441571,Sr1La1Ni1Ru1O6
SrPrNiRuO6,mp-1218113,0.0030000000000001137,4.45138993,0.0,"{38: 1, 59: 1, 28: 1, 44: 1, 8: 6}","[8, 28, 38, 44, 59]",86281381441591,Sr1Pr1Ni1Ru1O6
SrNdNiRuO6,mp-1218114,0.044299999999999784,4.41185468,0.0,"{38: 1, 60: 1, 28: 1, 44: 1, 8: 6}","[8, 28, 38, 44, 60]",86281381441601,Sr1Nd1Ni1Ru1O6
SrNdNiSbO6,mp-1518545,2.7200999999999995,4.60327719,0.1285306094374965,"{38: 1, 60: 1, 28: 1, 51: 1, 8: 6}","[8, 28, 38, 51, 60]",86281381511601,Sr1Nd1Ni1Sb1O6
BaSrCeNiO6,mp-1518458,1.1907999999999999,3.48711453,0.08577563899999596,"{56: 1, 38: 1, 58: 1, 28: 1, 8: 6}","[8, 28, 38, 56, 58]",86281381561581,Ba1Sr1Ce1Ni1O6
BaSrPrNiO6,mp-1520375,0.0,2.27563921,0.15066243043750305,"{56: 1, 38: 1, 59: 1, 28: 1, 8: 6}","[8, 28, 38, 56, 59]",86281381561591,Ba1Sr1Pr1Ni1O6
BaSrNiWO6,mp-1227411,3.3716000000000004,3.01992194,0.012065881249999855,"{56: 1, 38: 1, 28: 1, 74: 1, 8: 6}","[8, 28, 38, 56, 74]",86281381561741,Ba1Sr1Ni1W1O6
BaSrNiBiO6,mp-1517390,0.0,2.95911221,0.09255826015000679,"{56: 1, 38: 1, 28: 1, 83: 1, 8: 6}","[8, 28, 38, 56, 83]",86281381561831,Ba1Sr1Ni1Bi1O6
SrLaTaNiO6,mp-1173168,2.2954,5.20963432,0.021337363277801558,"{38: 1, 57: 1, 73: 1, 28: 1, 8: 6}","[8, 28, 38, 57, 73]",86281381571731,Sr1La1Ta1Ni1O6
SrCeEuNiO6,mp-1518063,0.0,4.46992263,0.27597184687500054,"{38: 1, 58: 1, 63: 1, 28: 1, 8: 6}","[8, 28, 38, 58, 63]",86281381581631,Sr1Ce1Eu1Ni1O6
SrPrEuNiO6,mp-1520445,0.0,3.38805289,0.2709383553303528,"{38: 1, 59: 1, 63: 1, 28: 1, 8: 6}","[8, 28, 38, 59, 63]",86281381591631,Sr1Pr1Eu1Ni1O6
SrPrGdNiO6,mp-1522520,1.0940999999999996,3.3477005,0.1805287695803539,"{38: 1, 59: 1, 64: 1, 28: 1, 8: 6}","[8, 28, 38, 59, 64]",86281381591641,Sr1Pr1Gd1Ni1O6
SrPrDyNiO6,mp-1519887,1.4826000000000001,3.3105566,0.1601282223303535,"{38: 1, 59: 1, 66: 1, 28: 1, 8: 6}","[8, 28, 38, 59, 66]",86281381591661,Sr1Pr1Dy1Ni1O6