formula,material_id,band_gap,efermi,energy_above_hull,comp_atoms,sorted_keys_comp_atoms,comp_number,new_formula
Ba(NiO2)4,mp-18991,0.3230999999999997,2.25481576,0.027335055961537513,"{56: 1, 28: 4, 8: 8}","[8, 28, 56]",88284561,Ba1Ni4O8
NaNi2P2O9,mp-1094125,0.0,1.33140181,0.12855168830356511,"{11: 1, 28: 2, 15: 2, 8: 9}","[8, 11, 15, 28]",89111152282,Na1Ni2P2O9
NaNi(PO3)3,mp-557716,4.5112,0.54183419,0.0023031569345279834,"{11: 1, 28: 1, 15: 3, 8: 9}","[8, 11, 15, 28]",89111153281,Na1Ni1P3O9
Na14Ni2O9,mp-764496,1.4427,2.7099687,0.0010408252000013718,"{11: 14, 28: 2, 8: 9}","[8, 11, 28]",891114282,Na14Ni2O9
MgTiNiP2O9,mp-1043031,2.9911,2.23388695,0.04685351404761917,"{12: 1, 22: 1, 28: 1, 15: 2, 8: 9}","[8, 12, 15, 22, 28]",89121152221281,Mg1Ti1Ni1P2O9
MgVNiP2O9,mp-1332813,1.9890000000000003,2.68271611,0.03660604476189633,"{12: 1, 23: 1, 28: 1, 15: 2, 8: 9}","[8, 12, 15, 23, 28]",89121152231281,Mg1V1Ni1P2O9
MgCrNiP2O9,mp-1333330,0.4870000000000001,2.80152886,0.047699384563506086,"{12: 1, 24: 1, 28: 1, 15: 2, 8: 9}","[8, 12, 15, 24, 28]",89121152241281,Mg1Cr1Ni1P2O9
MgMnNiP2O9,mp-1043098,0.026899999999999924,3.00099362,0.06244431538691053,"{12: 1, 25: 1, 28: 1, 15: 2, 8: 9}","[8, 12, 15, 25, 28]",89121152251281,Mg1Mn1Ni1P2O9
MgFeNiP2O9,mp-1043103,0.21689999999999987,2.21172368,0.08274526056548037,"{12: 1, 26: 1, 28: 1, 15: 2, 8: 9}","[8, 12, 15, 26, 28]",89121152261281,Mg1Fe1Ni1P2O9
MgCoNiP2O9,mp-1043158,0.0,2.24577889,0.09292435705357605,"{12: 1, 27: 1, 28: 1, 15: 2, 8: 9}","[8, 12, 15, 27, 28]",89121152271281,Mg1Co1Ni1P2O9
MgNiMoP2O9,mp-1043146,1.6919,3.38894418,0.06245445892855983,"{12: 1, 28: 1, 42: 1, 15: 2, 8: 9}","[8, 12, 15, 28, 42]",89121152281421,Mg1Ni1Mo1P2O9
MgNiSnP2O9,mp-1043215,2.8594,2.56956329,0.0615094046428597,"{12: 1, 28: 1, 50: 1, 15: 2, 8: 9}","[8, 12, 15, 28, 50]",89121152281501,Mg1Ni1Sn1P2O9
MgNiSbP2O9,mp-1043176,0.0,4.48001338,0.13239326366073367,"{12: 1, 28: 1, 51: 1, 15: 2, 8: 9}","[8, 12, 15, 28, 51]",89121152281511,Mg1Ni1Sb1P2O9
MgNiBiP2O9,mp-1043481,0.0,2.50159087,0.13265674514136006,"{12: 1, 28: 1, 83: 1, 15: 2, 8: 9}","[8, 12, 15, 28, 83]",89121152281831,Mg1Ni1Bi1P2O9
MgNi(PO3)3,mp-2227278,0.20889999999999986,4.09599284,0.29397376564936906,"{12: 1, 28: 1, 15: 3, 8: 9}","[8, 12, 15, 28]",89121153281,Mg1Ni1P3O9
MgTi3ZnNiO9,mp-1222049,3.069,5.92489092,0.01128739433329251,"{12: 1, 22: 3, 30: 1, 28: 1, 8: 9}","[8, 12, 22, 28, 30]",89121223281301,Mg1Ti3Zn1Ni1O9
MgNi4O9,mp-1343548,0.0,1.71358695,0.392187916448413,"{12: 1, 28: 4, 8: 9}","[8, 12, 28]",89121284,Mg1Ni4O9
Mg2Ta2Ni2O9,mp-1222197,3.5726999999999998,6.52951363,0.011451097444435732,"{12: 2, 73: 2, 28: 2, 8: 9}","[8, 12, 28, 73]",89122282732,Mg2Ta2Ni2O9
CaTiNiP2O9,mp-1043092,2.9967,1.79438229,0.0,"{20: 1, 22: 1, 28: 1, 15: 2, 8: 9}","[8, 15, 20, 22, 28]",89152201221281,Ca1Ti1Ni1P2O9
CaVNiP2O9,mp-21646,0.0,3.53682951,0.0,"{20: 1, 23: 1, 28: 1, 15: 2, 8: 9}","[8, 15, 20, 23, 28]",89152201231281,Ca1V1Ni1P2O9
CaCrNiP2O9,mp-1327705,0.6467999999999998,2.42534541,2.3942619106875895e-05,"{20: 1, 24: 1, 28: 1, 15: 2, 8: 9}","[8, 15, 20, 24, 28]",89152201241281,Ca1Cr1Ni1P2O9
CaMnNiP2O9,mp-1043125,0.02619999999999978,2.44903685,0.025862091131006792,"{20: 1, 25: 1, 28: 1, 15: 2, 8: 9}","[8, 15, 20, 25, 28]",89152201251281,Ca1Mn1Ni1P2O9
CaFeNiP2O9,mp-1043130,0.12030000000000007,1.76730056,0.02971186249008273,"{20: 1, 26: 1, 28: 1, 15: 2, 8: 9}","[8, 15, 20, 26, 28]",89152201261281,Ca1Fe1Ni1P2O9
CaCoNiP2O9,mp-1043153,0.15260000000000007,1.8470761,0.053955099404770834,"{20: 1, 27: 1, 28: 1, 15: 2, 8: 9}","[8, 15, 20, 27, 28]",89152201271281,Ca1Co1Ni1P2O9
CaNiMoP2O9,mp-1043759,1.6824000000000003,3.2149872,0.0017017124404397066,"{20: 1, 28: 1, 42: 1, 15: 2, 8: 9}","[8, 15, 20, 28, 42]",89152201281421,Ca1Ni1Mo1P2O9
CaNiSnP2O9,mp-1043455,2.8235000000000006,2.61407178,0.017821697809527137,"{20: 1, 28: 1, 50: 1, 15: 2, 8: 9}","[8, 15, 20, 28, 50]",89152201281501,Ca1Ni1Sn1P2O9
CaNiSbP2O9,mp-1043551,0.0,4.06814488,0.07494393821429757,"{20: 1, 28: 1, 51: 1, 15: 2, 8: 9}","[8, 15, 20, 28, 51]",89152201281511,Ca1Ni1Sb1P2O9
CaNiP2WO9,mp-1043542,0.0,4.36296045,0.01947077571428224,"{20: 1, 28: 1, 15: 2, 74: 1, 8: 9}","[8, 15, 20, 28, 74]",89152201281741,Ca1Ni1P2W1O9
CaNiBiP2O9,mp-1363650,0.0,2.49915158,0.06440610125247925,"{20: 1, 28: 1, 83: 1, 15: 2, 8: 9}","[8, 15, 20, 28, 83]",89152201281831,Ca1Ni1Bi1P2O9
CaNi2P2O9,mp-1043475,0.0,1.77095704,0.07583113408729414,"{20: 1, 28: 2, 15: 2, 8: 9}","[8, 15, 20, 28]",89152201282,Ca1Ni2P2O9
TiNiP2O9,mp-1043495,0.0,-0.16726446,0.1292079859615427,"{22: 1, 28: 1, 15: 2, 8: 9}","[8, 15, 22, 28]",89152221281,Ti1Ni1P2O9
TiZnNiP2O9,mp-1043054,3.0155,1.94189007,0.057959057440469586,"{22: 1, 30: 1, 28: 1, 15: 2, 8: 9}","[8, 15, 22, 28, 30]",89152221281301,Ti1Zn1Ni1P2O9
VNiP2O9,mp-1350888,0.014600000000000002,0.34290219,0.07712059192307663,"{23: 1, 28: 1, 15: 2, 8: 9}","[8, 15, 23, 28]",89152231281,V1Ni1P2O9
VZnNiP2O9,mp-1333433,1.9474,2.45321169,0.049327090476126934,"{23: 1, 30: 1, 28: 1, 15: 2, 8: 9}","[8, 15, 23, 28, 30]",89152231281301,V1Zn1Ni1P2O9
CrNiP2O9,mp-1044071,0.0,0.28964448,0.11072815596153607,"{24: 1, 28: 1, 15: 2, 8: 9}","[8, 15, 24, 28]",89152241281,Cr1Ni1P2O9
ZnCrNiP2O9,mp-1043482,0.23019999999999996,2.92281331,0.08065031809524204,"{30: 1, 24: 1, 28: 1, 15: 2, 8: 9}","[8, 15, 24, 28, 30]",89152241281301,Zn1Cr1Ni1P2O9
MnNiP2O9,mp-1043595,0.0,0.28202807,0.12847749115384932,"{25: 1, 28: 1, 15: 2, 8: 9}","[8, 15, 25, 28]",89152251281,Mn1Ni1P2O9
MnZnNiP2O9,mp-1333743,0.5607000000000002,2.55826658,0.0686231243601183,"{25: 1, 30: 1, 28: 1, 15: 2, 8: 9}","[8, 15, 25, 28, 30]",89152251281301,Mn1Zn1Ni1P2O9
FeNiP2O9,mp-1043619,0.0,-0.06056621,0.19638441269231155,"{26: 1, 28: 1, 15: 2, 8: 9}","[8, 15, 26, 28]",89152261281,Fe1Ni1P2O9
ZnFeNiP2O9,mp-1043109,0.20179999999999998,1.71261143,0.09286178377976384,"{30: 1, 26: 1, 28: 1, 15: 2, 8: 9}","[8, 15, 26, 28, 30]",89152261281301,Zn1Fe1Ni1P2O9
ZnCoNiP2O9,mp-1043126,0.18009999999999993,2.17367928,0.08795406672618888,"{30: 1, 27: 1, 28: 1, 15: 2, 8: 9}","[8, 15, 27, 28, 30]",89152271281301,Zn1Co1Ni1P2O9
ZnCuNiP2O9,mp-1043491,0.0,2.23334835,0.11704804633928934,"{30: 1, 29: 1, 28: 1, 15: 2, 8: 9}","[8, 15, 28, 29, 30]",89152281291301,Zn1Cu1Ni1P2O9
Cu3NiP2O9,mp-1204774,0.3954000000000004,3.55625871,0.011662772249989573,"{29: 3, 28: 1, 15: 2, 8: 9}","[8, 15, 28, 29]",89152281293,Cu3Ni1P2O9
ZnNiMoP2O9,mp-1043107,1.4364999999999997,3.09566796,0.07881568839284636,"{30: 1, 28: 1, 42: 1, 15: 2, 8: 9}","[8, 15, 28, 30, 42]",89152281301421,Zn1Ni1Mo1P2O9
ZnNiSnP2O9,mp-1043346,2.735,2.06235645,0.06331693660714155,"{30: 1, 28: 1, 50: 1, 15: 2, 8: 9}","[8, 15, 28, 30, 50]",89152281301501,Zn1Ni1Sn1P2O9
ZnNiP2WO9,mp-1044171,1.5939,2.73225595,0.08906152851190985,"{30: 1, 28: 1, 15: 2, 74: 1, 8: 9}","[8, 15, 28, 30, 74]",89152281301741,Zn1Ni1P2W1O9
ZnNiBiP2O9,mp-1325511,0.0,1.8427869,0.1416909121056502,"{30: 1, 28: 1, 83: 1, 15: 2, 8: 9}","[8, 15, 28, 30, 83]",89152281301831,Zn1Ni1Bi1P2O9
NiMoP2O9,mp-1043472,1.1421999999999999,0.73162485,0.043649754519221595,"{28: 1, 42: 1, 15: 2, 8: 9}","[8, 15, 28, 42]",89152281421,Ni1Mo1P2O9
NiSnP2O9,mp-1044247,0.0,0.65980723,0.1521640539743565,"{28: 1, 50: 1, 15: 2, 8: 9}","[8, 15, 28, 50]",89152281501,Ni1Sn1P2O9
NiSbP2O9,mp-1043461,0.0,0.95391587,0.08378807634615626,"{28: 1, 51: 1, 15: 2, 8: 9}","[8, 15, 28, 51]",89152281511,Ni1Sb1P2O9
NiTeP2O9,mp-1352495,1.0418,1.77381551,0.05751331711538654,"{28: 1, 52: 1, 15: 2, 8: 9}","[8, 15, 28, 52]",89152281521,Ni1Te1P2O9
TaNiP2O9,mp-1043512,0.0,0.01539426,0.09531618288461985,"{73: 1, 28: 1, 15: 2, 8: 9}","[8, 15, 28, 73]",89152281731,Ta1Ni1P2O9
NiP2WO9,mp-1043389,2.2634000000000003,0.79000701,0.03767456605770114,"{28: 1, 15: 2, 74: 1, 8: 9}","[8, 15, 28, 74]",89152281741,Ni1P2W1O9
NiBiP2O9,mp-1043741,0.0,0.56063705,0.16890305326923283,"{28: 1, 83: 1, 15: 2, 8: 9}","[8, 15, 28, 83]",89152281831,Ni1Bi1P2O9
Ni2P2O9,mp-1044234,0.0,0.07361699,0.22831144576923545,"{28: 2, 15: 2, 8: 9}","[8, 15, 28]",89152282,Ni2P2O9
ZnNi2P2O9,mp-1043209,0.0,2.20833962,0.13416250261904317,"{30: 1, 28: 2, 15: 2, 8: 9}","[8, 15, 28, 30]",89152282301,Zn1Ni2P2O9
Ni4P2O9,mp-771899,2.8453999999999997,6.75694087,0.036783219000000145,"{28: 4, 15: 2, 8: 9}","[8, 15, 28]",89152284,Ni4P2O9
KNi(PO3)3,mp-557878,4.7306,-0.28519083,0.0,"{19: 1, 28: 1, 15: 3, 8: 9}","[8, 15, 19, 28]",89153191281,K1Ni1P3O9
Ni(PO3)3,mp-759840,0.04720000000000002,0.8358091,0.04507795326924491,"{28: 1, 15: 3, 8: 9}","[8, 15, 28]",89153281,Ni1P3O9
NiAg(PO3)3,mp-1210398,3.2094000000000005,1.58110631,0.006963404910737658,"{28: 1, 47: 1, 15: 3, 8: 9}","[8, 15, 28, 47]",89153281471,Ni1Ag1P3O9
NiSO9,mp-1180037,0.4574999999999999,0.86232533,0.3743329184090891,"{28: 1, 16: 1, 8: 9}","[8, 16, 28]",89161281,Ni1S1O9
NiS2O9,mp-1211066,1.1763,-1.25746023,0.7828995069444495,"{28: 1, 16: 2, 8: 9}","[8, 16, 28]",89162281,Ni1S2O9
CaNi4O9,mp-1348280,0.0,1.03880087,0.33346720095238513,"{20: 1, 28: 4, 8: 9}","[8, 20, 28]",89201284,Ca1Ni4O9
V4Ni2O9,mp-1101714,0.8429000000000002,5.15304766,0.04482285933334751,"{23: 4, 28: 2, 8: 9}","[8, 23, 28]",89234282,V4Ni2O9
Mn2Ni(BiO3)3,mp-1221980,0.0,6.05805407,0.07186948249999858,"{25: 2, 28: 1, 83: 3, 8: 9}","[8, 25, 28, 83]",89252281833,Mn2Ni1Bi3O9
Sr2Ni(SeO3)3,mp-1194096,3.0767000000000007,1.60897547,0.0,"{38: 2, 28: 1, 34: 3, 8: 9}","[8, 28, 34, 38]",89281343382,Sr2Ni1Se3O9
Ba3Nb2NiO9,mp-1214516,2.6807999999999996,2.4055464,0.0,"{56: 3, 41: 2, 28: 1, 8: 9}","[8, 28, 41, 56]",89281412563,Ba3Nb2Ni1O9
Ba3NiSbRuO9,mp-1228276,0.5658000000000003,4.34632818,0.007992468583334578,"{56: 3, 28: 1, 51: 1, 44: 1, 8: 9}","[8, 28, 44, 51, 56]",89281441511563,Ba3Ni1Sb1Ru1O9
Ba3NiIrRuO9,mp-1228389,0.0,3.88892799,0.00804919783332636,"{56: 3, 28: 1, 77: 1, 44: 1, 8: 9}","[8, 28, 44, 56, 77]",89281441563771,Ba3Ni1Ir1Ru1O9
Ba3NiRu2O9,mp-22363,0.0,3.71027832,0.0,"{56: 3, 28: 1, 44: 2, 8: 9}","[8, 28, 44, 56]",89281442563,Ba3Ni1Ru2O9
Ba3NiSb2O9,mp-17269,0.0,4.76899833,0.0,"{56: 3, 28: 1, 51: 2, 8: 9}","[8, 28, 51, 56]",89281512563,Ba3Ni1Sb2O9
Ba3Ta2NiO9,mp-32310,3.1512,2.65949011,0.0,"{56: 3, 73: 2, 28: 1, 8: 9}","[8, 28, 56, 73]",89281563732,Ba3Ta2Ni1O9
Ba3NiIr2O9,mp-540907,0.0,3.89810502,0.0,"{56: 3, 28: 1, 77: 2, 8: 9}","[8, 28, 56, 77]",89281563772,Ba3Ni1Ir2O9
Ni2As2O9,mp-1198130,0.2972,0.4830131,0.2839619701923066,"{28: 2, 33: 2, 8: 9}","[8, 28, 33]",89282332,Ni2As2O9
Sr2La2TlNi2O9,mp-1218757,0.0,5.06378578,0.0065991924218780085,"{38: 2, 57: 2, 81: 1, 28: 2, 8: 9}","[8, 28, 38, 57, 81]",89282382572811,Sr2La2Tl1Ni2O9
Sr2Pr2TlNi2O9,mp-1218716,0.0,3.79838835,0.0,"{38: 2, 59: 2, 81: 1, 28: 2, 8: 9}","[8, 28, 38, 59, 81]",89282382592811,Sr2Pr2Tl1Ni2O9
Sr2Nd2TlNi2O9,mp-1218767,0.0,3.7482592,0.00590705382813006,"{38: 2, 60: 2, 81: 1, 28: 2, 8: 9}","[8, 28, 38, 60, 81]",89282382602811,Sr2Nd2Tl1Ni2O9
Sr2Sm2TlNi2O9,mp-1218719,0.0,3.72292219,0.015424596406250934,"{38: 2, 62: 2, 81: 1, 28: 2, 8: 9}","[8, 28, 38, 62, 81]",89282382622811,Sr2Sm2Tl1Ni2O9
Sr2Eu2TlNi2O9,mp-1218836,0.0,3.07616103,0.11782398195312549,"{38: 2, 63: 2, 81: 1, 28: 2, 8: 9}","[8, 28, 38, 63, 81]",89282382632811,Sr2Eu2Tl1Ni2O9
Sr2Gd2TlNi2O9,mp-1218819,0.0,3.70047179,0.03578925476562489,"{38: 2, 64: 2, 81: 1, 28: 2, 8: 9}","[8, 28, 38, 64, 81]",89282382642811,Sr2Gd2Tl1Ni2O9
Nb2Ni2O9,mp-1370479,0.3881999999999999,2.24636234,0.33097275147435745,"{41: 2, 28: 2, 8: 9}","[8, 28, 41]",89282412,Nb2Ni2O9
Sr4(NiO3)3,mp-759747,1.3317,2.92505009,0.0,"{38: 4, 28: 3, 8: 9}","[8, 28, 38]",89283384,Sr4Ni3O9
Y2(NiO3)3,mp-1349550,0.08790000000000031,2.56722085,0.2644342152976247,"{39: 2, 28: 3, 8: 9}","[8, 28, 39]",89283392,Y2Ni3O9
Nb2Ni4O9,mp-646749,0.0,6.00168125,0.006433360499991991,"{41: 2, 28: 4, 8: 9}","[8, 28, 41]",89284412,Nb2Ni4O9
Ca17Ni19(PO4)24,mp-1229261,3.4379,2.03939633,0.03264851932870094,"{20: 17, 28: 19, 15: 24, 8: 96}","[8, 15, 20, 28]",896152420172819,Ca17Ni19P24O96
U3Ni2O9F16,mp-1199636,0.0,0.38982515,0.7426835897916755,"{92: 3, 28: 2, 8: 9, 9: 16}","[8, 9, 28, 92]",89916282923,U3Ni2O9F16
NaNi4F10,mp-673691,0.0,-1.90272114,0.14206288522222632,"{11: 1, 28: 4, 9: 10}","[9, 11, 28]",910111284,Na1Ni4F10
Cs2Cu3NiF10,mp-1226365,0.6046,0.2866168,0.007843648281250282,"{55: 2, 29: 3, 28: 1, 9: 10}","[9, 28, 29, 55]",910281293552,Cs2Cu3Ni1F10
Cs3TlNi3F10,mp-1226140,4.909999999999999,-0.44381498,0.012137066029447752,"{55: 3, 81: 1, 28: 3, 9: 10}","[9, 28, 55, 81]",910283553811,Cs3Tl1Ni3F10
Cs4Ni3F10,mp-17733,4.4276,-0.7084403,0.0,"{55: 4, 28: 3, 9: 10}","[9, 28, 55]",910283554,Cs4Ni3F10
Ba2Ni3F10,mp-27680,4.6348,4.69589433,0.10972355133333256,"{56: 2, 28: 3, 9: 10}","[9, 28, 56]",910283562,Ba2Ni3F10
NaZr2NiF11,mp-554702,5.1666,-2.49455277,0.0,"{11: 1, 40: 2, 28: 1, 9: 11}","[9, 11, 28, 40]",911111281402,Na1Zr2Ni1F11
Ba2AlNi2F11,mp-1044802,4.2505,-0.06820011,0.11359735489583223,"{56: 2, 13: 1, 28: 2, 9: 11}","[9, 13, 28, 56]",911131282562,Ba2Al1Ni2F11
Ba2YNi2F11,mp-1044915,4.6917,-0.38647025,0.16259318276041412,"{56: 2, 39: 1, 28: 2, 9: 11}","[9, 28, 39, 56]",911282391562,Ba2Y1Ni2F11
Ba2Ni2F11,mp-1041199,0.6261999999999999,-1.23516464,0.15291837872222125,"{56: 2, 28: 2, 9: 11}","[9, 28, 56]",911282562,Ba2Ni2F11
Ba3NiF12,mp-1215007,1.4325,-0.5856795,0.2703178606249992,"{56: 3, 28: 1, 9: 12}","[9, 28, 56]",912281563,Ba3Ni1F12
Cs4CdNi3F12,mp-561567,4.4602,-0.8270347,0.0,"{55: 4, 48: 1, 28: 3, 9: 12}","[9, 28, 48, 55]",912283481554,Cs4Cd1Ni3F12
Ba2MgCuNi2F14,mp-1354763,0.0,0.16113648,0.07080745687500034,"{56: 2, 12: 1, 29: 1, 28: 2, 9: 14}","[9, 12, 28, 29, 56]",914121282291562,Ba2Mg1Cu1Ni2F14
Ba2CaCuNi2F14,mp-1046122,0.0,-0.09483278,0.06458925950001149,"{56: 2, 20: 1, 29: 1, 28: 2, 9: 14}","[9, 20, 28, 29, 56]",914201282291562,Ba2Ca1Cu1Ni2F14
Ba2ZnCuNi2F14,mp-1357049,0.0,0.02160088,0.17097844562499454,"{56: 2, 30: 1, 29: 1, 28: 2, 9: 14}","[9, 28, 29, 30, 56]",914282291301562,Ba2Zn1Cu1Ni2F14
AlNi3F15,mp-1254498,0.0,-3.4212687,0.10634280118420936,"{13: 1, 28: 3, 9: 15}","[9, 13, 28]",915131283,Al1Ni3F15
Cs5CaNi4F15,mp-556893,5.055899999999999,-0.82666891,0.0,"{55: 5, 20: 1, 28: 4, 9: 15}","[9, 20, 28, 55]",915201284555,Cs5Ca1Ni4F15
Cs7Ni4F15,mp-563023,4.9957,-0.80112821,0.0,"{55: 7, 28: 4, 9: 15}","[9, 28, 55]",915284557,Cs7Ni4F15
Ni(XeF8)2,mp-654447,3.086,-3.8672743,0.0,"{28: 1, 54: 2, 9: 16}","[9, 28, 54]",916281542,Ni1Xe2F16
KNiAs3F18,mp-558932,4.3455,-3.46046269,0.009012375108688353,"{19: 1, 28: 1, 33: 3, 9: 18}","[9, 19, 28, 33]",918191281333,K1Ni1As3F18
Ba2Ni7F18,mp-560626,4.4443,0.26055683,0.05483338962962847,"{56: 2, 28: 7, 9: 18}","[9, 28, 56]",918287562,Ba2Ni7F18
NiF2,mp-559798,4.9116,0.401624,0.0,"{28: 1, 9: 2}","[9, 28]",92281,Ni1F2
NiSb3XeF23,mp-1195453,1.6092999999999997,-3.05021672,0.0,"{28: 1, 51: 3, 54: 1, 9: 23}","[9, 28, 51, 54]",923281513541,Ni1Sb3Xe1F23
Ni(XeF7)4,mp-556221,2.1312999999999995,-4.6177837,0.0,"{28: 1, 54: 4, 9: 28}","[9, 28, 54]",928281544,Ni1Xe4F28
NaNiF3,mp-561480,4.610799999999999,0.09731517,0.0,"{11: 1, 28: 1, 9: 3}","[9, 11, 28]",93111281,Na1Ni1F3
KNiF3,mp-560976,0.0,1.41033415,0.0,"{19: 1, 28: 1, 9: 3}","[9, 19, 28]",93191281,K1Ni1F3
NiF3,mp-614777,0.0,-1.17481417,0.0,"{28: 1, 9: 3}","[9, 28]",93281,Ni1F3
RbNiF3,mp-556488,4.6929,-0.76780246,0.0,"{37: 1, 28: 1, 9: 3}","[9, 28, 37]",93281371,Rb1Ni1F3
NiAgF3,mp-998429,0.7610000000000001,1.56463398,0.02546815600000052,"{28: 1, 47: 1, 9: 3}","[9, 28, 47]",93281471,Ni1Ag1F3
CsNiF3,mp-557772,5.3618,-1.05853017,0.0,"{55: 1, 28: 1, 9: 3}","[9, 28, 55]",93281551,Cs1Ni1F3
TlNiF3,mp-998761,3.4347,2.38909251,0.0008278949999933616,"{81: 1, 28: 1, 9: 3}","[9, 28, 81]",93281811,Tl1Ni1F3
MgNiF4,mp-1402637,4.3374999999999995,0.70837146,0.16179999249999977,"{12: 1, 28: 1, 9: 4}","[9, 12, 28]",94121281,Mg1Ni1F4
K2NiF4,mp-556546,3.6693,-0.74243056,0.0,"{19: 2, 28: 1, 9: 4}","[9, 19, 28]",94192281,K2Ni1F4
CaNiF4,mp-1868908,4.2162,3.90398918,0.07441232249999974,"{20: 1, 28: 1, 9: 4}","[9, 20, 28]",94201281,Ca1Ni1F4
NiF4,mp-1406123,0.8967,-3.651889,0.173098841499999,"{28: 1, 9: 4}","[9, 28]",94281,Ni1F4
ZnNiF4,mp-1407045,1.422,0.68475178,0.15241977333333256,"{30: 1, 28: 1, 9: 4}","[9, 28, 30]",94281301,Zn1Ni1F4
Rb2NiF4,mp-561317,3.7349,-0.66644501,0.0,"{37: 2, 28: 1, 9: 4}","[9, 28, 37]",94281372,Rb2Ni1F4
SrNiF4,mp-1208631,5.0013,-0.15897959,0.023195541666666486,"{38: 1, 28: 1, 9: 4}","[9, 28, 38]",94281381,Sr1Ni1F4
BaNiF4,mp-555321,4.6572,-0.4678982,0.0,"{56: 1, 28: 1, 9: 4}","[9, 28, 56]",94281561,Ba1Ni1F4
Tl2NiF4,mp-1206532,0.0,3.2126051,0.0,"{81: 2, 28: 1, 9: 4}","[9, 28, 81]",94281812,Tl2Ni1F4
MgNiF5,mp-1397453,2.0048,0.58709577,0.026080805714285837,"{12: 1, 28: 1, 9: 5}","[9, 12, 28]",95121281,Mg1Ni1F5
AlNiF5,mp-1263325,1.9441000000000002,0.35929465,0.05437657928571582,"{13: 1, 28: 1, 9: 5}","[9, 13, 28]",95131281,Al1Ni1F5
CaNiF5,mp-1389691,0.0,-1.28843339,0.0,"{20: 1, 28: 1, 9: 5}","[9, 20, 28]",95201281,Ca1Ni1F5
ZnNiF5,mp-1343278,1.6149,-1.76993072,0.025919734285714924,"{30: 1, 28: 1, 9: 5}","[9, 28, 30]",95281301,Zn1Ni1F5
YNiF5,mp-1445738,2.2381,-2.13550991,0.208989391071432,"{39: 1, 28: 1, 9: 5}","[9, 28, 39]",95281391,Y1Ni1F5
CsNiPdF5,mp-560600,0.5593,0.86163946,0.0033031312500000354,"{55: 1, 28: 1, 46: 1, 9: 5}","[9, 28, 46, 55]",95281461551,Cs1Ni1Pd1F5
K2NaNiF6,mp-556757,0.0,-1.37618917,0.004150783000002711,"{19: 2, 11: 1, 28: 1, 9: 6}","[9, 11, 19, 28]",96111192281,K2Na1Ni1F6
Rb2NaNiF6,mp-556353,0.0,-1.3997973,0.003064035500004003,"{37: 2, 11: 1, 28: 1, 9: 6}","[9, 11, 28, 37]",96111281372,Rb2Na1Ni1F6
Cs2NaNiF6,mp-1111951,0.0,-0.73647266,0.028489873999999027,"{55: 2, 11: 1, 28: 1, 9: 6}","[9, 11, 28, 55]",96111281552,Cs2Na1Ni1F6
RbNa2NiF6,mp-1110622,0.0,-1.28929023,0.24882353383332845,"{37: 1, 11: 2, 28: 1, 9: 6}","[9, 11, 28, 37]",96112281371,Rb1Na2Ni1F6
Na2NiHgF6,mp-1111162,1.7089,1.11448604,0.1329795712499955,"{11: 2, 28: 1, 80: 1, 9: 6}","[9, 11, 28, 80]",96112281801,Na2Ni1Hg1F6
Na2TlNiF6,mp-1110616,0.2339,0.83965516,0.20363412356250876,"{11: 2, 81: 1, 28: 1, 9: 6}","[9, 11, 28, 81]",96112281811,Na2Tl1Ni1F6
Na3NiF6,mp-554649,2.4132,-1.63767143,0.0,"{11: 3, 28: 1, 9: 6}","[9, 11, 28]",96113281,Na3Ni1F6
MgNiF6,mp-1409292,0.0,-1.56551096,0.0,"{12: 1, 28: 1, 9: 6}","[9, 12, 28]",96121281,Mg1Ni1F6
RbMgNiF6,mp-1219590,2.0450000000000004,-2.04658901,0.02047268222221721,"{37: 1, 12: 1, 28: 1, 9: 6}","[9, 12, 28, 37]",96121281371,Rb1Mg1Ni1F6
CsMgNiF6,mp-1225959,0.38639999999999997,-1.08955519,0.02560060999999525,"{55: 1, 12: 1, 28: 1, 9: 6}","[9, 12, 28, 55]",96121281551,Cs1Mg1Ni1F6
KAlNiF6,mp-1223554,5.4566,-0.77099698,0.0,"{19: 1, 13: 1, 28: 1, 9: 6}","[9, 13, 19, 28]",96131191281,K1Al1Ni1F6
RbAlNiF6,mp-1219582,5.4374,-0.66715044,0.0,"{37: 1, 13: 1, 28: 1, 9: 6}","[9, 13, 28, 37]",96131281371,Rb1Al1Ni1F6
CsAlNiF6,mp-1225930,5.4309,-0.32269202,0.0,"{55: 1, 13: 1, 28: 1, 9: 6}","[9, 13, 28, 55]",96131281551,Cs1Al1Ni1F6
Ca2Ni2SF6,mp-1246700,3.2989,4.35697203,0.43630457969696845,"{20: 2, 28: 2, 16: 1, 9: 6}","[9, 16, 20, 28]",96161202282,Ca2Ni2S1F6
Ni2Hg2SF6,mp-18626,0.0,2.40386584,0.0,"{28: 2, 80: 2, 16: 1, 9: 6}","[9, 16, 28, 80]",96161282802,Ni2Hg2S1F6
KCrNiF6,mp-1223481,3.1558,-1.30524115,0.011525024166662234,"{19: 1, 24: 1, 28: 1, 9: 6}","[9, 19, 24, 28]",96191241281,K1Cr1Ni1F6
KRb2NiF6,mp-555464,0.0,-1.5399731,0.013781763499997268,"{19: 1, 37: 2, 28: 1, 9: 6}","[9, 19, 28, 37]",96191281372,K1Rb2Ni1F6
Cs2KNiF6,mp-557958,0.0,-1.01319512,0.0021888419999971376,"{55: 2, 19: 1, 28: 1, 9: 6}","[9, 19, 28, 55]",96191281552,Cs2K1Ni1F6
K2NiF6,mp-605034,2.3603,-3.04040066,0.0,"{19: 2, 28: 1, 9: 6}","[9, 19, 28]",96192281,K2Ni1F6
K2NiAuF6,mp-1111941,0.0,0.19222357,0.13611740466667221,"{19: 2, 28: 1, 79: 1, 9: 6}","[9, 19, 28, 79]",96192281791,K2Ni1Au1F6
K2NiHgF6,mp-1112157,1.9584000000000001,1.05578199,0.007612064999999113,"{19: 2, 28: 1, 80: 1, 9: 6}","[9, 19, 28, 80]",96192281801,K2Ni1Hg1F6
K2TlNiF6,mp-1111264,0.28580000000000005,0.27133326,0.09504810385416818,"{19: 2, 81: 1, 28: 1, 9: 6}","[9, 19, 28, 81]",96192281811,K2Tl1Ni1F6
K3NiF6,mp-1111140,0.0,-1.44294676,0.04244125600000004,"{19: 3, 28: 1, 9: 6}","[9, 19, 28]",96193281,K3Ni1F6
CaNiF6,mp-1323553,2.1462000000000003,-3.28409265,0.0,"{20: 1, 28: 1, 9: 6}","[9, 20, 28]",96201281,Ca1Ni1F6