formula,material_id,band_gap,efermi,energy_above_hull,comp_atoms,sorted_keys_comp_atoms,comp_number,new_formula
SrPrNiBiO6,mp-1518344,0.31130000000000013,4.32636961,0.1957052460000055,"{38: 1, 59: 1, 28: 1, 83: 1, 8: 6}","[8, 28, 38, 59, 83]",86281381591831,Sr1Pr1Ni1Bi1O6
SrNdNiBiO6,mp-1516486,0.3864000000000001,4.4768339,0.2159500674999908,"{38: 1, 60: 1, 28: 1, 83: 1, 8: 6}","[8, 28, 38, 60, 83]",86281381601831,Sr1Nd1Ni1Bi1O6
SrSmEuNiO6,mp-1521513,0.0,2.59556874,0.2847247702410689,"{38: 1, 62: 1, 63: 1, 28: 1, 8: 6}","[8, 28, 38, 62, 63]",86281381621631,Sr1Sm1Eu1Ni1O6
SrTbEuNiO6,mp-1517629,0.0,2.71597635,0.24369588343750248,"{38: 1, 65: 1, 63: 1, 28: 1, 8: 6}","[8, 28, 38, 63, 65]",86281381631651,Sr1Tb1Eu1Ni1O6
SrEuNiWO6,mp-1516349,0.47330000000000005,5.85310762,0.09197194024999433,"{38: 1, 63: 1, 28: 1, 74: 1, 8: 6}","[8, 28, 38, 63, 74]",86281381631741,Sr1Eu1Ni1W1O6
SrEuNiBiO6,mp-1519106,0.0,3.67081088,0.23191746554999426,"{38: 1, 63: 1, 28: 1, 83: 1, 8: 6}","[8, 28, 38, 63, 83]",86281381631831,Sr1Eu1Ni1Bi1O6
Sr2NiMoO6,mp-18940,2.0734000000000004,3.43705053,0.0,"{38: 2, 28: 1, 42: 1, 8: 6}","[8, 28, 38, 42]",86281382421,Sr2Ni1Mo1O6
Sr2NiRuO6,mp-1078758,0.0,3.62096713,0.0,"{38: 2, 28: 1, 44: 1, 8: 6}","[8, 28, 38, 44]",86281382441,Sr2Ni1Ru1O6
Sr2NiTeO6,mp-18908,0.0,4.33299142,0.0,"{38: 2, 28: 1, 52: 1, 8: 6}","[8, 28, 38, 52]",86281382521,Sr2Ni1Te1O6
Sr2CeNiO6,mp-1517357,1.3228999999999997,3.61608279,0.0720297889999939,"{38: 2, 58: 1, 28: 1, 8: 6}","[8, 28, 38, 58]",86281382581,Sr2Ce1Ni1O6
Sr2PrNiO6,mp-1518098,0.0,2.27891366,0.166259995160714,"{38: 2, 59: 1, 28: 1, 8: 6}","[8, 28, 38, 59]",86281382591,Sr2Pr1Ni1O6
Sr2TbNiO6,mp-1521426,0.0,2.29621894,0.10267857081249332,"{38: 2, 65: 1, 28: 1, 8: 6}","[8, 28, 38, 65]",86281382651,Sr2Tb1Ni1O6
Sr2NiWO6,mp-20794,3.2817,3.91631838,0.0,"{38: 2, 28: 1, 74: 1, 8: 6}","[8, 28, 38, 74]",86281382741,Sr2Ni1W1O6
Sr2ReNiO6,mp-22353,0.0,4.67900393,0.1714463237583308,"{38: 2, 75: 1, 28: 1, 8: 6}","[8, 28, 38, 75]",86281382751,Sr2Re1Ni1O6
Sr2NiOsO6,mp-19119,0.0,4.13130082,0.1233126145000023,"{38: 2, 28: 1, 76: 1, 8: 6}","[8, 28, 38, 76]",86281382761,Sr2Ni1Os1O6
Sr2NiIrO6,mp-1078518,0.0,3.80444155,0.0,"{38: 2, 28: 1, 77: 1, 8: 6}","[8, 28, 38, 77]",86281382771,Sr2Ni1Ir1O6
Sr2NiBiO6,mp-1519550,0.0,3.21115422,0.09845425249999984,"{38: 2, 28: 1, 83: 1, 8: 6}","[8, 28, 38, 83]",86281382831,Sr2Ni1Bi1O6
Sr2UNiO6,mp-560410,1.5457999999999994,3.94767601,0.0985179150000075,"{38: 2, 92: 1, 28: 1, 8: 6}","[8, 28, 38, 92]",86281382921,Sr2U1Ni1O6
Sr3NiRhO6,mp-510070,0.0,3.80589196,0.001769689659104401,"{38: 3, 28: 1, 45: 1, 8: 6}","[8, 28, 38, 45]",86281383451,Sr3Ni1Rh1O6
Sr3InNiO6,mp-1304797,0.6869999999999998,3.33076911,0.0,"{38: 3, 49: 1, 28: 1, 8: 6}","[8, 28, 38, 49]",86281383491,Sr3In1Ni1O6
Sr3NiIrO6,mp-18982,0.0,4.14865743,0.003891555681817316,"{38: 3, 28: 1, 77: 1, 8: 6}","[8, 28, 38, 77]",86281383771,Sr3Ni1Ir1O6
Sr3NiPtO6,mp-19166,0.0,4.32659278,0.0,"{38: 3, 28: 1, 78: 1, 8: 6}","[8, 28, 38, 78]",86281383781,Sr3Ni1Pt1O6
Sr3NiPbO6,mp-20659,0.5748000000000002,3.53237537,0.007322875454545574,"{38: 3, 28: 1, 82: 1, 8: 6}","[8, 28, 38, 82]",86281383821,Sr3Ni1Pb1O6
Y2NiRuO6,mp-1207752,0.0,5.04666704,0.0320940778749943,"{39: 2, 28: 1, 44: 1, 8: 6}","[8, 28, 39, 44]",86281392441,Y2Ni1Ru1O6
La2ZrNiO6,mp-1079926,1.9201000000000006,6.78877514,0.21829075762499883,"{57: 2, 40: 1, 28: 1, 8: 6}","[8, 28, 40, 57]",86281401572,La2Zr1Ni1O6
La2NbNiO6,mp-1211522,0.20760000000000112,8.79361243,0.17208032812499496,"{57: 2, 41: 1, 28: 1, 8: 6}","[8, 28, 41, 57]",86281411572,La2Nb1Ni1O6
Nb2NiO6,mp-22198,2.3731000000000004,2.07614809,0.0,"{41: 2, 28: 1, 8: 6}","[8, 28, 41]",86281412,Nb2Ni1O6
Ba2NiMoO6,mp-552567,2.3514,3.09202529,0.0,"{56: 2, 28: 1, 42: 1, 8: 6}","[8, 28, 42, 56]",86281421562,Ba2Ni1Mo1O6
La2NiMoO6,mp-1206064,0.0,9.10145223,0.2253097424999968,"{57: 2, 28: 1, 42: 1, 8: 6}","[8, 28, 42, 57]",86281421572,La2Ni1Mo1O6
La2TcNiO6,mp-1087477,0.0,8.68197465,0.09219494599999933,"{57: 2, 43: 1, 28: 1, 8: 6}","[8, 28, 43, 57]",86281431572,La2Tc1Ni1O6
BaLaNiRuO6,mp-622618,0.0,5.55225657,0.039392856166657886,"{56: 1, 57: 1, 28: 1, 44: 1, 8: 6}","[8, 28, 44, 56, 57]",86281441561571,Ba1La1Ni1Ru1O6
Ba2NiRuO6,mp-1147774,0.0040000000000000036,3.17597777,0.02593218949999443,"{56: 2, 28: 1, 44: 1, 8: 6}","[8, 28, 44, 56]",86281441562,Ba2Ni1Ru1O6
La2NiRuO6,mp-19176,0.0,7.50050852,0.0,"{57: 2, 28: 1, 44: 1, 8: 6}","[8, 28, 44, 57]",86281441572,La2Ni1Ru1O6
Nd2NiRuO6,mp-1209990,0.0,5.05203752,0.0,"{60: 2, 28: 1, 44: 1, 8: 6}","[8, 28, 44, 60]",86281441602,Nd2Ni1Ru1O6
Sm2NiRuO6,mp-1208962,0.0,4.92854272,0.004233236124999706,"{62: 2, 28: 1, 44: 1, 8: 6}","[8, 28, 44, 62]",86281441622,Sm2Ni1Ru1O6
Eu2NiRuO6,mp-1213246,0.0,3.91818548,0.07951523649999714,"{63: 2, 28: 1, 44: 1, 8: 6}","[8, 28, 44, 63]",86281441632,Eu2Ni1Ru1O6
Gd2NiRuO6,mp-1212785,0.0,4.73746575,0.015399401499998078,"{64: 2, 28: 1, 44: 1, 8: 6}","[8, 28, 44, 64]",86281441642,Gd2Ni1Ru1O6
Dy2NiRuO6,mp-1213197,0.0,4.97694422,0.03272184949999968,"{66: 2, 28: 1, 44: 1, 8: 6}","[8, 28, 44, 66]",86281441662,Dy2Ni1Ru1O6
Ho2NiRuO6,mp-1211920,0.0,4.87568645,0.038601930874996526,"{67: 2, 28: 1, 44: 1, 8: 6}","[8, 28, 44, 67]",86281441672,Ho2Ni1Ru1O6
Er2NiRuO6,mp-1212954,0.0,4.84440069,0.03692370649999788,"{68: 2, 28: 1, 44: 1, 8: 6}","[8, 28, 44, 68]",86281441682,Er2Ni1Ru1O6
Tm2NiRuO6,mp-1208122,0.0,4.8382743,0.0517965277499961,"{69: 2, 28: 1, 44: 1, 8: 6}","[8, 28, 44, 69]",86281441692,Tm2Ni1Ru1O6
La2NiRhO6,mp-1223214,0.0,6.58036761,0.0,"{57: 2, 28: 1, 45: 1, 8: 6}","[8, 28, 45, 57]",86281451572,La2Ni1Rh1O6
EuNiSnWO6,mp-1516192,0.21399999999999952,6.87178016,0.17478543581249895,"{63: 1, 28: 1, 50: 1, 74: 1, 8: 6}","[8, 28, 50, 63, 74]",86281501631741,Eu1Ni1Sn1W1O6
BaNdNiSbO6,mp-41829,2.6253999999999995,3.83985989,0.052002373600001484,"{56: 1, 60: 1, 28: 1, 51: 1, 8: 6}","[8, 28, 51, 56, 60]",86281511561601,Ba1Nd1Ni1Sb1O6
NdEuNiSbO6,mp-1521899,0.0,7.49296897,0.20833939074999908,"{60: 1, 63: 1, 28: 1, 51: 1, 8: 6}","[8, 28, 51, 60, 63]",86281511601631,Nd1Eu1Ni1Sb1O6
Eu2NiSbO6,mp-1516533,0.0,4.63826804,0.14715060743749575,"{63: 2, 28: 1, 51: 1, 8: 6}","[8, 28, 51, 63]",86281511632,Eu2Ni1Sb1O6
Ni(SbO3)2,mp-505271,0.0,6.8205441,0.0,"{28: 1, 51: 2, 8: 6}","[8, 28, 51]",86281512,Ni1Sb2O6
Ba2NiTeO6,mp-19011,0.0,4.84130839,0.0,"{56: 2, 28: 1, 52: 1, 8: 6}","[8, 28, 52, 56]",86281521562,Ba2Ni1Te1O6
BaNiIO6,mp-1147557,0.0,2.6510449,0.0,"{56: 1, 28: 1, 53: 1, 8: 6}","[8, 28, 53, 56]",86281531561,Ba1Ni1I1O6
Ni(IO3)2,mp-755246,2.6311000000000004,3.04926191,0.0,"{28: 1, 53: 2, 8: 6}","[8, 28, 53]",86281532,Ni1I2O6
BaCeEuNiO6,mp-1523236,0.0,4.0226393,0.2763382047500045,"{56: 1, 58: 1, 63: 1, 28: 1, 8: 6}","[8, 28, 56, 58, 63]",86281561581631,Ba1Ce1Eu1Ni1O6
BaNdNiBiO6,mp-1522954,0.32040000000000024,4.13168276,0.2152226190000004,"{56: 1, 60: 1, 28: 1, 83: 1, 8: 6}","[8, 28, 56, 60, 83]",86281561601831,Ba1Nd1Ni1Bi1O6
Ba2NiWO6,mp-504723,3.3409,2.74420824,0.0,"{56: 2, 28: 1, 74: 1, 8: 6}","[8, 28, 56, 74]",86281562741,Ba2Ni1W1O6
Ba2ReNiO6,mp-20286,0.0,4.86719572,0.033321185000008136,"{56: 2, 75: 1, 28: 1, 8: 6}","[8, 28, 56, 75]",86281562751,Ba2Re1Ni1O6
Ba2NiOsO6,mp-504568,0.0,4.03333289,0.0,"{56: 2, 28: 1, 76: 1, 8: 6}","[8, 28, 56, 76]",86281562761,Ba2Ni1Os1O6
Ba2UNiO6,mp-19093,1.6246,3.77002273,0.0,"{56: 2, 92: 1, 28: 1, 8: 6}","[8, 28, 56, 92]",86281562921,Ba2U1Ni1O6
La2HfNiO6,mp-1078675,2.043399999999999,7.01691022,0.1879936493749952,"{57: 2, 72: 1, 28: 1, 8: 6}","[8, 28, 57, 72]",86281572721,La2Hf1Ni1O6
La2NiWO6,mp-1205988,0.0,9.21341491,0.32141947649999913,"{57: 2, 28: 1, 74: 1, 8: 6}","[8, 28, 57, 74]",86281572741,La2Ni1W1O6
La2ReNiO6,mp-1078601,0.28259999999999863,9.05164629,0.2504285115000009,"{57: 2, 75: 1, 28: 1, 8: 6}","[8, 28, 57, 75]",86281572751,La2Re1Ni1O6
La2NiIrO6,mp-20964,0.0,7.22410143,0.005245425442313767,"{57: 2, 28: 1, 77: 1, 8: 6}","[8, 28, 57, 77]",86281572771,La2Ni1Ir1O6
Pr2NiPtO6,mp-1209764,1.8264000000000005,6.04661001,0.0,"{59: 2, 28: 1, 78: 1, 8: 6}","[8, 28, 59, 78]",86281592781,Pr2Ni1Pt1O6
Nd2NiPtO6,mp-1209936,1.8452000000000002,5.97687586,0.0,"{60: 2, 28: 1, 78: 1, 8: 6}","[8, 28, 60, 78]",86281602781,Nd2Ni1Pt1O6
Sm2NiPtO6,mp-1208922,1.6680999999999995,3.9432335,0.008608662562497038,"{62: 2, 28: 1, 78: 1, 8: 6}","[8, 28, 62, 78]",86281622781,Sm2Ni1Pt1O6
Eu2NiWO6,mp-1516887,0.4429999999999996,5.88550001,0.0826028081249941,"{63: 2, 28: 1, 74: 1, 8: 6}","[8, 28, 63, 74]",86281632741,Eu2Ni1W1O6
Eu2NiPtO6,mp-1212982,0.0,3.60048533,0.09929682925000627,"{63: 2, 28: 1, 78: 1, 8: 6}","[8, 28, 63, 78]",86281632781,Eu2Ni1Pt1O6
Eu2NiBiO6,mp-1517339,0.0,4.06026564,0.3573558091249964,"{63: 2, 28: 1, 83: 1, 8: 6}","[8, 28, 63, 83]",86281632831,Eu2Ni1Bi1O6
Gd2NiPtO6,mp-1212708,0.0,4.17042575,0.0,"{64: 2, 28: 1, 78: 1, 8: 6}","[8, 28, 64, 78]",86281642781,Gd2Ni1Pt1O6
Ta2NiO6,mp-32308,0.0,3.86398816,0.0,"{73: 2, 28: 1, 8: 6}","[8, 28, 73]",86281732,Ta2Ni1O6
NiPb2WO6,mp-1206631,2.7937000000000003,4.90237504,0.03839340290624893,"{28: 1, 82: 2, 74: 1, 8: 6}","[8, 28, 74, 82]",86281741822,Ni1Pb2W1O6
ReNi(PbO3)2,mp-1205510,0.0,6.84357601,0.0959654831093717,"{75: 1, 28: 1, 82: 2, 8: 6}","[8, 28, 75, 82]",86281751822,Re1Ni1Pb2O6
Re2NiO6,mp-1173437,0.0,4.73597797,0.08738470333333481,"{75: 2, 28: 1, 8: 6}","[8, 28, 75]",86281752,Re2Ni1O6
Ni(PtO2)3,mp-1272688,0.37400000000000055,5.32343435,0.0,"{28: 1, 78: 3, 8: 6}","[8, 28, 78]",86281783,Ni1Pt3O6
Ni(BiO3)2,mp-1101457,0.133,3.5200258,0.0,"{28: 1, 83: 2, 8: 6}","[8, 28, 83]",86281832,Ni1Bi2O6
U2NiO6,mp-540841,0.0,6.69045364,0.0365488655555648,"{92: 2, 28: 1, 8: 6}","[8, 28, 92]",86281922,U2Ni1O6
PrZn(NiO3)2,mp-1044787,0.0,3.39069651,0.13094362425000305,"{59: 1, 30: 1, 28: 2, 8: 6}","[8, 28, 30, 59]",86282301591,Pr1Zn1Ni2O6
HoZn(NiO3)2,mp-1041153,0.0,3.30646425,0.1169635360625012,"{67: 1, 30: 1, 28: 2, 8: 6}","[8, 28, 30, 67]",86282301671,Ho1Zn1Ni2O6
InNi2SbO6,mp-1078367,0.0,6.83653697,0.0,"{49: 1, 28: 2, 51: 1, 8: 6}","[8, 28, 49, 51]",86282491511,In1Ni2Sb1O6
BaTl(NiO3)2,mp-1046932,0.0,2.32634084,0.46945370779166584,"{56: 1, 81: 1, 28: 2, 8: 6}","[8, 28, 56, 81]",86282561811,Ba1Tl1Ni2O6
LaSm(NiO3)2,mp-1076325,0.0,6.06000282,0.08099660425000188,"{57: 1, 62: 1, 28: 2, 8: 6}","[8, 28, 57, 62]",86282571621,La1Sm1Ni2O6
La3(NiO3)2,mp-551749,0.0,6.60697785,0.20315218284090797,"{57: 3, 28: 2, 8: 6}","[8, 28, 57]",86282573,La3Ni2O6
Pr(NiO3)2,mp-1378393,0.0,1.74332992,0.31491897879629605,"{59: 1, 28: 2, 8: 6}","[8, 28, 59]",86282591,Pr1Ni2O6
Y(NiO2)3,mp-1045129,0.0,2.64433521,0.1429140838333387,"{39: 1, 28: 3, 8: 6}","[8, 28, 39]",86283391,Y1Ni3O6
Ni3TeO6,mp-19448,0.0,6.18059118,0.0,"{28: 3, 52: 1, 8: 6}","[8, 28, 52]",86283521,Ni3Te1O6
Zn(Ni2O3)2,mp-1043670,0.0,4.32834452,0.07689346318182011,"{30: 1, 28: 4, 8: 6}","[8, 28, 30]",86284301,Zn1Ni4O6
Ni5O6,mp-754806,0.0,4.57043271,0.04071467954545582,"{28: 5, 8: 6}","[8, 28]",86285,Ni5O6
Rb2MgNi2W2(OF)6,mp-2230239,2.2113,0.7684819,0.22312727210526262,"{37: 2, 12: 1, 28: 2, 74: 2, 8: 6, 9: 6}","[8, 9, 12, 28, 37, 74]",8696121282372742,Rb2Mg1Ni2W2O6F6
TiNi(OF)6,mp-1104830,0.4477000000000002,-2.41820521,0.8809984889285696,"{22: 1, 28: 1, 8: 6, 9: 6}","[8, 9, 22, 28]",8696221281,Ti1Ni1O6F6
ZrNi(OF)6,mp-1104005,0.0,-2.73341822,0.9316377217857132,"{40: 1, 28: 1, 8: 6, 9: 6}","[8, 9, 28, 40]",8696281401,Zr1Ni1O6F6
NiSn2(OF)6,mp-1210687,1.829,0.94513791,0.2748909893333291,"{28: 1, 50: 2, 8: 6, 9: 6}","[8, 9, 28, 50]",8696281502,Ni1Sn2O6F6
HfNi(OF)6,mp-1104428,0.7710000000000001,-1.88274757,0.8720821263095218,"{72: 1, 28: 1, 8: 6, 9: 6}","[8, 9, 28, 72]",8696281721,Hf1Ni1O6F6
Hf3Ni(OF)6,mp-1236837,0.0,-0.67078317,0.3405437427083333,"{72: 3, 28: 1, 8: 6, 9: 6}","[8, 9, 28, 72]",8696281723,Hf3Ni1O6F6
Ni3Sb4(OF)6,mp-1105117,3.04,2.60526871,0.0,"{28: 3, 51: 4, 8: 6, 9: 6}","[8, 9, 28, 51]",8696283514,Ni3Sb4O6F6
Na2Ni3O7,mp-776392,1.1134000000000002,1.89916108,0.07876097548610606,"{11: 2, 28: 3, 8: 7}","[8, 11, 28]",87112283,Na2Ni3O7
Na4Ni3O7,mp-753027,0.0,3.09404324,0.03696647934523778,"{11: 4, 28: 3, 8: 7}","[8, 11, 28]",87114283,Na4Ni3O7
MgNiP2O7,mp-1048259,3.9661,2.61457059,0.0011262817045532003,"{12: 1, 28: 1, 15: 2, 8: 7}","[8, 12, 15, 28]",87121152281,Mg1Ni1P2O7
MgCoNi2O7,mp-1335345,0.039300000000000335,2.52169743,0.5576331625126256,"{12: 1, 27: 1, 28: 2, 8: 7}","[8, 12, 27, 28]",87121271282,Mg1Co1Ni2O7
MgNiAs2O7,mp-1042817,2.6194000000000006,1.77079652,0.015062525909088187,"{12: 1, 28: 1, 33: 2, 8: 7}","[8, 12, 28, 33]",87121281332,Mg1Ni1As2O7
Mg3Ni2O7,mp-1374684,0.0,3.74619892,0.11528253409722211,"{12: 3, 28: 2, 8: 7}","[8, 12, 28]",87123282,Mg3Ni2O7
Sr2AlCu2NiO7,mp-1043524,0.0,3.56060882,0.14143755192308127,"{38: 2, 13: 1, 29: 2, 28: 1, 8: 7}","[8, 13, 28, 29, 38]",87131281292382,Sr2Al1Cu2Ni1O7
Sr2AlGaNi2O7,mp-1342473,1.5629,3.43147853,0.15828289248798288,"{38: 2, 13: 1, 31: 1, 28: 2, 8: 7}","[8, 13, 28, 31, 38]",87131282311382,Sr2Al1Ga1Ni2O7
Sr2YAlNi2O7,mp-1046808,0.5647000000000002,4.67147401,0.06493255862179304,"{38: 2, 39: 1, 13: 1, 28: 2, 8: 7}","[8, 13, 28, 38, 39]",87131282382391,Sr2Y1Al1Ni2O7
Ba2AlTlNi2O7,mp-1048433,0.0,4.07199402,0.40333426652242466,"{56: 2, 13: 1, 81: 1, 28: 2, 8: 7}","[8, 13, 28, 56, 81]",87131282562811,Ba2Al1Tl1Ni2O7
Ba2AlNi3O7,mp-1048483,0.0,4.23738285,0.35862263891025226,"{56: 2, 13: 1, 28: 3, 8: 7}","[8, 13, 28, 56]",87131283562,Ba2Al1Ni3O7
BaAlNi4O7,mp-1048397,0.41500000000000004,4.02272382,0.2423595847115294,"{56: 1, 13: 1, 28: 4, 8: 7}","[8, 13, 28, 56]",87131284561,Ba1Al1Ni4O7
Al2Ni2O7,mp-1248873,1.0073000000000008,6.77913467,0.3250181424311265,"{13: 2, 28: 2, 8: 7}","[8, 13, 28]",87132282,Al2Ni2O7
K2NiP2O7,mp-567227,3.4002999999999997,0.94790954,0.06659604135416952,"{19: 2, 28: 1, 15: 2, 8: 7}","[8, 15, 19, 28]",87152192281,K2Ni1P2O7
CaNiP2O7,mp-19057,3.5149,2.64050062,0.005501439924242568,"{20: 1, 28: 1, 15: 2, 8: 7}","[8, 15, 20, 28]",87152201281,Ca1Ni1P2O7
MnNiP2O7,mp-1221356,3.0287999999999995,3.68184276,0.002260511249994046,"{25: 1, 28: 1, 15: 2, 8: 7}","[8, 15, 25, 28]",87152251281,Mn1Ni1P2O7
NiP2O7,mp-26212,0.3021999999999998,1.78224537,0.14521713974998907,"{28: 1, 15: 2, 8: 7}","[8, 15, 28]",87152281,Ni1P2O7
ZnNiP2O7,mp-1048278,3.867,2.43690318,0.008185727443181356,"{30: 1, 28: 1, 15: 2, 8: 7}","[8, 15, 28, 30]",87152281301,Zn1Ni1P2O7
SrNiP2O7,mp-17551,3.2356,1.7841986,0.0,"{38: 1, 28: 1, 15: 2, 8: 7}","[8, 15, 28, 38]",87152281381,Sr1Ni1P2O7
BaNiP2O7,mp-1214404,3.3322000000000003,1.91042256,0.0,"{56: 1, 28: 1, 15: 2, 8: 7}","[8, 15, 28, 56]",87152281561,Ba1Ni1P2O7
Ni2P2O7,mp-554705,1.5586999999999995,3.63279128,0.0,"{28: 2, 15: 2, 8: 7}","[8, 15, 28]",87152282,Ni2P2O7
YNiSO7,mp-1201284,0.027000000000000024,0.63654129,0.19992552769445204,"{39: 1, 28: 1, 16: 1, 8: 7}","[8, 16, 28, 39]",87161281391,Y1Ni1S1O7
SrNb2NiClO7,mp-1232351,0.0,0.53240949,0.1407932055555472,"{38: 1, 41: 2, 28: 1, 17: 1, 8: 7}","[8, 17, 28, 38, 41]",87171281381412,Sr1Nb2Ni1Cl1O7
K9Ni2O7,mp-13749,0.5044,2.24865625,0.0,"{19: 9, 28: 2, 8: 7}","[8, 19, 28]",87199282,K9Ni2O7
CaCoNi2O7,mp-1336407,0.0,1.92856268,0.2555034036489934,"{20: 1, 27: 1, 28: 2, 8: 7}","[8, 20, 27, 28]",87201271282,Ca1Co1Ni2O7
CaNiAs2O7,mp-1042887,2.3902,1.55661977,0.020264686515151453,"{20: 1, 28: 1, 33: 2, 8: 7}","[8, 20, 28, 33]",87201281332,Ca1Ni1As2O7
CaNi3O7,mp-1350993,0.0,0.49587277,0.30314664424242554,"{20: 1, 28: 3, 8: 7}","[8, 20, 28]",87201283,Ca1Ni3O7
Ca3Ni2O7,mp-1370002,0.0,2.85432692,0.03768655104166374,"{20: 3, 28: 2, 8: 7}","[8, 20, 28]",87203282,Ca3Ni2O7
V2NiO7,mp-818255,0.45399999999999996,-0.86983046,0.19576998075000152,"{23: 2, 28: 1, 8: 7}","[8, 23, 28]",87232281,V2Ni1O7
V2Ni2O7,mp-27157,2.1782000000000004,4.22005461,0.0037628650000023356,"{23: 2, 28: 2, 8: 7}","[8, 23, 28]",87232282,V2Ni2O7
ZnCoNi2O7,mp-1334735,0.0,2.09781607,0.5945721832137139,"{30: 1, 27: 1, 28: 2, 8: 7}","[8, 27, 28, 30]",87271282301,Zn1Co1Ni2O7
Sr2Cu2NiO7,mp-1044112,0.0,1.54380467,0.1499905122222227,"{38: 2, 29: 2, 28: 1, 8: 7}","[8, 28, 29, 38]",87281292382,Sr2Cu2Ni1O7
Sr2YCu2NiO7,mp-1042702,0.0,3.40543686,0.08025770060896864,"{38: 2, 39: 1, 29: 2, 28: 1, 8: 7}","[8, 28, 29, 38, 39]",87281292382391,Sr2Y1Cu2Ni1O7
ZnNiAs2O7,mp-1042795,2.0656999999999996,1.4683882,0.027082032954548474,"{30: 1, 28: 1, 33: 2, 8: 7}","[8, 28, 30, 33]",87281301332,Zn1Ni1As2O7
NiAs2O7,mp-1042747,0.6749,0.41158417,0.3266780379999954,"{28: 1, 33: 2, 8: 7}","[8, 28, 33]",87281332,Ni1As2O7
Ba2ErCuNi2O7,mp-1214712,0.0,3.00488311,0.04623677230769552,"{56: 2, 68: 1, 29: 1, 28: 2, 8: 7}","[8, 28, 29, 56, 68]",87282291562681,Ba2Er1Cu1Ni2O7
Sr2GaNi2O7,mp-1043888,0.0,1.0637054,0.24215892312500653,"{38: 2, 31: 1, 28: 2, 8: 7}","[8, 28, 31, 38]",87282311382,Sr2Ga1Ni2O7
Sr2YGaNi2O7,mp-1046143,0.5754999999999999,4.24328452,0.061775729374998534,"{38: 2, 39: 1, 31: 1, 28: 2, 8: 7}","[8, 28, 31, 38, 39]",87282311382391,Sr2Y1Ga1Ni2O7
Ni2As2O7,mp-1199861,0.18130000000000024,3.21665854,0.025030479772722103,"{28: 2, 33: 2, 8: 7}","[8, 28, 33]",87282332,Ni2As2O7
Sr2YNi2O7,mp-1047522,0.0,2.38134715,0.19640499776040699,"{38: 2, 39: 1, 28: 2, 8: 7}","[8, 28, 38, 39]",87282382391,Sr2Y1Ni2O7
Sr2YTlNi2O7,mp-1046045,0.0,4.4036629,0.07609723514423017,"{38: 2, 39: 1, 81: 1, 28: 2, 8: 7}","[8, 28, 38, 39, 81]",87282382391811,Sr2Y1Tl1Ni2O7
Sr2Y2Ni2O7,mp-1048742,0.38339999999999996,4.93507167,0.10706795182692286,"{38: 2, 39: 2, 28: 2, 8: 7}","[8, 28, 38, 39]",87282382392,Sr2Y2Ni2O7
Ba2YTlNi2O7,mp-1046397,0.25709999999999944,4.23196335,0.1210957887500026,"{56: 2, 39: 1, 81: 1, 28: 2, 8: 7}","[8, 28, 39, 56, 81]",87282391562811,Ba2Y1Tl1Ni2O7
Y2Ni2O7,mp-1346622,0.0,3.20535176,0.06094773613636306,"{39: 2, 28: 2, 8: 7}","[8, 28, 39]",87282392,Y2Ni2O7
Ni2Sb2O7,mp-1190650,1.0252999999999997,4.37326507,0.31361355681818015,"{28: 2, 51: 2, 8: 7}","[8, 28, 51]",87282512,Ni2Sb2O7
Ba2TlNi2O7,mp-1411498,0.0,1.91259493,0.37228463864583095,"{56: 2, 81: 1, 28: 2, 8: 7}","[8, 28, 56, 81]",87282562811,Ba2Tl1Ni2O7
La3Ni2O7,mp-18926,0.0,7.05805045,0.024150153125012785,"{57: 3, 28: 2, 8: 7}","[8, 28, 57]",87282573,La3Ni2O7
ZnNi3O7,mp-1044386,0.0,0.89504863,0.4088181024242443,"{30: 1, 28: 3, 8: 7}","[8, 28, 30]",87283301,Zn1Ni3O7
Ba2YNi3O7,mp-1048426,0.0,3.53560318,0.054120005769225266,"{56: 2, 39: 1, 28: 3, 8: 7}","[8, 28, 39, 56]",87283391562,Ba2Y1Ni3O7
Ba2Ni3O7,mp-1048554,0.0,1.29156972,0.4309506137500039,"{56: 2, 28: 3, 8: 7}","[8, 28, 56]",87283562,Ba2Ni3O7
BaYNi4O7,mp-1048406,0.0,2.91572291,0.1658407346153803,"{56: 1, 39: 1, 28: 4, 8: 7}","[8, 28, 39, 56]",87284391561,Ba1Y1Ni4O7
BaNi4O7,mp-1048486,0.9855999999999998,1.55092533,0.31831067458333706,"{56: 1, 28: 4, 8: 7}","[8, 28, 56]",87284561,Ba1Ni4O7
Ni5O7,mp-1046095,0.0,3.71988297,0.1923447850694444,"{28: 5, 8: 7}","[8, 28]",87285,Ni5O7
Ni6O7,mp-766450,0.0,4.98330672,0.04711368769230884,"{28: 6, 8: 7}","[8, 28]",87286,Ni6O7
Na4NiP2O7F2,mp-1194870,4.258,0.77817088,0.0,"{11: 4, 28: 1, 15: 2, 8: 7, 9: 2}","[8, 9, 11, 15, 28]",8792114152281,Na4Ni1P2O7F2
NaNi3O8,mp-1102157,0.0,1.5154334,0.4154265572222213,"{11: 1, 28: 3, 8: 8}","[8, 11, 28]",88111283,Na1Ni3O8
Na3Ni5O8,mp-759953,0.0,4.40283419,0.04183909765624971,"{11: 3, 28: 5, 8: 8}","[8, 11, 28]",88113285,Na3Ni5O8
Na8Mg(NiO4)2,mp-2231589,1.3729,1.43013009,0.07214000483552763,"{11: 8, 12: 1, 28: 2, 8: 8}","[8, 11, 12, 28]",88118121282,Na8Mg1Ni2O8
SrMgNi(PO4)2,mp-1046412,3.9873,2.41520142,0.009859213269235667,"{38: 1, 12: 1, 28: 1, 15: 2, 8: 8}","[8, 12, 15, 28, 38]",88121152281381,Sr1Mg1Ni1P2O8
MgNi2(PO4)2,mp-1041075,3.1186,2.74897678,0.05471686532051301,"{12: 1, 28: 2, 15: 2, 8: 8}","[8, 12, 15, 28]",88121152282,Mg1Ni2P2O8
MgV3NiO8,mp-2224276,0.0,3.37849265,0.22440729346152555,"{12: 1, 23: 3, 28: 1, 8: 8}","[8, 12, 23, 28]",88121233281,Mg1V3Ni1O8
MgCr2(NiO4)2,mp-2218395,0.7668999999999997,2.58926555,0.1843455205128235,"{12: 1, 24: 2, 28: 2, 8: 8}","[8, 12, 24, 28]",88121242282,Mg1Cr2Ni2O8
MgMn(Ni3O4)2,mp-2233064,1.5885999999999996,6.01214396,0.1295183831250002,"{12: 1, 25: 1, 28: 6, 8: 8}","[8, 12, 25, 28]",88121251286,Mg1Mn1Ni6O8
MgMn3NiO8,mp-2226836,1.5339999999999998,1.8594541,0.049857935544877385,"{12: 1, 25: 3, 28: 1, 8: 8}","[8, 12, 25, 28]",88121253281,Mg1Mn3Ni1O8