formula,material_id,band_gap,efermi,energy_above_hull,comp_atoms,sorted_keys_comp_atoms,comp_number,new_formula
Li7Fe3Ni(PO4)6,mp-775193,2.0628,1.35097741,0.05142476402438678,"{3: 7, 26: 3, 28: 1, 15: 6, 8: 24}","[3, 8, 15, 26, 28]",37824156263281,Li7Fe3Ni1P6O24
Li8FeNi9O20,mp-759197,0.0,3.24584496,0.023375761726969202,"{3: 8, 26: 1, 28: 9, 8: 20}","[3, 8, 26, 28]",38820261289,Li8Fe1Ni9O20
Li8Fe3Ni7O20,mp-759370,0.0,2.85847007,0.022715545838820184,"{3: 8, 26: 3, 28: 7, 8: 20}","[3, 8, 26, 28]",38820263287,Li8Fe3Ni7O20
Li8Fe7Ni(PO4)12,mp-780776,0.0,0.45656246,0.033516407532896864,"{3: 8, 26: 7, 28: 1, 15: 12, 8: 48}","[3, 8, 15, 26, 28]",388481512267281,Li8Fe7Ni1P12O48
Li9Y(NiO4)2,mp-776467,2.3789000000000002,3.96114393,0.0876499413749956,"{3: 9, 39: 1, 28: 2, 8: 8}","[3, 8, 28, 39]",3988282391,Li9Y1Ni2O8
BeSiNi2,mp-865792,0.0,9.78862061,0.0,"{4: 1, 14: 1, 28: 2}","[4, 14, 28]",41141282,Be1Si1Ni2
TiBeNi2,mp-1095832,0.24219999999999997,-2.74783766,2.9399771074999994,"{22: 1, 4: 1, 28: 2}","[4, 22, 28]",41221282,Ti1Be1Ni2
BeNi,mp-1033,0.0,7.20320726,0.0,"{4: 1, 28: 1}","[4, 28]",41281,Be1Ni1
BeNi3,mp-984717,0.0,7.39602725,0.07291103249999953,"{4: 1, 28: 3}","[4, 28]",41283,Be1Ni3
Zr6Be15Ni8,mp-1207425,0.0,4.93313437,0.0,"{40: 6, 4: 15, 28: 8}","[4, 28, 40]",415288406,Zr6Be15Ni8
Be15(Nb3Ni4)2,mp-1214229,0.0,5.53829955,0.0,"{4: 15, 41: 6, 28: 8}","[4, 28, 41]",415288416,Be15Nb6Ni8
Hf6Be15Ni8,mp-1212450,0.0,5.35036744,0.0,"{72: 6, 4: 15, 28: 8}","[4, 28, 72]",415288726,Hf6Be15Ni8
Ta6Be15Ni8,mp-1208343,0.0,5.89773207,0.0,"{73: 6, 4: 15, 28: 8}","[4, 28, 73]",415288736,Ta6Be15Ni8
Rb2BeNi2F14,mp-1212801,0.0,-4.17293031,0.21520036692982458,"{37: 2, 4: 1, 28: 2, 9: 14}","[4, 9, 28, 37]",41914282372,Rb2Be1Ni2F14
Be2CoNi,mp-867271,0.0,6.23023685,0.0,"{4: 2, 27: 1, 28: 1}","[4, 27, 28]",42271281,Be2Co1Ni1
Be2CuNi,mp-1097651,0.0,-3.63845297,2.526738086250001,"{4: 2, 29: 1, 28: 1}","[4, 28, 29]",42281291,Be2Cu1Ni1
Be2NiRu,mp-1183421,0.0,6.20711784,0.004523848750000781,"{4: 2, 28: 1, 44: 1}","[4, 28, 44]",42281441,Be2Ni1Ru1
Be2NiRh,mp-864895,0.0,6.58383362,0.0,"{4: 2, 28: 1, 45: 1}","[4, 28, 45]",42281451,Be2Ni1Rh1
Be2NiPd,mp-1097522,0.0,-3.52623678,2.6773104000000005,"{4: 2, 28: 1, 46: 1}","[4, 28, 46]",42281461,Be2Ni1Pd1
Be2NiIr,mp-865229,0.0,7.67934514,0.0,"{4: 2, 28: 1, 77: 1}","[4, 28, 77]",42281771,Be2Ni1Ir1
Be2NiPt,mp-866224,0.0,7.28702834,0.0,"{4: 2, 28: 1, 78: 1}","[4, 28, 78]",42281781,Be2Ni1Pt1
Be2NiN2(O3F4)2,mp-1237097,0.4171,-2.94304731,0.5537913975767577,"{4: 2, 28: 1, 7: 2, 8: 6, 9: 8}","[4, 7, 8, 9, 28]",42728698281,Be2Ni1N2O6F8
Be2Ni(NF7)2,mp-1215141,1.0334000000000003,-3.33587348,0.25419086815789527,"{4: 2, 28: 1, 7: 2, 9: 14}","[4, 7, 9, 28]",4272914281,Be2Ni1N2F14
K2Be2Ni(O3F4)2,mp-1200199,0.5479000000000003,-2.3025712,0.60071972236842,"{19: 2, 4: 2, 28: 1, 8: 6, 9: 8}","[4, 8, 9, 19, 28]",428698192281,K2Be2Ni1O6F8
Rb2Be2Ni(O3F4)2,mp-1209878,0.2432000000000003,-2.67695778,0.6119909289473684,"{37: 2, 4: 2, 28: 1, 8: 6, 9: 8}","[4, 8, 9, 28, 37]",428698281372,Rb2Be2Ni1O6F8
Be2Tl2Ni(O3F4)2,mp-1214791,1.0590000000000002,-1.31393336,0.2669571306140366,"{4: 2, 81: 2, 28: 1, 8: 6, 9: 8}","[4, 8, 9, 28, 81]",428698281812,Be2Tl2Ni1O6F8
Be3Ni,mp-865168,0.0,5.5595627,0.0,"{4: 3, 28: 1}","[4, 28]",43281,Be3Ni1
Be3Si3(NiO6)2,mp-1048097,0.0,1.88817541,0.13568118754166036,"{4: 3, 14: 3, 28: 2, 8: 12}","[4, 8, 14, 28]",43812143282,Be3Si3Ni2O12
K2Be3Ni2F12,mp-1212188,6.1124,-1.80930402,0.001690231140348608,"{19: 2, 4: 3, 28: 2, 9: 12}","[4, 9, 19, 28]",43912192282,K2Be3Ni2F12
Rb2Be3Ni2F12,mp-1209719,6.149,-1.92366547,0.0,"{37: 2, 4: 3, 28: 2, 9: 12}","[4, 9, 28, 37]",43912282372,Rb2Be3Ni2F12
Be3Tl2Ni2F12,mp-1214337,5.4318,-0.57227161,0.0,"{4: 3, 81: 2, 28: 2, 9: 12}","[4, 9, 28, 81]",43912282812,Be3Tl2Ni2F12
Be4AlNi,mp-1227279,0.0,7.41226905,0.0,"{4: 4, 13: 1, 28: 1}","[4, 13, 28]",44131281,Be4Al1Ni1
Be4SiNi,mp-1227282,0.0,8.01951075,0.0732047274999994,"{4: 4, 14: 1, 28: 1}","[4, 14, 28]",44141281,Be4Si1Ni1
Be4NiGe,mp-1227295,0.0,7.06936652,0.165044215,"{4: 4, 28: 1, 32: 1}","[4, 28, 32]",44281321,Be4Ni1Ge1
Y2NiB10,mp-1207701,0.0,6.37663633,0.0,"{39: 2, 28: 1, 5: 10}","[5, 28, 39]",510281392,Y2Ni1B10
Ce2NiB10,mp-21169,0.0,8.32256215,0.0,"{58: 2, 28: 1, 5: 10}","[5, 28, 58]",510281582,Ce2Ni1B10
Pr2NiB10,mp-1209651,0.0,6.34652018,0.0,"{59: 2, 28: 1, 5: 10}","[5, 28, 59]",510281592,Pr2Ni1B10
Nd2NiB10,mp-22471,0.0,6.13821354,0.0,"{60: 2, 28: 1, 5: 10}","[5, 28, 60]",510281602,Nd2Ni1B10
Sm2NiB10,mp-1208882,0.0,6.22045501,0.0,"{62: 2, 28: 1, 5: 10}","[5, 28, 62]",510281622,Sm2Ni1B10
Gd2NiB10,mp-1212642,0.0,5.92146443,0.0,"{64: 2, 28: 1, 5: 10}","[5, 28, 64]",510281642,Gd2Ni1B10
Tb2NiB10,mp-1208523,0.0,6.31907102,0.0,"{65: 2, 28: 1, 5: 10}","[5, 28, 65]",510281652,Tb2Ni1B10
Dy2NiB10,mp-1213050,0.0,6.2848406,0.0,"{66: 2, 28: 1, 5: 10}","[5, 28, 66]",510281662,Dy2Ni1B10
Ho2NiB10,mp-1212324,0.0,6.2856517,0.005325419489180305,"{67: 2, 28: 1, 5: 10}","[5, 28, 67]",510281672,Ho2Ni1B10
Th2NiB10,mp-20109,0.0,8.56366987,0.0,"{90: 2, 28: 1, 5: 10}","[5, 28, 90]",510281902,Th2Ni1B10
Y3Ni19B10,mp-1199550,0.0,7.76053573,0.010366880931498734,"{39: 3, 28: 19, 5: 10}","[5, 28, 39]",5102819393,Y3Ni19B10
Gd3Ni19B10,mp-866774,0.0,7.75116946,0.01627791369495757,"{64: 3, 28: 19, 5: 10}","[5, 28, 64]",5102819643,Gd3Ni19B10
Tb3Ni19B10,mp-1197368,0.0,7.68725114,0.011141990324525786,"{65: 3, 28: 19, 5: 10}","[5, 28, 65]",5102819653,Tb3Ni19B10
Dy3Ni19B10,mp-1197227,0.0,7.7839701,0.008812708571434236,"{66: 3, 28: 19, 5: 10}","[5, 28, 66]",5102819663,Dy3Ni19B10
Ho3Ni19B10,mp-28151,0.0,7.6754553,0.15743114431640493,"{67: 3, 28: 19, 5: 10}","[5, 28, 67]",5102819673,Ho3Ni19B10
Er3Ni19B10,mp-1201895,0.0,7.7370212,0.0013586714488624807,"{68: 3, 28: 19, 5: 10}","[5, 28, 68]",5102819683,Er3Ni19B10
Tb4YNi10(B2C)5,mp-1217659,0.0,6.5876984,0.007148895999998572,"{65: 4, 39: 1, 28: 10, 5: 10, 6: 5}","[5, 6, 28, 39, 65]",510652810391654,Tb4Y1Ni10B10C5
Er4LuNi10(B2C)5,mp-1225907,0.0,6.69158912,0.008186062333334299,"{68: 4, 71: 1, 28: 10, 5: 10, 6: 5}","[5, 6, 28, 68, 71]",510652810684711,Er4Lu1Ni10B10C5
MgNi3B,mp-1206415,0.0,6.60567163,0.0432989271553037,"{12: 1, 28: 3, 5: 1}","[5, 12, 28]",51121283,Mg1Ni3B1
Mg14NiB,mp-1028354,0.0,3.53706099,0.2141738577951391,"{12: 14, 28: 1, 5: 1}","[5, 12, 28]",511214281,Mg14Ni1B1
Mg6NiB,mp-1099294,0.0,3.65206783,0.23556835059027792,"{12: 6, 28: 1, 5: 1}","[5, 12, 28]",51126281,Mg6Ni1B1
Si2Ni6B,mp-4720,0.0,9.20695726,0.0,"{14: 2, 28: 6, 5: 1}","[5, 14, 28]",51142286,Si2Ni6B1
CaNi4B,mp-8307,0.0,6.14688479,0.0,"{20: 1, 28: 4, 5: 1}","[5, 20, 28]",51201284,Ca1Ni4B1
Al5Ni41B12,mp-1228559,0.0,8.42075222,0.0004890425861976411,"{13: 5, 28: 41, 5: 12}","[5, 13, 28]",5121352841,Al5Ni41B12
Ta3V3(Ni10B3)4,mp-1218307,0.0,8.19502513,0.007888065422112511,"{73: 3, 23: 3, 28: 40, 5: 12}","[5, 23, 28, 73]",5122332840733,Ta3V3Ni40B12
NiB12,mp-1104127,0.0,5.44210597,0.29440814658653913,"{28: 1, 5: 12}","[5, 28]",512281,Ni1B12
Nb5Ni41B12,mp-1220806,0.0,8.10086578,0.0016493205172398717,"{41: 5, 28: 41, 5: 12}","[5, 28, 41]",5122841415,Nb5Ni41B12
Ni43(GeB4)3,mp-1220773,0.0,8.07936873,0.011472416896545212,"{28: 43, 32: 3, 5: 12}","[5, 28, 32]",5122843323,Ni43Ge3B12
FeNiB,mp-1224960,0.0,7.95963575,0.053248711388887315,"{26: 1, 28: 1, 5: 1}","[5, 26, 28]",51261281,Fe1Ni1B1
Fe2NiB,mp-1105860,0.0,7.17385218,0.04819584187499881,"{26: 2, 28: 1, 5: 1}","[5, 26, 28]",51262281,Fe2Ni1B1
SmFe2Ni2B,mp-1219126,0.0,5.57481742,0.6344733575000001,"{62: 1, 26: 2, 28: 2, 5: 1}","[5, 26, 28, 62]",51262282621,Sm1Fe2Ni2B1
GdCoNi3B,mp-1102353,0.0,6.10276618,0.9103207606666635,"{64: 1, 27: 1, 28: 3, 5: 1}","[5, 27, 28, 64]",51271283641,Gd1Co1Ni3B1
GdCo2Ni2B,mp-1225353,0.0,5.59869343,0.022984317166667267,"{64: 1, 27: 2, 28: 2, 5: 1}","[5, 27, 28, 64]",51272282641,Gd1Co2Ni2B1
SmCo3NiB,mp-1103082,0.0,5.42283835,0.3309636347618987,"{62: 1, 27: 3, 28: 1, 5: 1}","[5, 27, 28, 62]",51273281621,Sm1Co3Ni1B1
NiB,mp-14019,0.0,9.34900673,0.0018463106250017347,"{28: 1, 5: 1}","[5, 28]",51281,Ni1B1
NbNiB,mp-9985,0.0,6.84558963,0.004139907988504277,"{41: 1, 28: 1, 5: 1}","[5, 28, 41]",51281411,Nb1Ni1B1
NiBTe,mp-631540,0.0,8.5929363,0.932724487881945,"{28: 1, 5: 1, 52: 1}","[5, 28, 52]",51281521,Ni1B1Te1
TaNiB,mp-1076987,0.0,7.32545797,0.0036753742816131307,"{73: 1, 28: 1, 5: 1}","[5, 28, 73]",51281731,Ta1Ni1B1
NiBiB,mp-631538,0.0,7.38675086,1.0101724454861118,"{28: 1, 83: 1, 5: 1}","[5, 28, 83]",51281831,Ni1Bi1B1
Ni2B,mp-2536,0.0,8.79724342,0.0,"{28: 2, 5: 1}","[5, 28]",51282,Ni2B1
Na2Ni2(B4O7)3,mp-704915,3.5425000000000004,1.33299544,0.0,"{11: 2, 28: 2, 5: 12, 8: 21}","[5, 8, 11, 28]",512821112282,Na2Ni2B12O21
Ni3B,mp-2058,0.0,8.20622743,0.0,"{28: 3, 5: 1}","[5, 28]",51283,Ni3B1
LaNi3B,mp-1205795,0.0,8.10757474,0.0,"{57: 1, 28: 3, 5: 1}","[5, 28, 57]",51283571,La1Ni3B1
YNi4B,mp-7559,0.0,6.73267423,0.0,"{39: 1, 28: 4, 5: 1}","[5, 28, 39]",51284391,Y1Ni4B1
LaNi4B,mp-4634,0.0,8.71276714,0.0,"{57: 1, 28: 4, 5: 1}","[5, 28, 57]",51284571,La1Ni4B1
CeNi4B,mp-1095459,0.0,8.49498204,0.0,"{58: 1, 28: 4, 5: 1}","[5, 28, 58]",51284581,Ce1Ni4B1
PrNi4B,mp-1101772,0.0,6.67804133,0.0,"{59: 1, 28: 4, 5: 1}","[5, 28, 59]",51284591,Pr1Ni4B1
NdNi4B,mp-8048,0.0,6.70389057,0.0,"{60: 1, 28: 4, 5: 1}","[5, 28, 60]",51284601,Nd1Ni4B1
SmNi4B,mp-1102220,0.0,6.42890003,0.899428706024306,"{62: 1, 28: 4, 5: 1}","[5, 28, 62]",51284621,Sm1Ni4B1
EuNi4B,mp-1103796,0.0,6.19228458,0.0,"{63: 1, 28: 4, 5: 1}","[5, 28, 63]",51284631,Eu1Ni4B1
GdNi4B,mp-1102948,0.0,6.49740355,0.0,"{64: 1, 28: 4, 5: 1}","[5, 28, 64]",51284641,Gd1Ni4B1
TbNi4B,mp-12964,0.0,6.7066691,0.0,"{65: 1, 28: 4, 5: 1}","[5, 28, 65]",51284651,Tb1Ni4B1
DyNi4B,mp-1102346,0.0,6.65367865,0.0,"{66: 1, 28: 4, 5: 1}","[5, 28, 66]",51284661,Dy1Ni4B1
HoNi4B,mp-10398,0.0,6.41000025,0.0,"{67: 1, 28: 4, 5: 1}","[5, 28, 67]",51284671,Ho1Ni4B1
ErNi4B,mp-12965,0.0,6.67137683,0.0,"{68: 1, 28: 4, 5: 1}","[5, 28, 68]",51284681,Er1Ni4B1
TmNi4B,mp-10129,0.0,6.6546835,0.0,"{69: 1, 28: 4, 5: 1}","[5, 28, 69]",51284691,Tm1Ni4B1
LuNi4B,mp-1101842,0.0,6.56366389,0.0,"{71: 1, 28: 4, 5: 1}","[5, 28, 71]",51284711,Lu1Ni4B1
Ni6Ge2B,mp-1078540,0.0,8.41618002,0.0,"{28: 6, 32: 2, 5: 1}","[5, 28, 32]",51286322,Ni6Ge2B1
In2Ni7B,mp-1224457,0.0,7.21184577,0.4762423098333315,"{49: 2, 28: 7, 5: 1}","[5, 28, 49]",51287492,In2Ni7B1
Y4NiB13,mp-1201729,0.0,5.99812819,0.1204294904166705,"{39: 4, 28: 1, 5: 13}","[5, 28, 39]",513281394,Y4Ni1B13
Gd4NiB13,mp-1197241,0.0,5.70335736,0.15680409211806534,"{64: 4, 28: 1, 5: 13}","[5, 28, 64]",513281644,Gd4Ni1B13
Tb4NiB13,mp-1202802,0.0,5.88814373,0.13107590936728286,"{65: 4, 28: 1, 5: 13}","[5, 28, 65]",513281654,Tb4Ni1B13
Dy4NiB13,mp-1203435,0.0,5.93372425,0.11373582263889137,"{66: 4, 28: 1, 5: 13}","[5, 28, 66]",513281664,Dy4Ni1B13
Ho4NiB13,mp-1202173,0.0,5.89492508,0.13377619683334885,"{67: 4, 28: 1, 5: 13}","[5, 28, 67]",513281674,Ho4Ni1B13
Er4NiB13,mp-504627,0.0,5.95049205,0.09200707902778138,"{68: 4, 28: 1, 5: 13}","[5, 28, 68]",513281684,Er4Ni1B13
Tm4NiB13,mp-1203068,0.0,5.99350715,0.08231826335648407,"{69: 4, 28: 1, 5: 13}","[5, 28, 69]",513281694,Tm4Ni1B13
Lu4NiB13,mp-1200891,0.0,5.99443262,0.06976270826389008,"{71: 4, 28: 1, 5: 13}","[5, 28, 71]",513281714,Lu4Ni1B13
Al(Ni10B7)2,mp-505473,0.0,8.92607076,0.029769778000000358,"{13: 1, 28: 20, 5: 14}","[5, 13, 28]",5141312820,Al1Ni20B14
Ho4NiB14,mp-505720,0.0,5.92507505,0.0,"{67: 4, 28: 1, 5: 14}","[5, 28, 67]",514281674,Ho4Ni1B14
Ga3Ni27B14,mp-1204832,0.0,8.29070178,0.0,"{31: 3, 28: 27, 5: 14}","[5, 28, 31]",5142827313,Ga3Ni27B14
YNiBC,mp-612670,0.0,5.61123797,0.0,"{39: 1, 28: 1, 5: 1, 6: 1}","[5, 6, 28, 39]",5161281391,Y1Ni1B1C1
TbNiBC,mp-1079626,0.0,5.50462762,0.0,"{65: 1, 28: 1, 5: 1, 6: 1}","[5, 6, 28, 65]",5161281651,Tb1Ni1B1C1
ErNiBC,mp-1078704,0.0,5.44393278,0.0,"{68: 1, 28: 1, 5: 1, 6: 1}","[5, 6, 28, 68]",5161281681,Er1Ni1B1C1
LuNiBC,mp-6188,0.0,5.43717201,0.0,"{71: 1, 28: 1, 5: 1, 6: 1}","[5, 6, 28, 71]",5161281711,Lu1Ni1B1C1
CaNiBN,mp-1079500,0.0,5.61328533,0.0,"{20: 1, 28: 1, 5: 1, 7: 1}","[5, 7, 20, 28]",5171201281,Ca1Ni1B1N1
LaNiBN,mp-20881,0.0,9.07839878,0.0,"{57: 1, 28: 1, 5: 1, 7: 1}","[5, 7, 28, 57]",5171281571,La1Ni1B1N1
Ni2BiB(PO5)2,mp-1196616,3.5479,3.63866021,0.008005835416665441,"{28: 2, 83: 1, 5: 1, 15: 2, 8: 10}","[5, 8, 15, 28, 83]",51810152282831,Ni2Bi1B1P2O10
NaNiBP2O11,mp-1211194,0.042100000000000026,0.38835872,0.3636241824340267,"{11: 1, 28: 1, 5: 1, 15: 2, 8: 11}","[5, 8, 11, 15, 28]",51811111152281,Na1Ni1B1P2O11
Zr8Ni61B18,mp-1216773,0.000700000000000145,7.8643693,0.017144168735655718,"{40: 8, 28: 61, 5: 18}","[5, 28, 40]",5182861408,Zr8Ni61B18
NaNiBO3,mp-755942,3.3028999999999997,3.13246657,0.05274862749999887,"{11: 1, 28: 1, 5: 1, 8: 3}","[5, 8, 11, 28]",5183111281,Na1Ni1B1O3
ScNiBO4,mp-1219308,0.0,4.71495951,0.00853202428571187,"{21: 1, 28: 1, 5: 1, 8: 4}","[5, 8, 21, 28]",5184211281,Sc1Ni1B1O4
AlNi2BO5,mp-1214877,3.621100000000001,4.82052065,0.0,"{13: 1, 28: 2, 5: 1, 8: 5}","[5, 8, 13, 28]",5185131282,Al1Ni2B1O5
CrNi2BO5,mp-1213761,2.7366,4.0602231,0.0,"{24: 1, 28: 2, 5: 1, 8: 5}","[5, 8, 24, 28]",5185241282,Cr1Ni2B1O5
FeNi2BO5,mp-21522,1.6665,4.01018031,0.0,"{26: 1, 28: 2, 5: 1, 8: 5}","[5, 8, 26, 28]",5185261282,Fe1Ni2B1O5
GaNi2BO5,mp-505076,3.0727999999999995,3.8989841,0.0,"{31: 1, 28: 2, 5: 1, 8: 5}","[5, 8, 28, 31]",5185282311,Ga1Ni2B1O5
Ni3BO5,mp-1210020,0.0,4.13390893,0.0,"{28: 3, 5: 1, 8: 5}","[5, 8, 28]",5185283,Ni3B1O5
NiBPO6,mp-1199032,0.08999999999999986,1.0334201,0.20116242404320595,"{28: 1, 5: 1, 15: 1, 8: 6}","[5, 8, 15, 28]",5186151281,Ni1B1P1O6
NbNi2BO6,mp-21600,2.4549000000000003,3.40024995,0.0,"{41: 1, 28: 2, 5: 1, 8: 6}","[5, 8, 28, 41]",5186282411,Nb1Ni2B1O6
Na3NiBPO7,mp-768540,0.0,1.60567197,0.023151384065936753,"{11: 3, 28: 1, 5: 1, 15: 1, 8: 7}","[5, 8, 11, 15, 28]",5187113151281,Na3Ni1B1P1O7
Na3NiBSO7,mp-771143,2.6897999999999995,2.24578806,0.07432970442308218,"{11: 3, 28: 1, 5: 1, 16: 1, 8: 7}","[5, 8, 11, 16, 28]",5187113161281,Na3Ni1B1S1O7
Na3NiBAsO7,mp-771271,0.0,1.46252421,0.1007166237087942,"{11: 3, 28: 1, 5: 1, 33: 1, 8: 7}","[5, 8, 11, 28, 33]",5187113281331,Na3Ni1B1As1O7
Zn2Ni21B20,mp-1197569,0.0,8.32495908,0.0,"{30: 2, 28: 21, 5: 20}","[5, 28, 30]",5202821302,Zn2Ni21B20
MgNi3B2,mp-571428,0.0,7.6835022,0.0,"{12: 1, 28: 3, 5: 2}","[5, 12, 28]",52121283,Mg1Ni3B2
Mg2NiB2Ir5,mp-1188248,0.0,7.88950806,0.0,"{12: 2, 28: 1, 5: 2, 77: 5}","[5, 12, 28, 77]",52122281775,Mg2Ni1B2Ir5
Si4Ni9B2,mp-1219289,0.0,9.74994844,0.008021677916671521,"{14: 4, 28: 9, 5: 2}","[5, 14, 28]",52144289,Si4Ni9B2
Ca3Ni7B2,mp-8308,0.0,6.02496912,0.0,"{20: 3, 28: 7, 5: 2}","[5, 20, 28]",52203287,Ca3Ni7B2
Sc2NiB2Ir5,mp-1209056,0.0,8.12101771,0.0,"{21: 2, 28: 1, 5: 2, 77: 5}","[5, 21, 28, 77]",52212281775,Sc2Ni1B2Ir5
Fe3Ni3B2,mp-1224887,0.0,7.04329681,0.04601265249999997,"{26: 3, 28: 3, 5: 2}","[5, 26, 28]",52263283,Fe3Ni3B2
Y3Ni13B2,mp-567863,0.0,6.67984667,0.012009461111104791,"{39: 3, 28: 13, 5: 2}","[5, 28, 39]",522813393,Y3Ni13B2
La3Ni13B2,mp-1190121,0.0,8.33043764,0.0016617066666668734,"{57: 3, 28: 13, 5: 2}","[5, 28, 57]",522813573,La3Ni13B2
Ce3Ni13B2,mp-1106339,0.0,8.43270514,0.0,"{58: 3, 28: 13, 5: 2}","[5, 28, 58]",522813583,Ce3Ni13B2
Pr3Ni13B2,mp-1188184,0.0,6.58133172,0.00648696888888356,"{59: 3, 28: 13, 5: 2}","[5, 28, 59]",522813593,Pr3Ni13B2
Nd3Ni13B2,mp-3071,0.0,6.57180567,0.006321916111103221,"{60: 3, 28: 13, 5: 2}","[5, 28, 60]",522813603,Nd3Ni13B2
Sm3Ni13B2,mp-1189146,0.0,6.40127279,0.9833691379571778,"{62: 3, 28: 13, 5: 2}","[5, 28, 62]",522813623,Sm3Ni13B2
Tb3Ni13B2,mp-541883,0.0,6.6090624,0.01036382722221596,"{65: 3, 28: 13, 5: 2}","[5, 28, 65]",522813653,Tb3Ni13B2
Dy3Ni13B2,mp-542729,0.0,6.59008345,0.003949152777772191,"{66: 3, 28: 13, 5: 2}","[5, 28, 66]",522813663,Dy3Ni13B2
Ho3Ni13B2,mp-1105707,0.0,6.62242324,0.2548290233333308,"{67: 3, 28: 13, 5: 2}","[5, 28, 67]",522813673,Ho3Ni13B2
Er3Ni13B2,mp-1188616,0.0,6.50533256,3.0418333328618985e-05,"{68: 3, 28: 13, 5: 2}","[5, 28, 68]",522813683,Er3Ni13B2
Tm3Ni13B2,mp-1188278,0.0,6.40750517,0.0069761627777724655,"{69: 3, 28: 13, 5: 2}","[5, 28, 69]",522813693,Tm3Ni13B2
NbNiB2,mp-1188857,0.0,7.77644603,0.0,"{41: 1, 28: 1, 5: 2}","[5, 28, 41]",52281411,Nb1Ni1B2
Ni(BMo)2,mp-9999,0.0,9.13089184,0.0,"{28: 1, 5: 2, 42: 2}","[5, 28, 42]",52281422,Ni1B2Mo2
TaNiB2,mp-22709,0.0,8.21530684,0.0,"{73: 1, 28: 1, 5: 2}","[5, 28, 73]",52281731,Ta1Ni1B2
Ni(BW)2,mp-1070761,0.0,8.72560671,0.0,"{28: 1, 5: 2, 74: 2}","[5, 28, 74]",52281742,Ni1B2W2
Sr(NiB)2,mp-1238027,0.0,5.24696126,0.3548978174444457,"{38: 1, 28: 2, 5: 2}","[5, 28, 38]",52282381,Sr1Ni2B2
Y(NiB)2,mp-1079994,0.0,6.18628263,0.0,"{39: 1, 28: 2, 5: 2}","[5, 28, 39]",52282391,Y1Ni2B2
Ba(NiB)2,mp-1190153,0.0,4.99488329,0.24118147966666914,"{56: 1, 28: 2, 5: 2}","[5, 28, 56]",52282561,Ba1Ni2B2
Sm(NiB)2,mp-1078891,0.0,6.04981537,0.0,"{62: 1, 28: 2, 5: 2}","[5, 28, 62]",52282621,Sm1Ni2B2
Tb(NiB)2,mp-30333,0.0,6.20052291,0.0,"{65: 1, 28: 2, 5: 2}","[5, 28, 65]",52282651,Tb1Ni2B2
Dy(NiB)2,mp-1079900,0.0,6.19196206,0.0,"{66: 1, 28: 2, 5: 2}","[5, 28, 66]",52282661,Dy1Ni2B2
Ho(NiB)2,mp-31009,0.0,6.13450812,0.19262279320000886,"{67: 1, 28: 2, 5: 2}","[5, 28, 67]",52282671,Ho1Ni2B2
Er(NiB)2,mp-1079335,0.0,6.12291933,0.0,"{68: 1, 28: 2, 5: 2}","[5, 28, 68]",52282681,Er1Ni2B2
ZnNi3B2,mp-1103182,0.0,7.57951765,0.0,"{30: 1, 28: 3, 5: 2}","[5, 28, 30]",52283301,Zn1Ni3B2
Y3Ni7B2,mp-1192116,0.0,6.73043996,0.0,"{39: 3, 28: 7, 5: 2}","[5, 28, 39]",52287393,Y3Ni7B2
Sm3Ni7B2,mp-973241,0.0,6.27202037,0.9995468893333364,"{62: 3, 28: 7, 5: 2}","[5, 28, 62]",52287623,Sm3Ni7B2
Eu3Ni7B2,mp-1225962,0.0,5.78500667,0.05321615189235818,"{63: 3, 28: 7, 5: 2}","[5, 28, 63]",52287633,Eu3Ni7B2
Gd3Ni7B2,mp-1192940,0.0,6.43590796,0.0,"{64: 3, 28: 7, 5: 2}","[5, 28, 64]",52287643,Gd3Ni7B2
Tb3Ni7B2,mp-1191556,0.0,6.73308562,0.0,"{65: 3, 28: 7, 5: 2}","[5, 28, 65]",52287653,Tb3Ni7B2
Dy3Ni7B2,mp-18399,0.0,6.53490163,0.0,"{66: 3, 28: 7, 5: 2}","[5, 28, 66]",52287663,Dy3Ni7B2
Ho3Ni7B2,mp-1192069,0.0,6.59172412,0.26211742703124763,"{67: 3, 28: 7, 5: 2}","[5, 28, 67]",52287673,Ho3Ni7B2
Er3Ni7B2,mp-17168,0.0,6.50581917,0.0,"{68: 3, 28: 7, 5: 2}","[5, 28, 68]",52287683,Er3Ni7B2
Tm3Ni7B2,mp-1005955,0.0,6.45920643,0.0,"{69: 3, 28: 7, 5: 2}","[5, 28, 69]",52287693,Tm3Ni7B2
Lu3Ni7B2,mp-865190,0.0,6.50120123,0.0,"{71: 3, 28: 7, 5: 2}","[5, 28, 71]",52287713,Lu3Ni7B2
YNi2B2C,mp-6576,0.0,6.59196594,0.0,"{39: 1, 28: 2, 5: 2, 6: 1}","[5, 6, 28, 39]",5261282391,Y1Ni2B2C1
LaNi2B2C,mp-568083,0.0,8.52996184,0.0,"{57: 1, 28: 2, 5: 2, 6: 1}","[5, 6, 28, 57]",5261282571,La1Ni2B2C1
CeNi2B2C,mp-10860,0.0,8.3589437,0.0,"{58: 1, 28: 2, 5: 2, 6: 1}","[5, 6, 28, 58]",5261282581,Ce1Ni2B2C1
PrNi2B2C,mp-6140,0.0,6.44016682,0.0,"{59: 1, 28: 2, 5: 2, 6: 1}","[5, 6, 28, 59]",5261282591,Pr1Ni2B2C1
NdNi2B2C,mp-6102,0.0,6.41707374,0.0,"{60: 1, 28: 2, 5: 2, 6: 1}","[5, 6, 28, 60]",5261282601,Nd1Ni2B2C1
SmNi2B2C,mp-9220,0.0,6.2833994,0.4823865541071566,"{62: 1, 28: 2, 5: 2, 6: 1}","[5, 6, 28, 62]",5261282621,Sm1Ni2B2C1
EuNi2B2C,mp-21064,0.0,5.90023744,0.0,"{63: 1, 28: 2, 5: 2, 6: 1}","[5, 6, 28, 63]",5261282631,Eu1Ni2B2C1
GdNi2B2C,mp-20728,0.0,6.52116074,0.0,"{64: 1, 28: 2, 5: 2, 6: 1}","[5, 6, 28, 64]",5261282641,Gd1Ni2B2C1
TbNi2B2C,mp-6092,0.0,6.53355507,0.0,"{65: 1, 28: 2, 5: 2, 6: 1}","[5, 6, 28, 65]",5261282651,Tb1Ni2B2C1
DyNi2B2C,mp-6223,0.0,6.52463097,0.0,"{66: 1, 28: 2, 5: 2, 6: 1}","[5, 6, 28, 66]",5261282661,Dy1Ni2B2C1
HoNi2B2C,mp-6646,0.0,6.48712228,0.12991175364583274,"{67: 1, 28: 2, 5: 2, 6: 1}","[5, 6, 28, 67]",5261282671,Ho1Ni2B2C1
ErNi2B2C,mp-6098,0.0,6.50322201,0.0,"{68: 1, 28: 2, 5: 2, 6: 1}","[5, 6, 28, 68]",5261282681,Er1Ni2B2C1
TmNi2B2C,mp-6754,0.0,6.4878516,0.0,"{69: 1, 28: 2, 5: 2, 6: 1}","[5, 6, 28, 69]",5261282691,Tm1Ni2B2C1
LuNi2B2C,mp-6544,0.0,6.50267042,0.0,"{71: 1, 28: 2, 5: 2, 6: 1}","[5, 6, 28, 71]",5261282711,Lu1Ni2B2C1
ThNi2B2C,mp-1025034,0.0,8.2112295,0.0,"{90: 1, 28: 2, 5: 2, 6: 1}","[5, 6, 28, 90]",5261282901,Th1Ni2B2C1
UNi2B2C,mp-1025123,0.0,9.7541983,0.0,"{92: 1, 28: 2, 5: 2, 6: 1}","[5, 6, 28, 92]",5261282921,U1Ni2B2C1