formula,material_id,band_gap,efermi,energy_above_hull,comp_atoms,sorted_keys_comp_atoms,comp_number,new_formula
NiPtO3,mp-1186112,0.0,3.31207443,1.2424035669999984,"{28: 1, 78: 1, 8: 3}","[8, 28, 78]",83281781,Ni1Pt1O3
TlNiO3,mp-18001,0.0,5.75071471,0.07424532508333392,"{81: 1, 28: 1, 8: 3}","[8, 28, 81]",83281811,Tl1Ni1O3
NiPbO3,mp-1078668,0.0,5.98161367,0.0,"{28: 1, 82: 1, 8: 3}","[8, 28, 82]",83281821,Ni1Pb1O3
NiBiO3,mp-998527,0.0,5.60229493,0.010981392250012156,"{28: 1, 83: 1, 8: 3}","[8, 28, 83]",83281831,Ni1Bi1O3
AcNiO3,mp-1183139,0.0,6.06375679,0.0,"{89: 1, 28: 1, 8: 3}","[8, 28, 89]",83281891,Ac1Ni1O3
PuNiO3,mp-1188081,0.0,9.47544616,0.5158323469999964,"{94: 1, 28: 1, 8: 3}","[8, 28, 94]",83281941,Pu1Ni1O3
Ni2O3,mp-1043875,0.0,3.31211061,0.21409482616666597,"{28: 2, 8: 3}","[8, 28]",83282,Ni2O3
Rb2Ni2O3,mp-754858,1.4583,1.04906511,0.11133459428571335,"{37: 2, 28: 2, 8: 3}","[8, 28, 37]",83282372,Rb2Ni2O3
Ni4O3,mp-1094096,0.0,6.73472456,0.43099237500000065,"{28: 4, 8: 3}","[8, 28]",83284,Ni4O3
La16Ni8O33,mp-867595,0.0,7.45506212,0.04922276451755003,"{57: 16, 28: 8, 8: 33}","[8, 28, 57]",8332885716,La16Ni8O33
K6Sr2Ni5(P2O7)5,mp-1225542,3.8431000000000006,1.32464986,0.011207262370690252,"{19: 6, 38: 2, 28: 5, 15: 10, 8: 35}","[8, 15, 19, 28, 38]",8351510196285382,K6Sr2Ni5P10O35
Sr3La9Mn11NiO36,mp-743659,0.0,6.28522886,0.14756459671278854,"{38: 3, 57: 9, 25: 11, 28: 1, 8: 36}","[8, 25, 28, 38, 57]",8362511281383579,Sr3La9Mn11Ni1O36
Sr2NiO3F,mp-1218709,0.0,2.39160589,0.026920281250001565,"{38: 2, 28: 1, 8: 3, 9: 1}","[8, 9, 28, 38]",8391281382,Sr2Ni1O3F1
La2NiO3F2,mp-2646996,2.6467,6.57007499,0.12362679937499887,"{57: 2, 28: 1, 8: 3, 9: 2}","[8, 9, 28, 57]",8392281572,La2Ni1O3F2
RbNiW(OF)3,mp-694996,2.0863,0.48257611,0.08173423402778024,"{37: 1, 28: 1, 74: 1, 8: 3, 9: 3}","[8, 9, 28, 37, 74]",8393281371741,Rb1Ni1W1O3F3
UNi(OF2)3,mp-1191770,0.0,-0.45595348,0.45948834965909047,"{92: 1, 28: 1, 8: 3, 9: 6}","[8, 9, 28, 92]",8396281921,U1Ni1O3F6
NpNi(OF2)3,mp-1210343,0.0,-0.09542004,0.4474605196590913,"{93: 1, 28: 1, 8: 3, 9: 6}","[8, 9, 28, 93]",8396281931,Np1Ni1O3F6
Mn3(Ni17O20)2,mp-758834,1.1391999999999998,5.1914738,0.02697868272724957,"{25: 3, 28: 34, 8: 40}","[8, 25, 28]",8402532834,Mn3Ni34O40
Fe21Ni9O40,mp-698680,0.0,3.89331834,0.10950419514285681,"{26: 21, 28: 9, 8: 40}","[8, 26, 28]",8402621289,Fe21Ni9O40
NaNiPO4,mp-776388,3.3116000000000003,2.10998663,0.0,"{11: 1, 28: 1, 15: 1, 8: 4}","[8, 11, 15, 28]",84111151281,Na1Ni1P1O4
NaNiAsO4,mp-558835,0.0,2.62750324,0.0,"{11: 1, 28: 1, 33: 1, 8: 4}","[8, 11, 28, 33]",84111281331,Na1Ni1As1O4
Na(NiO2)2,mp-1176434,0.0,2.46028621,0.0,"{11: 1, 28: 2, 8: 4}","[8, 11, 28]",84111282,Na1Ni2O4
NaNi3O4,mp-759512,0.0,4.68015498,0.040043627187499986,"{11: 1, 28: 3, 8: 4}","[8, 11, 28]",84111283,Na1Ni3O4
Na2Mg(NiO2)2,mp-2223893,0.0,3.12798482,0.2962732327777795,"{11: 2, 12: 1, 28: 2, 8: 4}","[8, 11, 12, 28]",84112121282,Na2Mg1Ni2O4
KNa2(NiO2)2,mp-1204380,1.0584999999999998,1.43673455,0.029313139201385674,"{19: 1, 11: 2, 28: 2, 8: 4}","[8, 11, 19, 28]",84112191282,K1Na2Ni2O4
Na2TiNiO4,mp-1221264,1.509,3.70125799,0.0182938933333352,"{11: 2, 22: 1, 28: 1, 8: 4}","[8, 11, 22, 28]",84112221281,Na2Ti1Ni1O4
Na2MnNiO4,mp-1221327,0.0,3.9244569,0.1727083443749997,"{11: 2, 25: 1, 28: 1, 8: 4}","[8, 11, 25, 28]",84112251281,Na2Mn1Ni1O4
Na3(NiO2)2,mp-764056,0.7828000000000002,1.96620874,0.0731581653472233,"{11: 3, 28: 2, 8: 4}","[8, 11, 28]",84113282,Na3Ni2O4
Na4NiO4,mp-752478,0.3036000000000001,1.53764118,0.03906097960648225,"{11: 4, 28: 1, 8: 4}","[8, 11, 28]",84114281,Na4Ni1O4
Na5NiO4,mp-21996,1.8963,1.87589454,0.0,"{11: 5, 28: 1, 8: 4}","[8, 11, 28]",84115281,Na5Ni1O4
Na6NiO4,mp-779898,1.4445999999999999,1.85936484,0.008214574090907867,"{11: 6, 28: 1, 8: 4}","[8, 11, 28]",84116281,Na6Ni1O4
MgSiNiO4,mp-1222016,4.3779,7.91059948,0.014320531428571037,"{12: 1, 14: 1, 28: 1, 8: 4}","[8, 12, 14, 28]",84121141281,Mg1Si1Ni1O4
Mg(NiO2)2,mp-755557,0.0,3.89071615,0.006674602063489132,"{12: 1, 28: 2, 8: 4}","[8, 12, 28]",84121282,Mg1Ni2O4
MgNi2(AgO2)2,mp-2217089,0.0,3.33507288,0.32444721000000065,"{12: 1, 28: 2, 47: 2, 8: 4}","[8, 12, 28, 47]",84121282472,Mg1Ni2Ag2O4
MgCuNi3O4,mp-2223706,0.0,6.27149888,0.7196331066666648,"{12: 1, 29: 1, 28: 3, 8: 4}","[8, 12, 28, 29]",84121283291,Mg1Cu1Ni3O4
Mg3NiO4,mp-1099253,3.2945,5.06981207,0.0,"{12: 3, 28: 1, 8: 4}","[8, 12, 28]",84123281,Mg3Ni1O4
La18Ni12O41,mp-867986,0.0,7.56424696,0.05785947503520905,"{57: 18, 28: 12, 8: 41}","[8, 28, 57]",84128125718,La18Ni12O41
Al(NiO2)2,mp-768600,0.0,4.65858591,0.04790939188312038,"{13: 1, 28: 2, 8: 4}","[8, 13, 28]",84131282,Al1Ni2O4
Al2NiO4,mp-37614,3.4756,5.93776711,0.0,"{13: 2, 28: 1, 8: 4}","[8, 13, 28]",84132281,Al2Ni1O4
SiNiO4,mp-1364379,0.0,2.64627336,0.530063137638888,"{14: 1, 28: 1, 8: 4}","[8, 14, 28]",84141281,Si1Ni1O4
Si(NiO2)2,mp-19072,0.0,5.53149033,0.0,"{14: 1, 28: 2, 8: 4}","[8, 14, 28]",84141282,Si1Ni2O4
KNiPO4,mp-22655,2.909,0.94378716,0.0,"{19: 1, 28: 1, 15: 1, 8: 4}","[8, 15, 19, 28]",84151191281,K1Ni1P1O4
NiPO4,mp-504165,0.0,1.74517095,0.1096981745833423,"{28: 1, 15: 1, 8: 4}","[8, 15, 28]",84151281,Ni1P1O4
NiSO4,mp-18749,3.2555000000000005,2.61044546,0.0,"{28: 1, 16: 1, 8: 4}","[8, 16, 28]",84161281,Ni1S1O4
Ni(ClO2)2,mp-1180134,0.0,-2.54714106,0.8369644173214277,"{28: 1, 17: 2, 8: 4}","[8, 17, 28]",84172281,Ni1Cl2O4
KNiAsO4,mp-559672,0.0,2.44292148,0.0,"{19: 1, 28: 1, 33: 1, 8: 4}","[8, 19, 28, 33]",84191281331,K1Ni1As1O4
KNiSbO4,mp-1223391,1.7597000000000005,2.62388152,0.028227657142859464,"{19: 1, 28: 1, 51: 1, 8: 4}","[8, 19, 28, 51]",84191281511,K1Ni1Sb1O4
K3(NiO2)2,mp-27565,1.3828,2.56664285,0.0,"{19: 3, 28: 2, 8: 4}","[8, 19, 28]",84193282,K3Ni2O4
Ca(NiO2)2,mp-1372361,0.0,4.07304721,0.0,"{20: 1, 28: 2, 8: 4}","[8, 20, 28]",84201282,Ca1Ni2O4
TiCu2NiO4,mp-1216924,0.0,4.79023378,0.2031164581249998,"{22: 1, 29: 2, 28: 1, 8: 4}","[8, 22, 28, 29]",84221281292,Ti1Cu2Ni1O4
LaTiNiO4,mp-1147531,0.27529999999999966,6.6132149,0.28326998124999747,"{57: 1, 22: 1, 28: 1, 8: 4}","[8, 22, 28, 57]",84221281571,La1Ti1Ni1O4
Sr18Ni13O42,mp-685197,0.8999999999999999,2.79567744,0.02124517914383528,"{38: 18, 28: 13, 8: 42}","[8, 28, 38]",84228133818,Sr18Ni13O42
Ni3Te(MoO7)6,mp-1204457,0.0,-1.09472408,0.7450898427884685,"{28: 3, 52: 1, 42: 6, 8: 42}","[8, 28, 42, 52]",842283426521,Ni3Te1Mo6O42
CrNiO4,mp-18726,0.0,1.96773308,0.0,"{24: 1, 28: 1, 8: 4}","[8, 24, 28]",84241281,Cr1Ni1O4
Cr2NiO4,mp-1271164,2.7948,3.38016791,0.0,"{24: 2, 28: 1, 8: 4}","[8, 24, 28]",84242281,Cr2Ni1O4
MnFeNiO4,mp-1221897,0.0,3.90602763,0.05955558425593388,"{25: 1, 26: 1, 28: 1, 8: 4}","[8, 25, 26, 28]",84251261281,Mn1Fe1Ni1O4
MnNi3O4,mp-759859,0.9829999999999997,6.28082795,0.060138827500000325,"{25: 1, 28: 3, 8: 4}","[8, 25, 28]",84251283,Mn1Ni3O4
Mn2NiO4,mp-36843,0.0,3.67832912,0.012463314226186739,"{25: 2, 28: 1, 8: 4}","[8, 25, 28]",84252281,Mn2Ni1O4
Mn3NiO4,mp-776651,0.09050000000000047,5.32632052,0.07689406375000196,"{25: 3, 28: 1, 8: 4}","[8, 25, 28]",84253281,Mn3Ni1O4
GaFeNiO4,mp-1224929,0.0,3.60582852,0.024978049285712345,"{31: 1, 26: 1, 28: 1, 8: 4}","[8, 26, 28, 31]",84261281311,Ga1Fe1Ni1O4
Fe(NiO2)2,mp-640147,0.0,3.80253429,0.01024966000000127,"{26: 1, 28: 2, 8: 4}","[8, 26, 28]",84261282,Fe1Ni2O4
Fe2NiO4,mp-35596,1.3615999999999997,3.57517255,0.0,"{26: 2, 28: 1, 8: 4}","[8, 26, 28]",84262281,Fe2Ni1O4
Co(NiO2)2,mp-754168,0.0,3.82565522,0.0,"{27: 1, 28: 2, 8: 4}","[8, 27, 28]",84271282,Co1Ni2O4
Co2NiO4,mp-38683,0.0,3.93153905,0.03615692428571471,"{27: 2, 28: 1, 8: 4}","[8, 27, 28]",84272281,Co2Ni1O4
Cu2NiO4,mp-1178410,0.0,4.19262147,0.03996899875000004,"{29: 2, 28: 1, 8: 4}","[8, 28, 29]",84281292,Cu2Ni1O4
Cu2NiSnO4,mp-1225946,0.0,5.43280721,0.0,"{29: 2, 28: 1, 50: 1, 8: 4}","[8, 28, 29, 50]",84281292501,Cu2Ni1Sn1O4
ZnTcNiO4,mp-1216043,0.0,4.40304017,0.058906736071428156,"{30: 1, 43: 1, 28: 1, 8: 4}","[8, 28, 30, 43]",84281301431,Zn1Tc1Ni1O4
Ga2NiO4,mp-35236,1.5034,3.63571947,0.0,"{31: 2, 28: 1, 8: 4}","[8, 28, 31]",84281312,Ga2Ni1O4
NiAsO4,mp-510749,0.0,1.36819038,0.15679087750000154,"{28: 1, 33: 1, 8: 4}","[8, 28, 33]",84281331,Ni1As1O4
Ni(AsO2)2,mp-1096784,2.7724,2.43365297,0.0,"{28: 1, 33: 2, 8: 4}","[8, 28, 33]",84281332,Ni1As2O4
NiSeO4,mp-18817,2.1705000000000005,2.10391879,0.0,"{28: 1, 34: 1, 8: 4}","[8, 28, 34]",84281341,Ni1Se1O4
SrLaNiO4,mp-1218155,0.0,5.03644281,0.0,"{38: 1, 57: 1, 28: 1, 8: 4}","[8, 28, 38, 57]",84281381571,Sr1La1Ni1O4
SrNdNiO4,mp-1217981,0.0,3.45154674,0.0,"{38: 1, 60: 1, 28: 1, 8: 4}","[8, 28, 38, 60]",84281381601,Sr1Nd1Ni1O4
SrSmNiO4,mp-1217760,0.0,3.32852476,0.016043820624996208,"{38: 1, 62: 1, 28: 1, 8: 4}","[8, 28, 38, 62]",84281381621,Sr1Sm1Ni1O4
SrEuNiO4,mp-1218281,0.0,2.93864263,0.13080487839285393,"{38: 1, 63: 1, 28: 1, 8: 4}","[8, 28, 38, 63]",84281381631,Sr1Eu1Ni1O4
SrGdNiO4,mp-1218235,0.0,3.31406523,0.03808863446428212,"{38: 1, 64: 1, 28: 1, 8: 4}","[8, 28, 38, 64]",84281381641,Sr1Gd1Ni1O4
NiMoO4,mp-505273,0.0,2.97840289,0.0,"{28: 1, 42: 1, 8: 4}","[8, 28, 42]",84281421,Ni1Mo1O4
Ni(RhO2)2,mp-636519,0.0,4.5419669,0.08559138035714309,"{28: 1, 45: 2, 8: 4}","[8, 28, 45]",84281452,Ni1Rh2O4
Ni(SbO2)2,mp-21275,1.7233,4.44874221,0.0,"{28: 1, 51: 2, 8: 4}","[8, 28, 51]",84281512,Ni1Sb2O4
NiTeO4,mp-1220014,0.27610000000000046,5.39624354,0.0,"{28: 1, 52: 1, 8: 4}","[8, 28, 52]",84281521,Ni1Te1O4
Ba3NiO4,mp-27957,2.3294999999999995,4.43720305,0.05091494499999971,"{56: 3, 28: 1, 8: 4}","[8, 28, 56]",84281563,Ba3Ni1O4
La2NiO4,mp-21874,0.0,7.9429686,0.04815234892856779,"{57: 2, 28: 1, 8: 4}","[8, 28, 57]",84281572,La2Ni1O4
Pr2NiO4,mp-505093,0.09820000000000029,4.81169056,0.05809571874999886,"{59: 2, 28: 1, 8: 4}","[8, 28, 59]",84281592,Pr2Ni1O4
Nd2NiO4,mp-505052,0.0,5.3705567,0.07028568535713742,"{60: 2, 28: 1, 8: 4}","[8, 28, 60]",84281602,Nd2Ni1O4
Eu2NiO4,mp-770352,0.0,3.53486974,0.28455333928571136,"{63: 2, 28: 1, 8: 4}","[8, 28, 63]",84281632,Eu2Ni1O4
Gd2NiO4,mp-1207225,0.08920000000000083,5.4353424,0.1903576628571404,"{64: 2, 28: 1, 8: 4}","[8, 28, 64]",84281642,Gd2Ni1O4
NiWO4,mp-21179,2.8991,2.81837287,0.0,"{28: 1, 74: 1, 8: 4}","[8, 28, 74]",84281741,Ni1W1O4
ReNiO4,mp-1209068,0.0,3.88274603,0.06694083770833714,"{75: 1, 28: 1, 8: 4}","[8, 28, 75]",84281751,Re1Ni1O4
Cu(NiO2)2,mp-756271,0.0,4.10718204,0.02190066473214003,"{29: 1, 28: 2, 8: 4}","[8, 28, 29]",84282291,Cu1Ni2O4
Zn(NiO2)2,mp-1047462,0.0,3.3990931,0.0,"{30: 1, 28: 2, 8: 4}","[8, 28, 30]",84282301,Zn1Ni2O4
Ni2GeO4,mp-22638,2.1356,4.01941694,0.0,"{28: 2, 32: 1, 8: 4}","[8, 28, 32]",84282321,Ni2Ge1O4
Y(NiO2)2,mp-1398595,0.0,3.18337454,0.1317756356250026,"{39: 1, 28: 2, 8: 4}","[8, 28, 39]",84282391,Y1Ni2O4
Ni2Ag3O4,mp-557620,0.0,3.96502813,0.3485141722222229,"{28: 2, 47: 3, 8: 4}","[8, 28, 47]",84282473,Ni2Ag3O4
Cd(NiO2)2,mp-756341,0.125,2.95619077,0.003961507976189438,"{48: 1, 28: 2, 8: 4}","[8, 28, 48]",84282481,Cd1Ni2O4
Nd(NiO2)2,mp-1210181,0.0,2.29284443,0.2568334382142803,"{60: 1, 28: 2, 8: 4}","[8, 28, 60]",84282601,Nd1Ni2O4
Ni3O4,mp-656887,0.0,4.96930009,0.0,"{28: 3, 8: 4}","[8, 28]",84283,Ni3O4
CuNi3O4,mp-761415,0.0,6.25605264,0.06442556374999953,"{29: 1, 28: 3, 8: 4}","[8, 28, 29]",84283291,Cu1Ni3O4
Ni5O4,mp-1220234,0.0,7.15017428,0.3507216388888894,"{28: 5, 8: 4}","[8, 28]",84285,Ni5O4
Mn7Ni(PO4)12,mp-776812,0.0,0.42047555,0.09399865172793476,"{25: 7, 28: 1, 15: 12, 8: 48}","[8, 15, 25, 28]",8481512257281,Mn7Ni1P12O48
Ca5La10Mn14(NiO24)2,mp-1332851,0.0,5.47561158,0.1431793546308029,"{20: 5, 57: 10, 25: 14, 28: 2, 8: 48}","[8, 20, 25, 28, 57]",84820525142825710,Ca5La10Mn14Ni2O48
Ni17(AsO4)12,mp-767798,0.0,2.7513598,0.03096188850648751,"{28: 17, 33: 12, 8: 48}","[8, 28, 33]",84828173312,Ni17As12O48
Na2NiPO4F,mp-1203157,4.3816,5.9744828,0.0,"{11: 2, 28: 1, 15: 1, 8: 4, 9: 1}","[8, 9, 11, 15, 28]",8491112151281,Na2Ni1P1O4F1
NiPO4F,mp-25468,0.0,0.07496323,0.24238405053571555,"{28: 1, 15: 1, 8: 4, 9: 1}","[8, 9, 15, 28]",8491151281,Ni1P1O4F1
NbFeNi(O2F)2,mp-1173431,1.3901,1.95553277,0.04754099499999764,"{41: 1, 26: 1, 28: 1, 8: 4, 9: 2}","[8, 9, 26, 28, 41]",8492261281411,Nb1Fe1Ni1O4F2
Ni(O2F)2,mp-1210254,0.6775999999999999,-0.55121896,0.37845908142857354,"{28: 1, 8: 4, 9: 2}","[8, 9, 28]",8492281,Ni1O4F2
La24Ni12O49,mp-759094,0.0,7.82695646,0.05293538773528894,"{57: 24, 28: 12, 8: 49}","[8, 28, 57]",84928125724,La24Ni12O49
MgNi4(OF2)4,mp-2240852,0.5380000000000001,0.93369283,0.28410033656862677,"{12: 1, 28: 4, 8: 4, 9: 8}","[8, 9, 12, 28]",8498121284,Mg1Ni4O4F8
NaNi3O5,mp-1101477,0.0,3.4014134,0.04051541777777157,"{11: 1, 28: 3, 8: 5}","[8, 11, 28]",85111283,Na1Ni3O5
Na2Ni2O5,mp-755035,0.6238999999999999,3.04784151,0.06324682305555562,"{11: 2, 28: 2, 8: 5}","[8, 11, 28]",85112282,Na2Ni2O5
Na2Ni3O5,mp-765675,0.16169999999999973,4.14911956,0.02711622149999915,"{11: 2, 28: 3, 8: 5}","[8, 11, 28]",85112283,Na2Ni3O5
Na3Ni2O5,mp-760035,0.0,3.48348275,0.04112400083333512,"{11: 3, 28: 2, 8: 5}","[8, 11, 28]",85113282,Na3Ni2O5
Na4Ni2O5,mp-780118,0.6135999999999999,2.40236197,0.06458778232954554,"{11: 4, 28: 2, 8: 5}","[8, 11, 28]",85114282,Na4Ni2O5
MgSiNiO5,mp-1046737,0.0,3.35720358,0.19037862312500042,"{12: 1, 14: 1, 28: 1, 8: 5}","[8, 12, 14, 28]",85121141281,Mg1Si1Ni1O5
MgNiPO5,mp-1046740,0.0,3.71605885,0.1334890375000004,"{12: 1, 28: 1, 15: 1, 8: 5}","[8, 12, 15, 28]",85121151281,Mg1Ni1P1O5
BaYMgCuNiO5,mp-2226976,0.0,4.57292206,0.44404855125000076,"{56: 1, 39: 1, 12: 1, 29: 1, 28: 1, 8: 5}","[8, 12, 28, 29, 39, 56]",85121281291391561,Ba1Y1Mg1Cu1Ni1O5
MgNiAsO5,mp-1374432,0.15119999999999978,3.22062115,0.14493715209489455,"{12: 1, 28: 1, 33: 1, 8: 5}","[8, 12, 28, 33]",85121281331,Mg1Ni1As1O5
MgNiBiO5,mp-1044415,0.6899000000000002,2.32832187,0.1057092012152765,"{12: 1, 28: 1, 83: 1, 8: 5}","[8, 12, 28, 83]",85121281831,Mg1Ni1Bi1O5
MgNi2O5,mp-1394225,0.0,2.58353887,0.2694822846180571,"{12: 1, 28: 2, 8: 5}","[8, 12, 28]",85121282,Mg1Ni2O5
Mg2Ni2O5,mp-1394172,0.0,3.80225779,0.2640569114506155,"{12: 2, 28: 2, 8: 5}","[8, 12, 28]",85122282,Mg2Ni2O5
Ca2AlNiO5,mp-1257498,0.0,3.21868107,0.008416099424610302,"{20: 2, 13: 1, 28: 1, 8: 5}","[8, 13, 20, 28]",85131202281,Ca2Al1Ni1O5
BaAlCuNiO5,mp-1042478,0.0,4.43989626,0.4039116624735444,"{56: 1, 13: 1, 29: 1, 28: 1, 8: 5}","[8, 13, 28, 29, 56]",85131281291561,Ba1Al1Cu1Ni1O5
ZnSiNiO5,mp-1046661,0.14829999999999988,2.92026876,0.2175360831249984,"{30: 1, 14: 1, 28: 1, 8: 5}","[8, 14, 28, 30]",85141281301,Zn1Si1Ni1O5
CrNiPO5,mp-1226272,0.0,4.26668485,0.0,"{24: 1, 28: 1, 15: 1, 8: 5}","[8, 15, 24, 28]",85151241281,Cr1Ni1P1O5
FeNiPO5,mp-542158,0.0,2.74189209,0.01009352531250407,"{26: 1, 28: 1, 15: 1, 8: 5}","[8, 15, 26, 28]",85151261281,Fe1Ni1P1O5
NiPO5,mp-1209842,0.0,-0.91769886,0.39582065000000544,"{28: 1, 15: 1, 8: 5}","[8, 15, 28]",85151281,Ni1P1O5
NiBiPO5,mp-556993,3.8528000000000002,3.3060927,0.0,"{28: 1, 83: 1, 15: 1, 8: 5}","[8, 15, 28, 83]",85151281831,Ni1Bi1P1O5
Ni2PO5,mp-755058,0.0,3.09051021,0.027354360416667944,"{28: 2, 15: 1, 8: 5}","[8, 15, 28]",85151282,Ni2P1O5
NiSO5,mp-1104671,0.0,0.52615073,0.2502802253571401,"{28: 1, 16: 1, 8: 5}","[8, 16, 28]",85161281,Ni1S1O5
CaNiAsO5,mp-1344634,0.0,2.71960813,0.05372890742228531,"{20: 1, 28: 1, 33: 1, 8: 5}","[8, 20, 28, 33]",85201281331,Ca1Ni1As1O5
CaNiBiO5,mp-1044575,1.0012999999999999,1.73904287,0.06703147458333536,"{20: 1, 28: 1, 83: 1, 8: 5}","[8, 20, 28, 83]",85201281831,Ca1Ni1Bi1O5
CaNi2O5,mp-1043339,0.0,0.7563585,0.33762806562499836,"{20: 1, 28: 2, 8: 5}","[8, 20, 28]",85201282,Ca1Ni2O5
Ca2YNiO5,mp-1047556,0.0,3.00218812,0.11674555673611042,"{20: 2, 39: 1, 28: 1, 8: 5}","[8, 20, 28, 39]",85202281391,Ca2Y1Ni1O5
Ca2Ni2O5,mp-1347146,0.0,3.35840336,0.0754589958333387,"{20: 2, 28: 2, 8: 5}","[8, 20, 28]",85202282,Ca2Ni2O5
BaYCuNiO5,mp-1404372,0.0,3.88730399,0.07184188868056474,"{56: 1, 39: 1, 29: 1, 28: 1, 8: 5}","[8, 28, 29, 39, 56]",85281291391561,Ba1Y1Cu1Ni1O5
ZnNiAsO5,mp-1339646,0.3092999999999999,1.47964625,0.08418814484375048,"{30: 1, 28: 1, 33: 1, 8: 5}","[8, 28, 30, 33]",85281301331,Zn1Ni1As1O5
ZnNiBiO5,mp-1044421,0.20290000000000008,2.22969332,0.1404327824218763,"{30: 1, 28: 1, 83: 1, 8: 5}","[8, 28, 30, 83]",85281301831,Zn1Ni1Bi1O5
NiBiAsO5,mp-557209,2.8781000000000003,3.10929071,0.0,"{28: 1, 83: 1, 33: 1, 8: 5}","[8, 28, 33, 83]",85281331831,Ni1Bi1As1O5
NiSeO5,mp-1209919,0.0,0.80306547,0.2520177296428576,"{28: 1, 34: 1, 8: 5}","[8, 28, 34]",85281341,Ni1Se1O5
BaY2NiO5,mp-19325,2.3002999999999996,3.59781908,0.03765383888888607,"{56: 1, 39: 2, 28: 1, 8: 5}","[8, 28, 39, 56]",85281392561,Ba1Y2Ni1O5
NiTe2O5,mp-504692,2.5059999999999993,5.22554427,0.004431473750001302,"{28: 1, 52: 2, 8: 5}","[8, 28, 52]",85281522,Ni1Te2O5
BaPr2NiO5,mp-18802,2.1673999999999998,3.38221086,0.0,"{56: 1, 59: 2, 28: 1, 8: 5}","[8, 28, 56, 59]",85281561592,Ba1Pr2Ni1O5
BaNd2NiO5,mp-18763,1.9985000000000004,3.48386084,0.0,"{56: 1, 60: 2, 28: 1, 8: 5}","[8, 28, 56, 60]",85281561602,Ba1Nd2Ni1O5
BaSm2NiO5,mp-19199,2.2387000000000006,3.35064712,0.01906058694443935,"{56: 1, 62: 2, 28: 1, 8: 5}","[8, 28, 56, 62]",85281561622,Ba1Sm2Ni1O5
BaEu2NiO5,mp-22294,0.0,2.88763925,0.15803555388889023,"{56: 1, 63: 2, 28: 1, 8: 5}","[8, 28, 56, 63]",85281561632,Ba1Eu2Ni1O5
BaGd2NiO5,mp-19332,0.9400000000000004,3.48149364,0.005727774722219081,"{56: 1, 64: 2, 28: 1, 8: 5}","[8, 28, 56, 64]",85281561642,Ba1Gd2Ni1O5
BaTb2NiO5,mp-19312,2.1026,5.74885152,0.002632438055552022,"{56: 1, 65: 2, 28: 1, 8: 5}","[8, 28, 56, 65]",85281561652,Ba1Tb2Ni1O5
BaDy2NiO5,mp-19416,2.1397999999999997,5.7472023,0.006110011666665471,"{56: 1, 66: 2, 28: 1, 8: 5}","[8, 28, 56, 66]",85281561662,Ba1Dy2Ni1O5
BaHo2NiO5,mp-19181,2.1548999999999996,5.7380513,0.01009763500000016,"{56: 1, 67: 2, 28: 1, 8: 5}","[8, 28, 56, 67]",85281561672,Ba1Ho2Ni1O5
BaEr2NiO5,mp-19101,2.1574999999999998,5.77852292,0.01929827211112567,"{56: 1, 68: 2, 28: 1, 8: 5}","[8, 28, 56, 68]",85281561682,Ba1Er2Ni1O5
BaTm2NiO5,mp-510134,1.5393,3.35721714,0.004238226444458704,"{56: 1, 69: 2, 28: 1, 8: 5}","[8, 28, 56, 69]",85281561692,Ba1Tm2Ni1O5
BaLu2NiO5,mp-825626,0.0,4.19425435,0.1643005787499927,"{56: 1, 71: 2, 28: 1, 8: 5}","[8, 28, 56, 71]",85281561712,Ba1Lu2Ni1O5
Ni2O5,mp-1094139,0.0,2.62513764,0.5143682044047626,"{28: 2, 8: 5}","[8, 28]",85282,Ni2O5
ZnNi2O5,mp-1831183,0.0,1.67724269,0.3787443021875001,"{30: 1, 28: 2, 8: 5}","[8, 28, 30]",85282301,Zn1Ni2O5
Zn2Ni2O5,mp-1366467,0.0,2.4416404,0.30394214944444453,"{30: 2, 28: 2, 8: 5}","[8, 28, 30]",85282302,Zn2Ni2O5
LaSmNi2O5,mp-1076810,0.5480999999999998,6.35335789,0.1682029013888915,"{57: 1, 62: 1, 28: 2, 8: 5}","[8, 28, 57, 62]",85282571621,La1Sm1Ni2O5
La2Ni2O5,mp-1076121,0.5829999999999993,7.49265022,0.09187203305555158,"{57: 2, 28: 2, 8: 5}","[8, 28, 57]",85282572,La2Ni2O5
Sm2Ni2O5,mp-1099625,0.6524000000000001,5.01189214,0.13613935736111227,"{62: 2, 28: 2, 8: 5}","[8, 28, 62]",85282622,Sm2Ni2O5
Eu2Ni2O5,mp-1097890,0.0,3.45713906,0.2951209233333305,"{63: 2, 28: 2, 8: 5}","[8, 28, 63]",85282632,Eu2Ni2O5
Zn2Ni3O5,mp-759178,0.0,5.32490377,0.0752547675000006,"{30: 2, 28: 3, 8: 5}","[8, 28, 30]",85283302,Zn2Ni3O5
CuNi4O5,mp-1225756,0.0,6.2724967,0.07159451300000086,"{29: 1, 28: 4, 8: 5}","[8, 28, 29]",85284291,Cu1Ni4O5
ZnNi4O5,mp-1215716,0.0,5.72063841,0.041819016999999015,"{30: 1, 28: 4, 8: 5}","[8, 28, 30]",85284301,Zn1Ni4O5
Sr24Ni19O54,mp-675428,0.4546000000000001,3.47695507,0.0602465410051547,"{38: 24, 28: 19, 8: 54}","[8, 28, 38]",85428193824,Sr24Ni19O54
La24Ni16O55,mp-1178319,0.05999999999999961,7.69897804,0.08803853181581012,"{57: 24, 28: 16, 8: 55}","[8, 28, 57]",85528165724,La24Ni16O55
Rb8Ti3Cr2Ni3(P2O7)8,mp-1173606,2.2969,3.23243609,0.0,"{37: 8, 22: 3, 24: 2, 28: 3, 15: 16, 8: 56}","[8, 15, 22, 24, 28, 37]",8561516223242283378,Rb8Ti3Cr2Ni3P16O56
NaMgNiIO6,mp-2223065,2.1715,1.86631029,0.0,"{11: 1, 12: 1, 28: 1, 53: 1, 8: 6}","[8, 11, 12, 28, 53]",86111121281531,Na1Mg1Ni1I1O6
NaEuNiGeO6,mp-1520407,0.0,2.54442577,0.16474507583333864,"{11: 1, 63: 1, 28: 1, 32: 1, 8: 6}","[8, 11, 28, 32, 63]",86111281321631,Na1Eu1Ni1Ge1O6
NaNiIO6,mp-545399,1.7121000000000002,1.76968596,0.0,"{11: 1, 28: 1, 53: 1, 8: 6}","[8, 11, 28, 53]",86111281531,Na1Ni1I1O6