formula,material_id,band_gap,efermi,energy_above_hull,comp_atoms,sorted_keys_comp_atoms,comp_number,new_formula
HoMnNi2,mp-1224273,0.0,5.6144402,0.06431598385057669,"{67: 1, 25: 1, 28: 2}","[25, 28, 67]",251282671,Ho1Mn1Ni2
MnNi3,mp-11501,0.0,7.2372785,0.0,"{25: 1, 28: 3}","[25, 28]",251283,Mn1Ni3
YMnNi4,mp-1077362,0.0,5.85893789,0.032461854315131156,"{39: 1, 25: 1, 28: 4}","[25, 28, 39]",251284391,Y1Mn1Ni4
LaMnNi4,mp-1222879,0.0,7.62216566,0.03347835617816486,"{57: 1, 25: 1, 28: 4}","[25, 28, 57]",251284571,La1Mn1Ni4
CeMnNi4,mp-5951,0.0,7.74746711,0.03398594020594192,"{58: 1, 25: 1, 28: 4}","[25, 28, 58]",251284581,Ce1Mn1Ni4
PrMnNi4,mp-1219805,0.0,6.118225,0.028437856594839772,"{59: 1, 25: 1, 28: 4}","[25, 28, 59]",251284591,Pr1Mn1Ni4
ErMnNi4,mp-1077334,0.0,6.16494066,0.019210849731798874,"{68: 1, 25: 1, 28: 4}","[25, 28, 68]",251284681,Er1Mn1Ni4
MnGa2Ni9,mp-1222110,0.0,7.16186304,0.007107115833335342,"{25: 1, 31: 2, 28: 9}","[25, 28, 31]",251289312,Mn1Ga2Ni9
Nd6Mn16Ni7,mp-1193759,0.0,5.05588774,0.18239697398632604,"{60: 6, 25: 16, 28: 7}","[25, 28, 60]",2516287606,Nd6Mn16Ni7
Mn2CoNiSb2,mp-1221893,0.0,6.60056562,0.4077794806249999,"{25: 2, 27: 1, 28: 1, 51: 2}","[25, 27, 28, 51]",252271281512,Mn2Co1Ni1Sb2
Mn2CuNiSb2,mp-1221889,0.0,7.6023702,0.054881479166670744,"{25: 2, 29: 1, 28: 1, 51: 2}","[25, 28, 29, 51]",252281291512,Mn2Cu1Ni1Sb2
Mn2GaNi,mp-1222026,0.0,5.88627765,0.0848165949999995,"{25: 2, 31: 1, 28: 1}","[25, 28, 31]",252281311,Mn2Ga1Ni1
Mn2NiSn,mp-1221821,0.0,8.41828074,0.1874318320166255,"{25: 2, 28: 1, 50: 1}","[25, 28, 50]",252281501,Mn2Ni1Sn1
Mn2NiSb,mp-1206364,0.0,8.88071354,0.21356754801724165,"{25: 2, 28: 1, 51: 1}","[25, 28, 51]",252281511,Mn2Ni1Sb1
Mn2NiSb2Pt,mp-1221816,0.0,7.20431652,0.011411634999999087,"{25: 2, 28: 1, 51: 2, 78: 1}","[25, 28, 51, 78]",252281512781,Mn2Ni1Sb2Pt1
LaMn2Ni3,mp-1025065,0.0,7.31107009,0.05572169985632858,"{57: 1, 25: 2, 28: 3}","[25, 28, 57]",252283571,La1Mn2Ni3
SmMn2Ni3,mp-1219013,0.0,5.65412121,0.9530138190229867,"{62: 1, 25: 2, 28: 3}","[25, 28, 62]",252283621,Sm1Mn2Ni3
ThMn2Ni3,mp-1217327,0.0,7.14176753,0.06656681610632198,"{90: 1, 25: 2, 28: 3}","[25, 28, 90]",252283901,Th1Mn2Ni3
Zr3(MnNi2)2,mp-1215885,0.0,5.9942711,0.043780823888889486,"{40: 3, 25: 2, 28: 4}","[25, 28, 40]",252284403,Zr3Mn2Ni4
SmGd(MnNi4)2,mp-1219111,0.0,5.97012413,0.5689694753568011,"{62: 1, 64: 1, 25: 2, 28: 8}","[25, 28, 62, 64]",252288621641,Sm1Gd1Mn2Ni8
LaMn3Ni2,mp-16857,0.0,6.55553052,0.1527848854789271,"{57: 1, 25: 3, 28: 2}","[25, 28, 57]",253282571,La1Mn3Ni2
ThMn3Ni2,mp-1217318,0.0,6.91332069,0.1566173593678144,"{90: 1, 25: 3, 28: 2}","[25, 28, 90]",253282901,Th1Mn3Ni2
Mn3Ni3Sn2,mp-1221922,0.0,8.48894824,0.0704081379633621,"{25: 3, 28: 3, 50: 2}","[25, 28, 50]",253283502,Mn3Ni3Sn2
Mn3Ni4Sn,mp-1221827,0.0,7.69369847,0.0332546576957613,"{25: 3, 28: 4, 50: 1}","[25, 28, 50]",253284501,Mn3Ni4Sn1
Mn3Ni4Sb,mp-1221776,0.0,7.88203474,0.05093144650862058,"{25: 3, 28: 4, 51: 1}","[25, 28, 51]",253284511,Mn3Ni4Sb1
Mn3Ga4Ni9,mp-1188501,0.0,6.99698589,0.012845498749998185,"{25: 3, 31: 4, 28: 9}","[25, 28, 31]",253289314,Mn3Ga4Ni9
Mn4CoNi3Ge4,mp-1222036,0.0,7.25880601,0.007880797916666182,"{25: 4, 27: 1, 28: 3, 32: 4}","[25, 27, 28, 32]",254271283324,Mn4Co1Ni3Ge4
Mn4NiSe5,mp-1222176,0.0,5.50653846,0.248623658333333,"{25: 4, 28: 1, 34: 5}","[25, 28, 34]",254281345,Mn4Ni1Se5
Nd18Mn49Ni20,mp-1222177,0.0,4.93328866,0.18239705455608402,"{60: 18, 25: 49, 28: 20}","[25, 28, 60]",254928206018,Nd18Mn49Ni20
Mn5(NiBi2)2,mp-510113,0.0,6.35600646,0.17432267094914433,"{25: 5, 28: 2, 83: 4}","[25, 28, 83]",255282834,Mn5Ni2Bi4
Ce2(MnNi)5,mp-1226973,0.0,6.81883134,0.0828475426676274,"{58: 2, 25: 5, 28: 5}","[25, 28, 58]",255285582,Ce2Mn5Ni5
Mn5Ni8Sn3,mp-1221389,0.0,8.44240757,0.03088020536548175,"{25: 5, 28: 8, 50: 3}","[25, 28, 50]",255288503,Mn5Ni8Sn3
Mn6Ni16Ge7,mp-1194507,0.0,7.63159882,0.13018882533590936,"{25: 6, 28: 16, 32: 7}","[25, 28, 32]",2562816327,Mn6Ni16Ge7
Mn6Ni16As7,mp-21628,0.0,7.78833279,0.004603341060024135,"{25: 6, 28: 16, 33: 7}","[25, 28, 33]",2562816337,Mn6Ni16As7
CeMn7Ni5,mp-1226703,0.0,6.75894164,0.20004396188328943,"{58: 1, 25: 7, 28: 5}","[25, 28, 58]",257285581,Ce1Mn7Ni5
Mn7Ni8Sn,mp-1221903,0.0,7.14860726,0.03391757627604086,"{25: 7, 28: 8, 50: 1}","[25, 28, 50]",257288501,Mn7Ni8Sn1
Sm(Mn2Ni)4,mp-1103904,0.0,5.8031125,0.5950452638748871,"{62: 1, 25: 8, 28: 4}","[25, 28, 62]",258284621,Sm1Mn8Ni4
FeNi,mp-2213,0.0,6.83864477,0.0,"{26: 1, 28: 1}","[26, 28]",261281,Fe1Ni1
FeCuNi,mp-1224973,0.0,7.12809048,0.1156175699999995,"{26: 1, 29: 1, 28: 1}","[26, 28, 29]",261281291,Fe1Cu1Ni1
FeNiGe,mp-1206550,0.0,7.84451223,0.0863127226388869,"{26: 1, 28: 1, 32: 1}","[26, 28, 32]",261281321,Fe1Ni1Ge1
FeNiAs,mp-1080824,0.0,7.97508306,0.0892008770138899,"{26: 1, 28: 1, 33: 1}","[26, 28, 33]",261281331,Fe1Ni1As1
FeNiAs4,mp-1224951,0.0,6.61935191,0.004083650625002377,"{26: 1, 28: 1, 33: 4}","[26, 28, 33]",261281334,Fe1Ni1As4
FeNiSe4,mp-1224875,0.0,6.47614308,0.06427996249999879,"{26: 1, 28: 1, 34: 4}","[26, 28, 34]",261281344,Fe1Ni1Se4
YFeNi,mp-1215987,0.0,5.26628173,0.08217402916667016,"{39: 1, 26: 1, 28: 1}","[26, 28, 39]",261281391,Y1Fe1Ni1
Zr4FeNi,mp-1215366,0.0,4.7885061,0.019898161166667094,"{40: 4, 26: 1, 28: 1}","[26, 28, 40]",261281404,Zr4Fe1Ni1
FeNiMo,mp-631256,0.0,5.82699117,0.6041609266666645,"{26: 1, 28: 1, 42: 1}","[26, 28, 42]",261281421,Fe1Ni1Mo1
InFeNi,mp-1206342,0.0,8.15335748,0.23298991833333282,"{49: 1, 26: 1, 28: 1}","[26, 28, 49]",261281491,In1Fe1Ni1
FeNiSn,mp-1025011,0.0,9.22353256,0.1758635929761896,"{26: 1, 28: 1, 50: 1}","[26, 28, 50]",261281501,Fe1Ni1Sn1
FeNiSb4,mp-1224810,0.0,8.42901522,0.01625156783333548,"{26: 1, 28: 1, 51: 4}","[26, 28, 51]",261281514,Fe1Ni1Sb4
FeNiSb6,mp-1224908,0.12849999999999984,7.39404753,0.0,"{26: 1, 28: 1, 51: 6}","[26, 28, 51]",261281516,Fe1Ni1Sb6
FeNiTe4,mp-1224910,0.0,8.73248383,0.058188330833333524,"{26: 1, 28: 1, 52: 4}","[26, 28, 52]",261281524,Fe1Ni1Te4
DyFeNi,mp-1225668,0.0,5.59195348,0.09686275166666825,"{66: 1, 26: 1, 28: 1}","[26, 28, 66]",261281661,Dy1Fe1Ni1
HoFeNi,mp-1223954,0.0,5.57275437,0.08958769333333638,"{67: 1, 26: 1, 28: 1}","[26, 28, 67]",261281671,Ho1Fe1Ni1
ErFeNi,mp-1225564,0.0,5.25245367,0.05718073750000219,"{68: 1, 26: 1, 28: 1}","[26, 28, 68]",261281681,Er1Fe1Ni1
FeNiPt2,mp-13463,0.0,6.8250122,0.0,"{26: 1, 28: 1, 78: 2}","[26, 28, 78]",261281782,Fe1Ni1Pt2
FeNiPt6,mp-1224947,0.0,7.05143646,0.0,"{26: 1, 28: 1, 78: 6}","[26, 28, 78]",261281786,Fe1Ni1Pt6
U12FeNi,mp-1216984,0.0,13.9960501,0.03400549801339636,"{92: 12, 26: 1, 28: 1}","[26, 28, 92]",2612819212,U12Fe1Ni1
FeNi2,mp-1072076,0.0,6.62675295,0.18584447666666737,"{26: 1, 28: 2}","[26, 28]",261282,Fe1Ni2
GaFeNi2,mp-1018074,0.0,6.69891359,0.05217974916666801,"{31: 1, 26: 1, 28: 2}","[26, 28, 31]",261282311,Ga1Fe1Ni2
FeNi2Ge,mp-1225094,0.0,8.18045895,0.0839119583333332,"{26: 1, 28: 2, 32: 1}","[26, 28, 32]",261282321,Fe1Ni2Ge1
Fe(NiAs)2,mp-1224728,0.0,6.28473504,0.10338276375,"{26: 1, 28: 2, 33: 2}","[26, 28, 33]",261282332,Fe1Ni2As2
Fe(NiSe2)2,mp-1025359,0.0,5.94645578,0.06037787880952905,"{26: 1, 28: 2, 34: 4}","[26, 28, 34]",261282344,Fe1Ni2Se4
FeNi3,mp-1418,0.0,7.50050958,0.0,"{26: 1, 28: 3}","[26, 28]",261283,Fe1Ni3
LaFeCuNi3,mp-1222950,0.0,7.69141819,0.05586676624999409,"{57: 1, 26: 1, 29: 1, 28: 3}","[26, 28, 29, 57]",261283291571,La1Fe1Cu1Ni3
YFeNi4,mp-1215961,0.0,6.10097569,0.05261772791666708,"{39: 1, 26: 1, 28: 4}","[26, 28, 39]",261284391,Y1Fe1Ni4
LaFeNi4,mp-1222931,0.0,7.90568451,0.051083539166669745,"{57: 1, 26: 1, 28: 4}","[26, 28, 57]",261284571,La1Fe1Ni4
CeFeNi4,mp-1226721,0.0,7.27481001,0.1269848731944485,"{58: 1, 26: 1, 28: 4}","[26, 28, 58]",261284581,Ce1Fe1Ni4
PrFeNi4,mp-1219997,0.0,6.12692225,0.04415825625001357,"{59: 1, 26: 1, 28: 4}","[26, 28, 59]",261284591,Pr1Fe1Ni4
NdFeNi4,mp-1220174,0.0,6.11725778,0.04609953277779244,"{60: 1, 26: 1, 28: 4}","[26, 28, 60]",261284601,Nd1Fe1Ni4
SmFeNi4,mp-1219065,0.0,5.95447431,1.097903492916668,"{62: 1, 26: 1, 28: 4}","[26, 28, 62]",261284621,Sm1Fe1Ni4
GdFeNi4,mp-1224630,0.0,5.98186545,0.04751916333333561,"{64: 1, 26: 1, 28: 4}","[26, 28, 64]",261284641,Gd1Fe1Ni4
TbFeNi4,mp-1217544,0.0,6.12550604,0.05233821833333696,"{65: 1, 26: 1, 28: 4}","[26, 28, 65]",261284651,Tb1Fe1Ni4
DyFeNi4,mp-1225612,0.0,6.08761925,0.055617868749998856,"{66: 1, 26: 1, 28: 4}","[26, 28, 66]",261284661,Dy1Fe1Ni4
HoFeNi4,mp-1223882,0.0,6.06887578,0.05478970791666615,"{67: 1, 26: 1, 28: 4}","[26, 28, 67]",261284671,Ho1Fe1Ni4
ErFeNi4,mp-1225589,0.0,6.17849842,0.06031940166666683,"{68: 1, 26: 1, 28: 4}","[26, 28, 68]",261284681,Er1Fe1Ni4
ThFeNi4,mp-1217342,0.0,7.53110153,0.050981019305559094,"{90: 1, 26: 1, 28: 4}","[26, 28, 90]",261284901,Th1Fe1Ni4
LaFe(Ni2Ge)4,mp-1224721,0.0,7.69481193,0.019954147500010677,"{57: 1, 26: 1, 28: 8, 32: 4}","[26, 28, 32, 57]",261288324571,La1Fe1Ni8Ge4
CeFe(Ni2Ge)4,mp-1228034,0.0,6.96762358,0.04292599607143632,"{58: 1, 26: 1, 28: 8, 32: 4}","[26, 28, 32, 58]",261288324581,Ce1Fe1Ni8Ge4
Ga2FeNi9,mp-1225169,0.0,7.33565072,0.004936184166666635,"{31: 2, 26: 1, 28: 9}","[26, 28, 31]",261289312,Ga2Fe1Ni9
Fe2Ni,mp-1224697,0.0,6.05023889,0.08932948666666718,"{26: 2, 28: 1}","[26, 28]",262281,Fe2Ni1
Fe2CuNiPt4,mp-1224737,0.0,6.9417377,0.03267459375000037,"{26: 2, 29: 1, 28: 1, 78: 4}","[26, 28, 29, 78]",262281291784,Fe2Cu1Ni1Pt4
GaFe2Ni,mp-622990,0.0,5.90093716,0.18767318403846112,"{31: 1, 26: 2, 28: 1}","[26, 28, 31]",262281311,Ga1Fe2Ni1
Fe2NiSe4,mp-2650313,0.0,5.71257889,0.0716487636904759,"{26: 2, 28: 1, 34: 4}","[26, 28, 34]",262281344,Fe2Ni1Se4
ThFe2Ni3,mp-1217336,0.0,7.37642077,0.08159298208333343,"{90: 1, 26: 2, 28: 3}","[26, 28, 90]",262283901,Th1Fe2Ni3
GdTm(FeNi4)2,mp-1224982,0.0,5.98952944,0.05692869444444337,"{64: 1, 69: 1, 26: 2, 28: 8}","[26, 28, 64, 69]",262288641691,Gd1Tm1Fe2Ni8
Fe3Ni,mp-1224780,0.0,5.78244587,0.03959739749999969,"{26: 3, 28: 1}","[26, 28]",263281,Fe3Ni1
Fe3NiAs4,mp-1224770,0.0,7.3483745,0.0,"{26: 3, 28: 1, 33: 4}","[26, 28, 33]",263281334,Fe3Ni1As4
Fe3NiAs8,mp-1224768,0.0,6.63402744,0.002956911145836294,"{26: 3, 28: 1, 33: 8}","[26, 28, 33]",263281338,Fe3Ni1As8
Fe3NiSb8,mp-1224765,0.0,8.29334816,0.013763687083334197,"{26: 3, 28: 1, 51: 8}","[26, 28, 51]",263281518,Fe3Ni1Sb8
Dy2Fe3Ni,mp-1225304,0.0,4.85063674,0.04871244833333588,"{66: 2, 26: 3, 28: 1}","[26, 28, 66]",263281662,Dy2Fe3Ni1
Fe3Ni2,mp-1225009,0.0,6.08974408,0.02161789500000033,"{26: 3, 28: 2}","[26, 28]",263282,Fe3Ni2
Fe3Ni3Ge2,mp-1225085,0.0,7.69094856,0.1451257099999994,"{26: 3, 28: 3, 32: 2}","[26, 28, 32]",263283322,Fe3Ni3Ge2
Fe3Ni3Pt2,mp-1224927,0.0,7.05077524,0.0077131649999957475,"{26: 3, 28: 3, 78: 2}","[26, 28, 78]",263283782,Fe3Ni3Pt2
Fe4NiSe10,mp-1225243,0.0,6.14820608,0.02285738699999751,"{26: 4, 28: 1, 34: 10}","[26, 28, 34]",2642813410,Fe4Ni1Se10
ThFe4Ni,mp-1217349,0.0,6.3439585,0.04954177145832972,"{90: 1, 26: 4, 28: 1}","[26, 28, 90]",264281901,Th1Fe4Ni1
Th2(FeNi)5,mp-1217364,0.0,7.11888225,0.06433839770833671,"{90: 2, 26: 5, 28: 5}","[26, 28, 90]",265285902,Th2Fe5Ni5
Ho2Co12Ni5,mp-1204922,0.0,5.25427131,0.07386604780701678,"{67: 2, 27: 12, 28: 5}","[27, 28, 67]",2712285672,Ho2Co12Ni5
Er2Co12Ni5,mp-1203663,0.0,5.21934104,0.07474962008771868,"{68: 2, 27: 12, 28: 5}","[27, 28, 68]",2712285682,Er2Co12Ni5
CoNi,mp-1226076,0.0,6.51257403,0.030279887499997216,"{27: 1, 28: 1}","[27, 28]",271281,Co1Ni1
U2Ga10CoNi,mp-1216940,0.0,5.72563758,0.0,"{92: 2, 31: 10, 27: 1, 28: 1}","[27, 28, 31, 92]",2712813110922,U2Ga10Co1Ni1
Ga2CoNi,mp-1224798,0.0,6.48428868,0.02207934226190389,"{31: 2, 27: 1, 28: 1}","[27, 28, 31]",271281312,Ga2Co1Ni1
CoNiGe,mp-1226021,0.0,8.0414821,0.03192797666666536,"{27: 1, 28: 1, 32: 1}","[27, 28, 32]",271281321,Co1Ni1Ge1
UCoNiGe2,mp-1216374,0.0,9.07251895,0.0,"{92: 1, 27: 1, 28: 1, 32: 2}","[27, 28, 32, 92]",271281322921,U1Co1Ni1Ge2
CoNiAs,mp-1079542,0.0,7.78838707,0.062061907745098566,"{27: 1, 28: 1, 33: 1}","[27, 28, 33]",271281331,Co1Ni1As1
CoNiAs2,mp-1226009,0.0,7.17886362,0.03721882301136148,"{27: 1, 28: 1, 33: 2}","[27, 28, 33]",271281332,Co1Ni1As2
CoNiAs4,mp-1226018,0.0,6.32305035,0.01828925113095181,"{27: 1, 28: 1, 33: 4}","[27, 28, 33]",271281334,Co1Ni1As4
CoNiSe2,mp-1226013,0.0,6.97431972,0.09154634250000093,"{27: 1, 28: 1, 34: 2}","[27, 28, 34]",271281342,Co1Ni1Se2
TlCoNiSe2,mp-1216559,0.0,5.16208351,0.03762654128887988,"{81: 1, 27: 1, 28: 1, 34: 2}","[27, 28, 34, 81]",271281342811,Tl1Co1Ni1Se2
CoNiSe4,mp-1226084,0.0,6.32287331,0.010325226666665799,"{27: 1, 28: 1, 34: 4}","[27, 28, 34]",271281344,Co1Ni1Se4
YCoNi,mp-1215957,0.0,5.5109554,0.02530639683679592,"{39: 1, 27: 1, 28: 1}","[27, 28, 39]",271281391,Y1Co1Ni1
Y6CoNi,mp-1216144,0.0,3.84875205,0.01071996906250039,"{39: 6, 27: 1, 28: 1}","[27, 28, 39]",271281396,Y6Co1Ni1
ZrCoNi,mp-1215275,0.0,6.06531824,0.02665756642856998,"{40: 1, 27: 1, 28: 1}","[27, 28, 40]",271281401,Zr1Co1Ni1
Zr2CoNi,mp-1215600,0.0,5.01660185,0.0,"{40: 2, 27: 1, 28: 1}","[27, 28, 40]",271281402,Zr2Co1Ni1
Zr4CoNi,mp-1215379,0.0,4.67481754,0.006031905000000393,"{40: 4, 27: 1, 28: 1}","[27, 28, 40]",271281404,Zr4Co1Ni1
CoNiSn,mp-20237,0.0,9.08595449,0.15718554618055514,"{27: 1, 28: 1, 50: 1}","[27, 28, 50]",271281501,Co1Ni1Sn1
CoNiSb,mp-1025009,0.0,9.8345615,0.21443537666666757,"{27: 1, 28: 1, 51: 1}","[27, 28, 51]",271281511,Co1Ni1Sb1
CoNiSb6,mp-1226120,0.0,7.77245256,0.007232256562502926,"{27: 1, 28: 1, 51: 6}","[27, 28, 51]",271281516,Co1Ni1Sb6
CoNiTe2,mp-1226017,0.0,9.28427136,0.04929233804687527,"{27: 1, 28: 1, 52: 2}","[27, 28, 52]",271281522,Co1Ni1Te2
CoNiTe4,mp-1226048,0.0,7.28041692,0.0,"{27: 1, 28: 1, 52: 4}","[27, 28, 52]",271281524,Co1Ni1Te4
PrCoNi,mp-1219684,0.0,5.84398659,0.08479331166666526,"{59: 1, 27: 1, 28: 1}","[27, 28, 59]",271281591,Pr1Co1Ni1
Pm2CoNi,mp-1186456,0.0,4.38212957,0.0,"{61: 2, 27: 1, 28: 1}","[27, 28, 61]",271281612,Pm2Co1Ni1
DyCoNi,mp-1225312,0.0,5.6446634,0.023424421666661033,"{66: 1, 27: 1, 28: 1}","[27, 28, 66]",271281661,Dy1Co1Ni1
HoCoNi,mp-1223910,0.0,5.32268188,0.015254451666665503,"{67: 1, 27: 1, 28: 1}","[27, 28, 67]",271281671,Ho1Co1Ni1
ErCoNi,mp-1225599,0.0,5.47269832,0.02141186666666517,"{68: 1, 27: 1, 28: 1}","[27, 28, 68]",271281681,Er1Co1Ni1
Hf2CoNi,mp-1093932,0.0,-2.66415866,3.572934753750001,"{72: 2, 27: 1, 28: 1}","[27, 28, 72]",271281722,Hf2Co1Ni1
Ta4CoNi,mp-1217989,0.0,6.11127718,0.0,"{73: 4, 27: 1, 28: 1}","[27, 28, 73]",271281734,Ta4Co1Ni1
CoNiPt2,mp-1226004,0.0,7.33319697,0.0,"{27: 1, 28: 1, 78: 2}","[27, 28, 78]",271281782,Co1Ni1Pt2
UCoNi,mp-1216321,0.0,10.99495762,0.007436202500002764,"{92: 1, 27: 1, 28: 1}","[27, 28, 92]",271281921,U1Co1Ni1
Co(NiSe2)2,mp-1226512,0.0,6.05162997,0.01923108619047298,"{27: 1, 28: 2, 34: 4}","[27, 28, 34]",271282344,Co1Ni2Se4
CoNi2Sn,mp-1226203,0.0,8.84083582,0.22400402604166647,"{27: 1, 28: 2, 50: 1}","[27, 28, 50]",271282501,Co1Ni2Sn1
TaCoNi2,mp-1218015,0.0,7.21268781,0.0,"{73: 1, 27: 1, 28: 2}","[27, 28, 73]",271282731,Ta1Co1Ni2
CoNi3,mp-1183751,0.0,7.4805168,0.024802626250000515,"{27: 1, 28: 3}","[27, 28]",271283,Co1Ni3
Gd2CoNi3,mp-1225255,0.0,4.55586579,0.05273173245097773,"{64: 2, 27: 1, 28: 3}","[27, 28, 64]",271283642,Gd2Co1Ni3
LaCoNi4,mp-1222949,0.0,7.86357205,0.03793514250000385,"{57: 1, 27: 1, 28: 4}","[27, 28, 57]",271284571,La1Co1Ni4
Y2CoNi5,mp-1216367,0.0,6.00021592,0.017045911794872026,"{39: 2, 27: 1, 28: 5}","[27, 28, 39]",271285392,Y2Co1Ni5
GaCo2Ni,mp-1018060,0.0,6.17025892,0.07530284384615271,"{31: 1, 27: 2, 28: 1}","[27, 28, 31]",272281311,Ga1Co2Ni1
Co2NiSe4,mp-1025190,0.0,5.76476357,0.04124593071428784,"{27: 2, 28: 1, 34: 4}","[27, 28, 34]",272281344,Co2Ni1Se4
SmY(CoNi)2,mp-1219039,0.0,5.2442996,0.5955775831428562,"{62: 1, 39: 1, 27: 2, 28: 2}","[27, 28, 39, 62]",272282391621,Sm1Y1Co2Ni2
Co2Ni2Te5,mp-1226586,0.0,8.39777399,0.02857057203124569,"{27: 2, 28: 2, 52: 5}","[27, 28, 52]",272282525,Co2Ni2Te5
LaCo2Ni3,mp-1222937,0.0,7.73632611,0.09433801416667364,"{57: 1, 27: 2, 28: 3}","[27, 28, 57]",272283571,La1Co2Ni3
SmCo2Ni3,mp-1219076,0.0,5.73302341,0.9884230655952289,"{62: 1, 27: 2, 28: 3}","[27, 28, 62]",272283621,Sm1Co2Ni3
TbCo2Ni3,mp-1217588,0.0,5.77289057,0.043784326666673756,"{65: 1, 27: 2, 28: 3}","[27, 28, 65]",272283651,Tb1Co2Ni3
ThCo2Ni3,mp-1217356,0.0,7.15276691,0.00828652021241627,"{90: 1, 27: 2, 28: 3}","[27, 28, 90]",272283901,Th1Co2Ni3
U3(CoNi2)2,mp-1217393,0.0,10.76869905,0.03809627764957213,"{92: 3, 27: 2, 28: 4}","[27, 28, 92]",272284923,U3Co2Ni4
Co3Ni,mp-1183837,0.0,6.17925473,0.0,"{27: 3, 28: 1}","[27, 28]",273281,Co3Ni1
Tl2Co3NiSe4,mp-1216669,0.0,5.32709542,0.042338973899994414,"{81: 2, 27: 3, 28: 1, 34: 4}","[27, 28, 34, 81]",273281344812,Tl2Co3Ni1Se4
Co3NiSb12,mp-1226458,0.0,7.58881838,0.005023297656254755,"{27: 3, 28: 1, 51: 12}","[27, 28, 51]",2732815112,Co3Ni1Sb12
Tb2Co3Ni,mp-1217693,0.0,5.24886197,0.004905761944442588,"{65: 2, 27: 3, 28: 1}","[27, 28, 65]",273281652,Tb2Co3Ni1
YCo3Ni2,mp-1215948,0.0,5.42006703,0.04128338390624542,"{39: 1, 27: 3, 28: 2}","[27, 28, 39]",273282391,Y1Co3Ni2
LaCo3Ni2,mp-1211224,0.0,7.1514381,0.07202322111111137,"{57: 1, 27: 3, 28: 2}","[27, 28, 57]",273282571,La1Co3Ni2
PrCo3Ni2,mp-1219681,0.0,5.14523378,0.05383330249999929,"{59: 1, 27: 3, 28: 2}","[27, 28, 59]",273282591,Pr1Co3Ni2
SmCo3Ni2,mp-1219088,0.0,4.85612492,0.6365380842172597,"{62: 1, 27: 3, 28: 2}","[27, 28, 62]",273282621,Sm1Co3Ni2
HoCo3Ni2,mp-1223880,0.0,5.36268698,0.04458499666666693,"{67: 1, 27: 3, 28: 2}","[27, 28, 67]",273282671,Ho1Co3Ni2
ErCo3Ni2,mp-1225558,0.0,5.37844547,0.047410591666666946,"{68: 1, 27: 3, 28: 2}","[27, 28, 68]",273282681,Er1Co3Ni2
Zr5Co4Ni,mp-1215360,0.0,4.86416927,0.036108173999997994,"{40: 5, 27: 4, 28: 1}","[27, 28, 40]",274281405,Zr5Co4Ni1
Co4NiSb12,mp-1106327,0.0,7.81874479,0.16005743897058622,"{27: 4, 28: 1, 51: 12}","[27, 28, 51]",2742815112,Co4Ni1Sb12
HoCo4Ni,mp-1223872,0.0,4.97276358,0.04476547428030209,"{67: 1, 27: 4, 28: 1}","[27, 28, 67]",274281671,Ho1Co4Ni1
Co4Cu3(NiSe6)2,mp-1226198,0.0,4.62406753,0.0,"{27: 4, 29: 3, 28: 2, 34: 12}","[27, 28, 29, 34]",2742822933412,Co4Cu3Ni2Se12
SmY(Co2Ni3)2,mp-1219012,0.0,5.54622734,0.6164627965010645,"{62: 1, 39: 1, 27: 4, 28: 6}","[27, 28, 39, 62]",274286391621,Sm1Y1Co4Ni6
PrSm(Co2Ni3)2,mp-1219759,0.0,5.44293968,0.6142877454166671,"{59: 1, 62: 1, 27: 4, 28: 6}","[27, 28, 59, 62]",274286591621,Pr1Sm1Co4Ni6
TbSm(Co2Ni3)2,mp-1217504,0.0,5.40792224,0.6544923111111052,"{65: 1, 62: 1, 27: 4, 28: 6}","[27, 28, 62, 65]",274286621651,Tb1Sm1Co4Ni6
SmEr(Co2Ni3)2,mp-1219109,0.0,5.55647562,0.6212444379861006,"{62: 1, 68: 1, 27: 4, 28: 6}","[27, 28, 62, 68]",274286621681,Sm1Er1Co4Ni6
Y2(CoNi)5,mp-1216167,0.0,5.54603243,0.07848108008546273,"{39: 2, 27: 5, 28: 5}","[27, 28, 39]",275285392,Y2Co5Ni5
LaCe(CoNi)5,mp-1223140,0.0,7.21597909,0.07338558139550244,"{57: 1, 58: 1, 27: 5, 28: 5}","[27, 28, 57, 58]",275285571581,La1Ce1Co5Ni5
La2(CoNi)5,mp-1223263,0.0,7.47678433,0.0914685887500033,"{57: 2, 27: 5, 28: 5}","[27, 28, 57]",275285572,La2Co5Ni5
Pr2(CoNi)5,mp-1219955,0.0,5.63498069,0.0803077437500006,"{59: 2, 27: 5, 28: 5}","[27, 28, 59]",275285592,Pr2Co5Ni5
Nd2(CoNi)5,mp-1220439,0.0,5.60336767,0.07644721729166637,"{60: 2, 27: 5, 28: 5}","[27, 28, 60]",275285602,Nd2Co5Ni5
Sm2(CoNi)5,mp-1219225,0.0,5.43369435,0.8240837116071367,"{62: 2, 27: 5, 28: 5}","[27, 28, 62]",275285622,Sm2Co5Ni5
Ho2(CoNi)5,mp-1224084,0.0,5.4822098,0.08323999527778092,"{67: 2, 27: 5, 28: 5}","[27, 28, 67]",275285672,Ho2Co5Ni5
PrY(Co3Ni2)2,mp-1219786,0.0,5.14522361,0.06861549722222104,"{59: 1, 39: 1, 27: 6, 28: 4}","[27, 28, 39, 59]",276284391591,Pr1Y1Co6Ni4
Ni,mp-23,0.0,8.06383486,0.0,{28: 1},[28],281,Ni1
Y4Ga21Ni10,mp-1201076,0.0,5.10656032,0.0026877311428572526,"{39: 4, 31: 21, 28: 10}","[28, 31, 39]",28103121394,Y4Ga21Ni10
Tb4Ga21Ni10,mp-1203178,0.0,5.15184254,0.0,"{65: 4, 31: 21, 28: 10}","[28, 31, 65]",28103121654,Tb4Ga21Ni10
Dy4Ga21Ni10,mp-1185142,0.0,5.10720127,0.0,"{66: 4, 31: 21, 28: 10}","[28, 31, 66]",28103121664,Dy4Ga21Ni10
Ho4Ga21Ni10,mp-581730,0.0,5.17489742,0.0014796637142850955,"{67: 4, 31: 21, 28: 10}","[28, 31, 67]",28103121674,Ho4Ga21Ni10