formula,material_id,band_gap,efermi,energy_above_hull,comp_atoms,sorted_keys_comp_atoms,comp_number,new_formula
BaSm(NiO3)4,mp-1521346,0.0,1.33604221,0.3987283040740728,"{56: 1, 62: 1, 28: 4, 8: 12}","[8, 28, 56, 62]",812284561621,Ba1Sm1Ni4O12
BaDy(NiO3)4,mp-1518737,0.0,1.43744286,0.41415266976851406,"{56: 1, 66: 1, 28: 4, 8: 12}","[8, 28, 56, 66]",812284561661,Ba1Dy1Ni4O12
LaEu3(NiO3)4,mp-1223280,0.0,4.22673452,0.11021355206249872,"{57: 1, 63: 3, 28: 4, 8: 12}","[8, 28, 57, 63]",812284571633,La1Eu3Ni4O12
LaNi4(BiO4)3,mp-1222967,0.43409999999999993,6.09195541,0.023699129749993553,"{57: 1, 28: 4, 83: 3, 8: 12}","[8, 28, 57, 83]",812284571833,La1Ni4Bi3O12
NdSm(NiO3)4,mp-1521987,0.0,2.14997538,0.3920446897685137,"{60: 1, 62: 1, 28: 4, 8: 12}","[8, 28, 60, 62]",812284601621,Nd1Sm1Ni4O12
NdDy(NiO3)4,mp-1521174,0.0,1.89443435,0.3847875726851857,"{60: 1, 66: 1, 28: 4, 8: 12}","[8, 28, 60, 66]",812284601661,Nd1Dy1Ni4O12
SmEu(NiO3)4,mp-1521550,0.0,0.16730555,0.7585637240972183,"{62: 1, 63: 1, 28: 4, 8: 12}","[8, 28, 62, 63]",812284621631,Sm1Eu1Ni4O12
SmDy(NiO3)4,mp-1521868,0.0,2.11323762,0.34641233560185203,"{62: 1, 66: 1, 28: 4, 8: 12}","[8, 28, 62, 66]",812284621661,Sm1Dy1Ni4O12
EuDy(NiO3)4,mp-1519890,0.0,3.65492801,0.9369850059027867,"{63: 1, 66: 1, 28: 4, 8: 12}","[8, 28, 63, 66]",812284631661,Eu1Dy1Ni4O12
Ni5(AsO6)2,mp-1105634,0.0,3.15813845,0.07508604072367309,"{28: 5, 33: 2, 8: 12}","[8, 28, 33]",812285332,Ni5As2O12
Ni5Se4(BrO6)2,mp-555343,2.8709000000000007,1.90352717,0.0,"{28: 5, 34: 4, 35: 2, 8: 12}","[8, 28, 34, 35]",812285344352,Ni5Se4Br2O12
Ni5Te4(BrO6)2,mp-704879,0.0,3.36689233,0.0,"{28: 5, 52: 4, 35: 2, 8: 12}","[8, 28, 35, 52]",812285352524,Ni5Te4Br2O12
Ni5(TeO6)2,mp-756164,0.0,3.67090775,0.09869080631579319,"{28: 5, 52: 2, 8: 12}","[8, 28, 52]",812285522,Ni5Te2O12
NiO,mp-19009,2.3008999999999995,5.87177732,0.0,"{28: 1, 8: 1}","[8, 28]",81281,Ni1O1
LaNiAsO,mp-1079362,0.0,7.41855856,0.45237518784970376,"{57: 1, 28: 1, 33: 1, 8: 1}","[8, 28, 33, 57]",81281331571,La1Ni1As1O1
CeNiAsO,mp-1079455,0.0,7.62168983,0.4414877507415671,"{58: 1, 28: 1, 33: 1, 8: 1}","[8, 28, 33, 58]",81281331581,Ce1Ni1As1O1
La2NiAs2O,mp-1213453,0.0,4.37158785,1.676954332245371,"{57: 2, 28: 1, 33: 2, 8: 1}","[8, 28, 33, 57]",81281332572,La2Ni1As2O1
NiBrO,mp-1094095,0.0,3.46970616,0.15614133260416718,"{28: 1, 35: 1, 8: 1}","[8, 28, 35]",81281351,Ni1Br1O1
Zr3NiO,mp-18927,0.0,5.70757894,0.4044082145000001,"{40: 3, 28: 1, 8: 1}","[8, 28, 40]",81281403,Zr3Ni1O1
Zr4Ni2O,mp-21602,0.0,5.34054116,0.5451823789285726,"{40: 4, 28: 2, 8: 1}","[8, 28, 40]",81282404,Zr4Ni2O1
Zr6Ni2O,mp-1215349,0.0,5.28478211,0.4992278902777745,"{40: 6, 28: 2, 8: 1}","[8, 28, 40]",81282406,Zr6Ni2O1
Ni4O,mp-1094082,0.0,6.39835345,1.3899643210000008,"{28: 4, 8: 1}","[8, 28]",81284,Ni4O1
ZrNi4O,mp-1206021,0.0,6.23880803,2.2013161254166667,"{40: 1, 28: 4, 8: 1}","[8, 28, 40]",81284401,Zr1Ni4O1
Nb6Ni6O,mp-541419,0.0,6.54392635,1.0495862002051313,"{41: 6, 28: 6, 8: 1}","[8, 28, 41]",81286416,Nb6Ni6O1
NiAs2S6(OF)12,mp-559097,1.627,0.35189505,0.020021874848484167,"{28: 1, 33: 2, 16: 6, 8: 12, 9: 12}","[8, 9, 16, 28, 33]",812912166281332,Ni1As2S6O12F12
MgNi3P3O13,mp-1047865,0.0,1.91360806,0.13660546743749968,"{12: 1, 28: 3, 15: 3, 8: 13}","[8, 12, 15, 28]",813121153283,Mg1Ni3P3O13
MgNi9O13,mp-1233591,0.0,4.22746471,0.12314075798309254,"{12: 1, 28: 9, 8: 13}","[8, 12, 28]",813121289,Mg1Ni9O13
Mg2Ni9O13,mp-1045897,0.0,4.80403107,0.053578937291666406,"{12: 2, 28: 9, 8: 13}","[8, 12, 28]",813122289,Mg2Ni9O13
VCdNiP2O13,mp-1217198,0.20209999999999995,-0.44358762,0.3585543640354878,"{23: 1, 48: 1, 28: 1, 15: 2, 8: 13}","[8, 15, 23, 28, 48]",813152231281481,V1Cd1Ni1P2O13
Ni3P3O13,mp-1048029,0.0,0.3344247,0.19608860105263126,"{28: 3, 15: 3, 8: 13}","[8, 15, 28]",813153283,Ni3P3O13
ZnNi3P3O13,mp-1048030,0.0,1.65271448,0.13922890858333137,"{30: 1, 28: 3, 15: 3, 8: 13}","[8, 15, 28, 30]",813153283301,Zn1Ni3P3O13
Ca2Ni9O13,mp-1045953,0.0,4.43446371,0.05193966499999991,"{20: 2, 28: 9, 8: 13}","[8, 20, 28]",813202289,Ca2Ni9O13
Cu2Ni11O13,mp-757285,0.0,6.39937346,1.0154210071153855,"{29: 2, 28: 11, 8: 13}","[8, 28, 29]",8132811292,Cu2Ni11O13
Zn2Ni11O13,mp-1101164,1.963,5.17620045,0.05461295711538394,"{30: 2, 28: 11, 8: 13}","[8, 28, 30]",8132811302,Zn2Ni11O13
NiTe6O13,mp-1196304,2.9767,4.51757128,0.014088162749999356,"{28: 1, 52: 6, 8: 13}","[8, 28, 52]",813281526,Ni1Te6O13
Ni9O13,mp-1045896,0.0,3.54183329,0.1886663048863637,"{28: 9, 8: 13}","[8, 28]",813289,Ni9O13
Zn2Ni9O13,mp-1045893,0.0,4.44189327,0.0772285902083345,"{30: 2, 28: 9, 8: 13}","[8, 28, 30]",813289302,Zn2Ni9O13
Na2ZrNi(P2O7)2,mp-18984,3.5821000000000005,1.48218906,0.029844093806812744,"{11: 2, 40: 1, 28: 1, 15: 4, 8: 14}","[8, 11, 15, 28, 40]",814112154281401,Na2Zr1Ni1P4O14
Na2Ni3(P2O7)2,mp-761052,3.7435,2.04745067,0.008866211618354214,"{11: 2, 28: 3, 15: 4, 8: 14}","[8, 11, 15, 28]",814112154283,Na2Ni3P4O14
Na2Ni(SO7)2,mp-1210821,0.0,-0.63359093,0.5008725481578962,"{11: 2, 28: 1, 16: 2, 8: 14}","[8, 11, 16, 28]",814112162281,Na2Ni1S2O14
Na2(NiO2)7,mp-761163,0.3178000000000001,1.84427254,0.03208015434782485,"{11: 2, 28: 7, 8: 14}","[8, 11, 28]",814112287,Na2Ni7O14
Na6(NiO2)7,mp-850287,0.0,3.57870378,0.010267451296276597,"{11: 6, 28: 7, 8: 14}","[8, 11, 28]",814116287,Na6Ni7O14
MgNi3(P2O7)2,mp-1043448,3.6574000000000004,2.91414346,0.04667826926136698,"{12: 1, 28: 3, 15: 4, 8: 14}","[8, 12, 15, 28]",814121154283,Mg1Ni3P4O14
Mg3Si4(NiO7)2,mp-1267433,0.2040999999999995,3.8078574,0.12731403456521306,"{12: 3, 14: 4, 28: 2, 8: 14}","[8, 12, 14, 28]",814123144282,Mg3Si4Ni2O14
KAl2NiP3O14,mp-1211858,0.02399999999999991,0.95693622,0.18725037791665144,"{19: 1, 13: 2, 28: 1, 15: 3, 8: 14}","[8, 13, 15, 19, 28]",814132153191281,K1Al2Ni1P3O14
SiNi2(P2O7)2,mp-554616,4.1276,1.68636054,0.003049850555560063,"{14: 1, 28: 2, 15: 4, 8: 14}","[8, 14, 15, 28]",814141154282,Si1Ni2P4O14
Ca3Si4(NiO7)2,mp-1248859,0.4668000000000001,3.37794141,0.058475768043482645,"{20: 3, 14: 4, 28: 2, 8: 14}","[8, 14, 20, 28]",814144203282,Ca3Si4Ni2O14
Zn3Si4(NiO7)2,mp-1266176,0.0,3.01783727,0.12270217260869387,"{30: 3, 14: 4, 28: 2, 8: 14}","[8, 14, 28, 30]",814144282303,Zn3Si4Ni2O14
CaNi2(P2O7)2,mp-1340075,0.0,1.25675231,0.07590671714285513,"{20: 1, 28: 2, 15: 4, 8: 14}","[8, 15, 20, 28]",814154201282,Ca1Ni2P4O14
CaNi3(P2O7)2,mp-19473,4.0017,2.83381266,0.0,"{20: 1, 28: 3, 15: 4, 8: 14}","[8, 15, 20, 28]",814154201283,Ca1Ni3P4O14
Ni3(P2O7)2,mp-25992,0.0,1.84570195,0.06180978273809501,"{28: 3, 15: 4, 8: 14}","[8, 15, 28]",814154283,Ni3P4O14
ZnNi3(P2O7)2,mp-1043713,3.1799999999999997,2.79385106,0.05730518519886019,"{30: 1, 28: 3, 15: 4, 8: 14}","[8, 15, 28, 30]",814154283301,Zn1Ni3P4O14
SrNi3(P2O7)2,mp-19211,0.8425999999999996,3.82083203,0.0,"{38: 1, 28: 3, 15: 4, 8: 14}","[8, 15, 28, 38]",814154283381,Sr1Ni3P4O14
Ni3P4PbO14,mp-651726,4.184699999999999,2.92625103,0.0,"{28: 3, 15: 4, 82: 1, 8: 14}","[8, 15, 28, 82]",814154283821,Ni3P4Pb1O14
NiP5O14,mp-818273,0.248,0.56539709,0.04508562143749817,"{28: 1, 15: 5, 8: 14}","[8, 15, 28]",814155281,Ni1P5O14
Rb2Ni(SO7)2,mp-1209857,0.026699999999999946,-1.89679128,0.4679933275657877,"{37: 2, 28: 1, 16: 2, 8: 14}","[8, 16, 28, 37]",814162281372,Rb2Ni1S2O14
Mn2NiO14,mp-1239107,0.0,-1.651152,0.7183068409803903,"{25: 2, 28: 1, 8: 14}","[8, 25, 28]",814252281,Mn2Ni1O14
Na4Ni3P4O15,mp-560780,3.8566000000000003,5.7237356,0.0,"{11: 4, 28: 3, 15: 4, 8: 15}","[8, 11, 15, 28]",815114154283,Na4Ni3P4O15
K2Ni4P4O15,mp-558324,0.3734000000000002,3.91106533,0.1513701680000068,"{19: 2, 28: 4, 15: 4, 8: 15}","[8, 15, 19, 28]",815154192284,K2Ni4P4O15
Ni3P4O15,mp-1101501,0.0,-0.18642061,0.1804614449999935,"{28: 3, 15: 4, 8: 15}","[8, 15, 28]",815154283,Ni3P4O15
Ni4P4O15,mp-585202,0.0,0.37646637,0.0621744727173974,"{28: 4, 15: 4, 8: 15}","[8, 15, 28]",815154284,Ni4P4O15
Tl2Ni4P4O15,mp-556824,3.3299,2.62875478,0.0,"{81: 2, 28: 4, 15: 4, 8: 15}","[8, 15, 28, 81]",815154284812,Tl2Ni4P4O15
Ni2(PO3)5,mp-704988,4.1198,0.40378134,0.0743961962500217,"{28: 2, 15: 5, 8: 15}","[8, 15, 28]",815155282,Ni2P5O15
BaSc6Ni4O15,mp-1214365,0.0,3.05650094,0.051446890432689685,"{56: 1, 21: 6, 28: 4, 8: 15}","[8, 21, 28, 56]",815216284561,Ba1Sc6Ni4O15
BaSc8Ni2O15,mp-1228045,3.8545,6.48678976,0.013740244919898004,"{56: 1, 21: 8, 28: 2, 8: 15}","[8, 21, 28, 56]",815218282561,Ba1Sc8Ni2O15
V8Ni2O15,mp-36484,0.0,4.72042149,0.04047958325001133,"{23: 8, 28: 2, 8: 15}","[8, 23, 28]",815238282,V8Ni2O15
V9NiO15,mp-677070,0.0,4.41903834,0.02799646214999818,"{23: 9, 28: 1, 8: 15}","[8, 23, 28]",815239281,V9Ni1O15
Sr4La4Cr(NiO5)3,mp-1173211,0.0,5.16551371,0.06587171708332829,"{38: 4, 57: 4, 24: 1, 28: 3, 8: 15}","[8, 24, 28, 38, 57]",815241283384574,Sr4La4Cr1Ni3O15
La5Fe4NiO15,mp-1223348,0.0,6.41700772,0.023563306000013995,"{57: 5, 26: 4, 28: 1, 8: 15}","[8, 26, 28, 57]",815264281575,La5Fe4Ni1O15
Ba4Y2Cu6NiO15,mp-1228275,0.0,3.1801445,0.020567683898804923,"{56: 4, 39: 2, 29: 6, 28: 1, 8: 15}","[8, 28, 29, 39, 56]",815281296392564,Ba4Y2Cu6Ni1O15
Ba4Nd2Cu6NiO15,mp-1228702,0.0,3.47983493,0.04408308619048196,"{56: 4, 60: 2, 29: 6, 28: 1, 8: 15}","[8, 28, 29, 56, 60]",815281296564602,Ba4Nd2Cu6Ni1O15
Ba4Dy2Cu6NiO15,mp-1228235,0.0,3.21873482,0.022608603392849425,"{56: 4, 66: 2, 29: 6, 28: 1, 8: 15}","[8, 28, 29, 56, 66]",815281296564662,Ba4Dy2Cu6Ni1O15
NiMo4O15,mp-1180053,0.45030000000000003,-0.09073188,0.17306718006249522,"{28: 1, 42: 4, 8: 15}","[8, 28, 42]",815281424,Ni1Mo4O15
BaIn8Ni2O15,mp-1228714,1.1979999999999995,5.9135574,0.01994010721153927,"{56: 1, 49: 8, 28: 2, 8: 15}","[8, 28, 49, 56]",815282498561,Ba1In8Ni2O15
Ba3Y4(NiO5)3,mp-1376017,0.0,2.00710661,0.1856227363000036,"{56: 3, 39: 4, 28: 3, 8: 15}","[8, 28, 39, 56]",815283394563,Ba3Y4Ni3O15
Ba3Y5(NiO5)3,mp-1048252,0.0,2.54709229,0.11196815437499996,"{56: 3, 39: 5, 28: 3, 8: 15}","[8, 28, 39, 56]",815283395563,Ba3Y5Ni3O15
Ba6(NiO3)5,mp-541426,0.0,3.96181456,0.0019600886538500006,"{56: 6, 28: 5, 8: 15}","[8, 28, 56]",815285566,Ba6Ni5O15
Na4Ni7O16,mp-777331,1.0171999999999999,1.6847295,0.07644430364196264,"{11: 4, 28: 7, 8: 16}","[8, 11, 28]",816114287,Na4Ni7O16
Na5(NiO2)8,mp-765844,0.0,2.87859521,0.005188084195401288,"{11: 5, 28: 8, 8: 16}","[8, 11, 28]",816115288,Na5Ni8O16
Na5Ni9O16,mp-765602,0.0,3.45715638,0.02936717983333459,"{11: 5, 28: 9, 8: 16}","[8, 11, 28]",816115289,Na5Ni9O16
Na6Ni(SO4)4,mp-1210276,4.1393,0.58583305,0.0,"{11: 6, 28: 1, 16: 4, 8: 16}","[8, 11, 16, 28]",816116164281,Na6Ni1S4O16
Na9Ni7O16,mp-760860,0.0,3.58125501,0.03340064544270849,"{11: 9, 28: 7, 8: 16}","[8, 11, 28]",816119287,Na9Ni7O16
MgFe7(Ni3O8)2,mp-1233210,1.2844000000000007,4.30039148,0.15839658074999718,"{12: 1, 26: 7, 28: 6, 8: 16}","[8, 12, 26, 28]",816121267286,Mg1Fe7Ni6O16
Mg14AlNiO16,mp-1036618,1.6296,6.67390111,0.06950582226562574,"{12: 14, 13: 1, 28: 1, 8: 16}","[8, 12, 13, 28]",8161214131281,Mg14Al1Ni1O16
Mg14SiNiO16,mp-1035009,0.0,8.68250018,0.20507277812499858,"{12: 14, 14: 1, 28: 1, 8: 16}","[8, 12, 14, 28]",8161214141281,Mg14Si1Ni1O16
CaMg14NiO16,mp-1036402,3.4417,4.42221936,0.03323652624999962,"{20: 1, 12: 14, 28: 1, 8: 16}","[8, 12, 20, 28]",8161214201281,Ca1Mg14Ni1O16
Mg14TiNiO16,mp-1034893,0.0,7.71511598,0.12010591195312514,"{12: 14, 22: 1, 28: 1, 8: 16}","[8, 12, 22, 28]",8161214221281,Mg14Ti1Ni1O16
Mg14VNiO16,mp-1034890,0.8666,6.83138145,0.04624649312499951,"{12: 14, 23: 1, 28: 1, 8: 16}","[8, 12, 23, 28]",8161214231281,Mg14V1Ni1O16
Mg14CrNiO16,mp-1034790,0.3653999999999993,7.0408781,0.06333936640624938,"{12: 14, 24: 1, 28: 1, 8: 16}","[8, 12, 24, 28]",8161214241281,Mg14Cr1Ni1O16
Mg14MnNiO16,mp-1036266,1.9752999999999998,5.95422242,0.011543739531250985,"{12: 14, 25: 1, 28: 1, 8: 16}","[8, 12, 25, 28]",8161214251281,Mg14Mn1Ni1O16
Mg14FeNiO16,mp-1035790,2.2325,5.41130868,0.024928650468749147,"{12: 14, 26: 1, 28: 1, 8: 16}","[8, 12, 26, 28]",8161214261281,Mg14Fe1Ni1O16
Mg14CoNiO16,mp-1035281,2.0385,5.03058399,0.007688299296875201,"{12: 14, 27: 1, 28: 1, 8: 16}","[8, 12, 27, 28]",8161214271281,Mg14Co1Ni1O16
Mg14CuNiO16,mp-1035352,0.0,5.31770066,0.025923643750001446,"{12: 14, 29: 1, 28: 1, 8: 16}","[8, 12, 28, 29]",8161214281291,Mg14Cu1Ni1O16
Mg14ZnNiO16,mp-1035175,2.8745000000000003,4.79740895,0.016331091562500788,"{12: 14, 30: 1, 28: 1, 8: 16}","[8, 12, 28, 30]",8161214281301,Mg14Zn1Ni1O16
SrMg14NiO16,mp-1034783,2.7086999999999994,4.74051747,0.09421071781249957,"{38: 1, 12: 14, 28: 1, 8: 16}","[8, 12, 28, 38]",8161214281381,Sr1Mg14Ni1O16
YMg14NiO16,mp-1036049,0.8548,6.690348,0.11694153873046798,"{39: 1, 12: 14, 28: 1, 8: 16}","[8, 12, 28, 39]",8161214281391,Y1Mg14Ni1O16
Mg14NbNiO16,mp-1034850,0.0,7.50173132,0.16478326521875175,"{12: 14, 41: 1, 28: 1, 8: 16}","[8, 12, 28, 41]",8161214281411,Mg14Nb1Ni1O16
Mg14CdNiO16,mp-1034717,2.8964,4.60748682,0.03786660843749878,"{12: 14, 48: 1, 28: 1, 8: 16}","[8, 12, 28, 48]",8161214281481,Mg14Cd1Ni1O16
Mg14NiSnO16,mp-1034997,0.0,8.12121328,0.13503498281249904,"{12: 14, 28: 1, 50: 1, 8: 16}","[8, 12, 28, 50]",8161214281501,Mg14Ni1Sn1O16
BaMg14NiO16,mp-1034854,0.8104000000000005,6.15482544,0.18822996781249923,"{56: 1, 12: 14, 28: 1, 8: 16}","[8, 12, 28, 56]",8161214281561,Ba1Mg14Ni1O16
HfMg14NiO16,mp-1034711,0.0,8.67912568,0.18584918632812553,"{72: 1, 12: 14, 28: 1, 8: 16}","[8, 12, 28, 72]",8161214281721,Hf1Mg14Ni1O16
Mg14NiBiO16,mp-1034577,0.8895000000000008,7.26183679,0.15216574000000005,"{12: 14, 28: 1, 83: 1, 8: 16}","[8, 12, 28, 83]",8161214281831,Mg14Ni1Bi1O16
Mg3Ni3(AsO4)4,mp-1041507,2.3202999999999996,2.16104185,0.07915401730769123,"{12: 3, 28: 3, 33: 4, 8: 16}","[8, 12, 28, 33]",816123283334,Mg3Ni3As4O16
Ca3Cu2Ni(PO4)4,mp-1227859,0.14829999999999988,2.84125081,0.0036863092948919984,"{20: 3, 29: 2, 28: 1, 15: 4, 8: 16}","[8, 15, 20, 28, 29]",816154203281292,Ca3Cu2Ni1P4O16
TiNi3(PO4)4,mp-774679,0.0,1.53529265,0.08330593083334392,"{22: 1, 28: 3, 15: 4, 8: 16}","[8, 15, 22, 28]",816154221283,Ti1Ni3P4O16
VNi3(PO4)4,mp-775192,0.007099999999999884,2.13322751,0.0883221941666541,"{23: 1, 28: 3, 15: 4, 8: 16}","[8, 15, 23, 28]",816154231283,V1Ni3P4O16
V3Ni(PO4)4,mp-1101186,0.8257000000000003,2.4998088,0.038365237604191194,"{23: 3, 28: 1, 15: 4, 8: 16}","[8, 15, 23, 28]",816154233281,V3Ni1P4O16
CrNi3(PO4)4,mp-754644,0.0,1.86801298,0.09672757427083134,"{24: 1, 28: 3, 15: 4, 8: 16}","[8, 15, 24, 28]",816154241283,Cr1Ni3P4O16
Cr3Ni(PO4)4,mp-775135,0.00990000000000002,2.05601135,0.05005927072916094,"{24: 3, 28: 1, 15: 4, 8: 16}","[8, 15, 24, 28]",816154243281,Cr3Ni1P4O16
MnNi3(PO4)4,mp-775024,0.0,1.71377699,0.07946265052083845,"{25: 1, 28: 3, 15: 4, 8: 16}","[8, 15, 25, 28]",816154251283,Mn1Ni3P4O16
Mn3Ni(PO4)4,mp-756391,0.0,1.88114548,0.02739326614583515,"{25: 3, 28: 1, 15: 4, 8: 16}","[8, 15, 25, 28]",816154253281,Mn3Ni1P4O16
FeNi3(PO4)4,mp-755553,0.0,1.58108854,0.09643149375000082,"{26: 1, 28: 3, 15: 4, 8: 16}","[8, 15, 26, 28]",816154261283,Fe1Ni3P4O16
Fe3Ni(PO4)4,mp-775017,0.0,1.38918833,0.05905176749998198,"{26: 3, 28: 1, 15: 4, 8: 16}","[8, 15, 26, 28]",816154263281,Fe3Ni1P4O16
Co3Ni(PO4)4,mp-775307,0.0,1.55840365,0.06613465531250196,"{27: 3, 28: 1, 15: 4, 8: 16}","[8, 15, 27, 28]",816154273281,Co3Ni1P4O16
NiSn3(PO4)4,mp-756765,0.29720000000000013,4.29077317,0.08693865767360442,"{28: 1, 50: 3, 15: 4, 8: 16}","[8, 15, 28, 50]",816154281503,Ni1Sn3P4O16
Sr2ZnNi2(PO4)4,mp-1657996,0.0,1.57645615,0.08086783426665622,"{38: 2, 30: 1, 28: 2, 15: 4, 8: 16}","[8, 15, 28, 30, 38]",816154282301382,Sr2Zn1Ni2P4O16
Ni3(PO4)4,mp-26264,0.0341,0.03764298,0.20326267336956771,"{28: 3, 15: 4, 8: 16}","[8, 15, 28]",816154283,Ni3P4O16
NbNi3(PO4)4,mp-775713,0.0,1.93608864,0.08692908010417444,"{41: 1, 28: 3, 15: 4, 8: 16}","[8, 15, 28, 41]",816154283411,Nb1Ni3P4O16
Ni3Sn(PO4)4,mp-774257,0.0,2.16413581,0.08366336989584244,"{28: 3, 50: 1, 15: 4, 8: 16}","[8, 15, 28, 50]",816154283501,Ni3Sn1P4O16
Ni3Sb(PO4)4,mp-775544,0.0010999999999996568,2.67825616,0.08656998166666607,"{28: 3, 51: 1, 15: 4, 8: 16}","[8, 15, 28, 51]",816154283511,Ni3Sb1P4O16
Ni5(PO4)4,mp-26922,0.0,1.66474676,0.04811292600002037,"{28: 5, 15: 4, 8: 16}","[8, 15, 28]",816154285,Ni5P4O16
Ni2P5O16,mp-32393,0.02250000000000002,-0.21656996,0.08581583434782658,"{28: 2, 15: 5, 8: 16}","[8, 15, 28]",816155282,Ni2P5O16
Ca3Ni3(AsO4)4,mp-1047505,2.9326999999999996,1.38255365,0.016798829532967297,"{20: 3, 28: 3, 33: 4, 8: 16}","[8, 20, 28, 33]",816203283334,Ca3Ni3As4O16
Ti2Ni3Te3O16,mp-754528,0.0,3.64899165,0.11434528395833166,"{22: 2, 28: 3, 52: 3, 8: 16}","[8, 22, 28, 52]",816222283523,Ti2Ni3Te3O16
Ti3Ni3(TeO8)2,mp-771243,0.0,2.9690045,0.11160807135416562,"{22: 3, 28: 3, 52: 2, 8: 16}","[8, 22, 28, 52]",816223283522,Ti3Ni3Te2O16
U2V2NiO16,mp-1200707,0.0,-0.67008577,0.3430710864285773,"{92: 2, 23: 2, 28: 1, 8: 16}","[8, 23, 28, 92]",816232281922,U2V2Ni1O16
V2Ni3Te3O16,mp-770963,0.0,4.50783198,0.11519917791666501,"{23: 2, 28: 3, 52: 3, 8: 16}","[8, 23, 28, 52]",816232283523,V2Ni3Te3O16
BaSrV4(NiO4)4,mp-1227604,2.9331999999999994,1.8825407,0.0,"{56: 1, 38: 1, 23: 4, 28: 4, 8: 16}","[8, 23, 28, 38, 56]",816234284381561,Ba1Sr1V4Ni4O16
Mn3Ni2Te3O16,mp-774607,0.0,4.14211654,0.13583891746527588,"{25: 3, 28: 2, 52: 3, 8: 16}","[8, 25, 28, 52]",816253282523,Mn3Ni2Te3O16
Mn3Ni3(TeO8)2,mp-756438,0.0,3.41382644,0.08381535114583372,"{25: 3, 28: 3, 52: 2, 8: 16}","[8, 25, 28, 52]",816253283522,Mn3Ni3Te2O16
Fe7(Ni3O8)2,mp-754651,0.6642999999999999,5.21549421,0.10597679577586572,"{26: 7, 28: 6, 8: 16}","[8, 26, 28]",816267286,Fe7Ni6O16
ZnFe8Ni3O16,mp-1203466,1.0206000000000004,3.89912875,0.10197088196428528,"{30: 1, 26: 8, 28: 3, 8: 16}","[8, 26, 28, 30]",816268283301,Zn1Fe8Ni3O16
Co3Ni2Te3O16,mp-757443,0.0,4.20800682,0.12867122656250007,"{27: 3, 28: 2, 52: 3, 8: 16}","[8, 27, 28, 52]",816273282523,Co3Ni2Te3O16
Co3Ni3(TeO8)2,mp-850530,0.16469999999999985,3.36888107,0.08998112395833324,"{27: 3, 28: 3, 52: 2, 8: 16}","[8, 27, 28, 52]",816273283522,Co3Ni3Te2O16
Ni15O16,mp-1100319,0.0,5.23544125,0.026814349838709894,"{28: 15, 8: 16}","[8, 28]",8162815,Ni15O16
La5Re3NiO16,mp-698001,0.0,7.4633187,0.03714285459998301,"{57: 5, 75: 3, 28: 1, 8: 16}","[8, 28, 57, 75]",816281575753,La5Re3Ni1O16
Ni(Pt3O4)4,mp-1220535,0.0,4.52952163,0.0656866293965539,"{28: 1, 78: 12, 8: 16}","[8, 28, 78]",8162817812,Ni1Pt12O16
Zn3Ni3(AsO4)4,mp-1041620,2.0665,1.69321286,0.05009349480769121,"{30: 3, 28: 3, 33: 4, 8: 16}","[8, 28, 30, 33]",816283303334,Zn3Ni3As4O16
Ni3(AsO4)4,mp-1352913,0.0,-0.22460712,0.33089297478260526,"{28: 3, 33: 4, 8: 16}","[8, 28, 33]",816283334,Ni3As4O16
Ni5P4(O8F)2,mp-1210915,0.6441000000000001,0.44197998,0.2745027507407407,"{28: 5, 15: 4, 8: 16, 9: 2}","[8, 9, 15, 28]",81692154285,Ni5P4O16F2
La8Ni4O17,mp-556203,0.0,7.80426158,0.05226897577586875,"{57: 8, 28: 4, 8: 17}","[8, 28, 57]",817284578,La8Ni4O17
Pr8Ni4O17,mp-1173645,0.0,2.74167726,0.1292153167672474,"{59: 8, 28: 4, 8: 17}","[8, 28, 59]",817284598,Pr8Ni4O17
Na4(NiO2)9,mp-764295,0.31689999999999996,2.58267224,0.0025786612365550354,"{11: 4, 28: 9, 8: 18}","[8, 11, 28]",818114289,Na4Ni9O18
Na5(NiO2)9,mp-760267,0.31640000000000024,2.97641443,0.0005580533854159242,"{11: 5, 28: 9, 8: 18}","[8, 11, 28]",818115289,Na5Ni9O18
Na8(NiO2)9,mp-760204,0.0,4.29034384,0.0077950328571416705,"{11: 8, 28: 9, 8: 18}","[8, 11, 28]",818118289,Na8Ni9O18
Mg4Ni5(TeO6)3,mp-1046508,1.854,4.40778882,0.023754316500000705,"{12: 4, 28: 5, 52: 3, 8: 18}","[8, 12, 28, 52]",818124285523,Mg4Ni5Te3O18
CaV2Ni2(P2O9)2,mp-1333286,1.0623,1.64368924,0.03284966911521181,"{20: 1, 23: 2, 28: 2, 15: 4, 8: 18}","[8, 15, 20, 23, 28]",818154201232282,Ca1V2Ni2P4O18
Ni7Te6(ClO9)2,mp-555442,2.6620999999999997,3.30530184,0.0,"{28: 7, 52: 6, 17: 2, 8: 18}","[8, 17, 28, 52]",818172287526,Ni7Te6Cl2O18
Ca4Ni5(TeO6)3,mp-1046817,1.7952999999999997,3.95325209,0.0742072408333323,"{20: 4, 28: 5, 52: 3, 8: 18}","[8, 20, 28, 52]",818204285523,Ca4Ni5Te3O18
V11NiO18,mp-766394,0.30820000000000025,5.12839056,0.019342759833323342,"{23: 11, 28: 1, 8: 18}","[8, 23, 28]",8182311281,V11Ni1O18
Mn2Ni6Te3PbO18,mp-560090,1.8032000000000004,5.06896797,0.0,"{25: 2, 28: 6, 52: 3, 82: 1, 8: 18}","[8, 25, 28, 52, 82]",818252286523821,Mn2Ni6Te3Pb1O18