formula,material_id,band_gap,efermi,energy_above_hull,comp_atoms,sorted_keys_comp_atoms,comp_number,new_formula
Er4Ga21Ni10,mp-1184507,0.0,5.16221585,0.0,"{68: 4, 31: 21, 28: 10}","[28, 31, 68]",28103121684,Er4Ga21Ni10
Tm4Ga21Ni10,mp-1203076,0.0,5.0685881,0.0020919017142846386,"{69: 4, 31: 21, 28: 10}","[28, 31, 69]",28103121694,Tm4Ga21Ni10
Lu4Ga21Ni10,mp-1197016,0.0,5.22399252,0.003514007714286116,"{71: 4, 31: 21, 28: 10}","[28, 31, 71]",28103121714,Lu4Ga21Ni10
LaYNi10,mp-1222838,0.0,7.40577848,0.0018046083333338458,"{57: 1, 39: 1, 28: 10}","[28, 39, 57]",2810391571,La1Y1Ni10
Zr7Ni10,mp-636525,0.0,5.93414169,0.008147700147056902,"{40: 7, 28: 10}","[28, 40]",2810407,Zr7Ni10
LaCeNi10,mp-1223428,0.0,8.25081724,0.0,"{57: 1, 58: 1, 28: 10}","[28, 57, 58]",2810571581,La1Ce1Ni10
LaPrNi10,mp-1222862,0.0,7.30564953,0.0,"{57: 1, 59: 1, 28: 10}","[28, 57, 59]",2810571591,La1Pr1Ni10
LaNdNi10,mp-1222868,0.0,7.34193635,0.0,"{57: 1, 60: 1, 28: 10}","[28, 57, 60]",2810571601,La1Nd1Ni10
Hf7Ni10,mp-1198091,0.0,6.41001915,0.017634224500000073,"{72: 7, 28: 10}","[28, 72]",2810727,Hf7Ni10
U4Ga20Ni11,mp-680664,0.0,6.62933075,0.027282150142855066,"{92: 4, 31: 20, 28: 11}","[28, 31, 92]",28113120924,U4Ga20Ni11
Ni11(GeSe2)2,mp-1220046,0.0,6.54965413,0.001496066666664575,"{28: 11, 32: 2, 34: 4}","[28, 32, 34]",2811322344,Ni11Ge2Se4
Ni11(GeTe2)2,mp-1220167,0.0,7.94812278,0.0010977607352931074,"{28: 11, 32: 2, 52: 4}","[28, 32, 52]",2811322524,Ni11Ge2Te4
Y3Ni11Ge4,mp-1207888,0.0,6.24573298,0.07031532422840137,"{39: 3, 28: 11, 32: 4}","[28, 32, 39]",2811324393,Y3Ni11Ge4
Tb3Ni11Ge4,mp-1208582,0.0,6.18103496,0.07025501070987872,"{65: 3, 28: 11, 32: 4}","[28, 32, 65]",2811324653,Tb3Ni11Ge4
Dy3Ni11Ge4,mp-1213533,0.0,6.1910749,0.060923740246917824,"{66: 3, 28: 11, 32: 4}","[28, 32, 66]",2811324663,Dy3Ni11Ge4
Tm3Ni11Ge4,mp-1208110,0.0,6.16035829,0.05714902888888762,"{69: 3, 28: 11, 32: 4}","[28, 32, 69]",2811324693,Tm3Ni11Ge4
Lu3Ni11Ge4,mp-1211040,0.0,6.19946005,0.03200356039682539,"{71: 3, 28: 11, 32: 4}","[28, 32, 71]",2811324713,Lu3Ni11Ge4
Ni11As8,mp-28227,0.0,7.71491676,0.0,"{28: 11, 33: 8}","[28, 33]",2811338,Ni11As8
Y4In20Ni11,mp-1179384,0.0,7.96343791,0.01689507707143001,"{39: 4, 49: 20, 28: 11}","[28, 39, 49]",28113944920,Y4In20Ni11
Zr9Ni11,mp-30814,0.0,5.76829598,0.07746416724999872,"{40: 9, 28: 11}","[28, 40]",2811409,Zr9Ni11
Sm4In20Ni11,mp-1203754,0.0,8.03482321,0.4756499911632659,"{62: 4, 49: 20, 28: 11}","[28, 49, 62]",28114920624,Sm4In20Ni11
Tb4In20Ni11,mp-684517,0.0,8.22032279,0.01130359242857093,"{65: 4, 49: 20, 28: 11}","[28, 49, 65]",28114920654,Tb4In20Ni11
Dy4In20Ni11,mp-1213615,0.0,8.54286302,0.028533842499999906,"{66: 4, 49: 20, 28: 11}","[28, 49, 66]",28114920664,Dy4In20Ni11
Ho4In20Ni11,mp-1203845,0.0,8.00623223,0.01623513128571563,"{67: 4, 49: 20, 28: 11}","[28, 49, 67]",28114920674,Ho4In20Ni11
Hf9Ni11,mp-1188785,0.0,6.28921971,0.06696786310000036,"{72: 9, 28: 11}","[28, 72]",2811729,Hf9Ni11
Y2Cu5Ni12,mp-1198320,0.0,6.54963534,0.03683442263157666,"{39: 2, 29: 5, 28: 12}","[28, 29, 39]",2812295392,Y2Cu5Ni12
Nb(GaNi4)3,mp-1220743,0.0,7.23868866,0.0,"{41: 1, 31: 3, 28: 12}","[28, 31, 41]",2812313411,Nb1Ga3Ni12
Ga3Ni12Sn,mp-1224940,0.0,7.76981399,0.00707332968749963,"{31: 3, 28: 12, 50: 1}","[28, 31, 50]",2812313501,Ga3Ni12Sn1
Hf(GaNi4)3,mp-1224540,0.0,7.11045753,0.0009052969999991944,"{72: 1, 31: 3, 28: 12}","[28, 31, 72]",2812313721,Hf1Ga3Ni12
Lu2Ga5Ni12,mp-1201787,0.0,6.21363946,0.09182693186403323,"{71: 2, 31: 5, 28: 12}","[28, 31, 71]",2812315712,Lu2Ga5Ni12
Y2Ni12As7,mp-1191314,0.0,7.85121656,0.0,"{39: 2, 28: 12, 33: 7}","[28, 33, 39]",2812337392,Y2Ni12As7
Ce2Ni12As7,mp-1191623,0.0,8.33873269,0.0,"{58: 2, 28: 12, 33: 7}","[28, 33, 58]",2812337582,Ce2Ni12As7
Pr2Ni12As7,mp-861597,0.0,7.62379801,0.0,"{59: 2, 28: 12, 33: 7}","[28, 33, 59]",2812337592,Pr2Ni12As7
Nd2Ni12As7,mp-1191002,0.0,7.78937401,0.0,"{60: 2, 28: 12, 33: 7}","[28, 33, 60]",2812337602,Nd2Ni12As7
Sm2Ni12As7,mp-1191854,0.0,7.66881561,0.3690141503741611,"{62: 2, 28: 12, 33: 7}","[28, 33, 62]",2812337622,Sm2Ni12As7
Tb2Ni12As7,mp-867324,0.0,7.66956781,0.0,"{65: 2, 28: 12, 33: 7}","[28, 33, 65]",2812337652,Tb2Ni12As7
Dy2Ni12As7,mp-1191758,0.0,7.76021159,0.0,"{66: 2, 28: 12, 33: 7}","[28, 33, 66]",2812337662,Dy2Ni12As7
Ho2Ni12As7,mp-1191795,0.0,7.67197792,0.0,"{67: 2, 28: 12, 33: 7}","[28, 33, 67]",2812337672,Ho2Ni12As7
Er2Ni12As7,mp-542718,0.0,7.80823854,0.0,"{68: 2, 28: 12, 33: 7}","[28, 33, 68]",2812337682,Er2Ni12As7
Tm2Ni12As7,mp-972759,0.0,7.77590316,0.0,"{69: 2, 28: 12, 33: 7}","[28, 33, 69]",2812337692,Tm2Ni12As7
Lu2Ni12As7,mp-973921,0.0,7.79701307,0.0,"{71: 2, 28: 12, 33: 7}","[28, 33, 71]",2812337712,Lu2Ni12As7
U2Ni12As7,mp-865508,0.0,9.133987,0.0,"{92: 2, 28: 12, 33: 7}","[28, 33, 92]",2812337922,U2Ni12As7
Dy4Ni12Sn25,mp-569213,0.0,8.4334009,0.0024460733414644054,"{66: 4, 28: 12, 50: 25}","[28, 50, 66]",28125025664,Dy4Ni12Sn25
CuNi,mp-1225687,0.0,7.23137716,0.04142861000000053,"{29: 1, 28: 1}","[28, 29]",281291,Cu1Ni1
Zn2CuNi,mp-1215438,0.0,5.20530543,0.009078507499999944,"{30: 2, 29: 1, 28: 1}","[28, 29, 30]",281291302,Zn2Cu1Ni1
UCuNiGe2,mp-1216774,0.0,8.98093192,0.054477762100001215,"{92: 1, 29: 1, 28: 1, 32: 2}","[28, 29, 32, 92]",281291322921,U1Cu1Ni1Ge2
Y2CuNi,mp-1093655,0.0,-2.07010966,2.5182683943750006,"{39: 2, 29: 1, 28: 1}","[28, 29, 39]",281291392,Y2Cu1Ni1
Zr4CuNi,mp-1215371,0.0,4.9045007,0.015410249166667,"{40: 4, 29: 1, 28: 1}","[28, 29, 40]",281291404,Zr4Cu1Ni1
CuNiPd,mp-1225685,0.0,5.72512187,0.11877591333333193,"{29: 1, 28: 1, 46: 1}","[28, 29, 46]",281291461,Cu1Ni1Pd1
CuNiPd2,mp-1095798,0.025300000000000544,-4.31659346,2.4377479912499993,"{29: 1, 28: 1, 46: 2}","[28, 29, 46]",281291462,Cu1Ni1Pd2
InCuNi,mp-1223903,0.0,8.57276466,0.1559026600000024,"{49: 1, 29: 1, 28: 1}","[28, 29, 49]",281291491,In1Cu1Ni1
CuNiSb2,mp-11834,0.0,8.90000483,0.014259523749998948,"{29: 1, 28: 1, 51: 2}","[28, 29, 51]",281291512,Cu1Ni1Sb2
CeCuNi,mp-1226800,0.0,7.78997896,0.022619536666666384,"{58: 1, 29: 1, 28: 1}","[28, 29, 58]",281291581,Ce1Cu1Ni1
Pm2CuNi,mp-1186454,0.0,4.74387459,0.0,"{61: 2, 29: 1, 28: 1}","[28, 29, 61]",281291612,Pm2Cu1Ni1
ErCuNi,mp-1225545,0.0,5.67321695,0.048841962500001834,"{68: 1, 29: 1, 28: 1}","[28, 29, 68]",281291681,Er1Cu1Ni1
Er2CuNi,mp-1225072,0.0,4.54480907,0.0,"{68: 2, 29: 1, 28: 1}","[28, 29, 68]",281291682,Er2Cu1Ni1
Hf2CuNi,mp-1096418,0.24929999999999986,-2.74078858,3.5246335361538472,"{72: 2, 29: 1, 28: 1}","[28, 29, 72]",281291722,Hf2Cu1Ni1
CuNiAu,mp-1225664,0.0,6.21151681,0.157531146666666,"{29: 1, 28: 1, 79: 1}","[28, 29, 79]",281291791,Cu1Ni1Au1
CuNiAu2,mp-1096571,0.0,-4.64699443,1.8420987775000004,"{29: 1, 28: 1, 79: 2}","[28, 29, 79]",281291792,Cu1Ni1Au2
ZnCu2Ni,mp-30593,0.0,5.79667775,0.005059939999999763,"{30: 1, 29: 2, 28: 1}","[28, 29, 30]",281292301,Zn1Cu2Ni1
Cu2NiSnSe4,mp-1225885,0.0,4.09833927,0.04323095085416728,"{29: 2, 28: 1, 50: 1, 34: 4}","[28, 29, 34, 50]",281292344501,Cu2Ni1Sn1Se4
Cu2NiSn,mp-4367,0.0,9.49163184,0.16191667098214246,"{29: 2, 28: 1, 50: 1}","[28, 29, 50]",281292501,Cu2Ni1Sn1
Cu2NiSb,mp-1225788,0.0,9.42361158,0.27441954500000065,"{29: 2, 28: 1, 51: 1}","[28, 29, 51]",281292511,Cu2Ni1Sb1
Cu3Ni,mp-1225698,0.0,7.33353304,0.05918841500000127,"{29: 3, 28: 1}","[28, 29]",281293,Cu3Ni1
ZnCu3NiSe4,mp-1178641,0.0,3.6449386,0.10935065527777788,"{30: 1, 29: 3, 28: 1, 34: 4}","[28, 29, 30, 34]",281293301344,Zn1Cu3Ni1Se4
U2Cu3NiGe4,mp-1216803,0.0,8.81673422,0.007546732499994491,"{92: 2, 29: 3, 28: 1, 32: 4}","[28, 29, 32, 92]",281293324922,U2Cu3Ni1Ge4
SrCu3NiSe4,mp-1179138,0.02289999999999992,2.853559,0.20152154083333151,"{38: 1, 29: 3, 28: 1, 34: 4}","[28, 29, 34, 38]",281293344381,Sr1Cu3Ni1Se4
CdCu3NiSe4,mp-1181879,0.0,3.28269287,0.11754870277777663,"{48: 1, 29: 3, 28: 1, 34: 4}","[28, 29, 34, 48]",281293344481,Cd1Cu3Ni1Se4
BaCu3NiSe4,mp-1182239,0.14910000000000023,2.67398997,0.20821779416666697,"{56: 1, 29: 3, 28: 1, 34: 4}","[28, 29, 34, 56]",281293344561,Ba1Cu3Ni1Se4
Cu3NiHgSe4,mp-1181468,0.0,3.03808274,0.07799722749999916,"{29: 3, 28: 1, 80: 1, 34: 4}","[28, 29, 34, 80]",281293344801,Cu3Ni1Hg1Se4
Cu3NiPbSe4,mp-1181613,0.0,3.7322385,0.13339173305555718,"{29: 3, 28: 1, 82: 1, 34: 4}","[28, 29, 34, 82]",281293344821,Cu3Ni1Pb1Se4
La2Cu3Ni,mp-1223291,0.0,7.23121729,0.004117646388888119,"{57: 2, 29: 3, 28: 1}","[28, 29, 57]",281293572,La2Cu3Ni1
Nd4Cu3Ni,mp-1220196,0.0,4.37478792,0.0,"{60: 4, 29: 3, 28: 1}","[28, 29, 60]",281293604,Nd4Cu3Ni1
HoCu4Ni,mp-1223765,0.0,6.04136789,0.0,"{67: 1, 29: 4, 28: 1}","[28, 29, 67]",281294671,Ho1Cu4Ni1
ZnNi,mp-429,0.0,5.10916103,0.0,"{30: 1, 28: 1}","[28, 30]",281301,Zn1Ni1
ZnNiPd2,mp-1096076,0.3591000000000002,-4.30307045,2.2704879506250006,"{30: 1, 28: 1, 46: 2}","[28, 30, 46]",281301462,Zn1Ni1Pd2
ZnNiSb,mp-11621,0.0,7.12105914,0.0,"{30: 1, 28: 1, 51: 1}","[28, 30, 51]",281301511,Zn1Ni1Sb1
LaZnNi,mp-13534,0.0,6.96811655,0.0,"{57: 1, 30: 1, 28: 1}","[28, 30, 57]",281301571,La1Zn1Ni1
CeZnNi,mp-1079342,0.0,6.72601642,0.0,"{58: 1, 30: 1, 28: 1}","[28, 30, 58]",281301581,Ce1Zn1Ni1
PrZnNi,mp-12703,0.0,4.3569581,0.0,"{59: 1, 30: 1, 28: 1}","[28, 30, 59]",281301591,Pr1Zn1Ni1
SmZnNi,mp-1078641,0.0,4.11577432,0.5349344984920634,"{62: 1, 30: 1, 28: 1}","[28, 30, 62]",281301621,Sm1Zn1Ni1
TbZnNi,mp-13536,0.0,4.27291371,0.0,"{65: 1, 30: 1, 28: 1}","[28, 30, 65]",281301651,Tb1Zn1Ni1
DyZnNi,mp-1079341,0.0,4.28045062,0.0,"{66: 1, 30: 1, 28: 1}","[28, 30, 66]",281301661,Dy1Zn1Ni1
ErZnNi,mp-1078524,0.0,4.14971833,0.0,"{68: 1, 30: 1, 28: 1}","[28, 30, 68]",281301681,Er1Zn1Ni1
ZnNiAu2,mp-1097196,0.015900000000000247,-4.44576328,1.5411296674999997,"{30: 1, 28: 1, 79: 2}","[28, 30, 79]",281301792,Zn1Ni1Au2
Zn2NiRh,mp-864654,0.0,4.90833525,0.0,"{30: 2, 28: 1, 45: 1}","[28, 30, 45]",281302451,Zn2Ni1Rh1
CeZn2Ni,mp-1226565,0.0,5.51311518,0.25374947805555426,"{58: 1, 30: 2, 28: 1}","[28, 30, 58]",281302581,Ce1Zn2Ni1
Zn2NiIr,mp-971836,0.0,5.63450567,0.007683492500000888,"{30: 2, 28: 1, 77: 1}","[28, 30, 77]",281302771,Zn2Ni1Ir1
Zn2NiPt,mp-1097415,0.0,-3.82081619,2.1467681425,"{30: 2, 28: 1, 78: 1}","[28, 30, 78]",281302781,Zn2Ni1Pt1
Zn3Ni,mp-971941,0.0,4.19797605,0.028257140067568187,"{30: 3, 28: 1}","[28, 30]",281303,Zn3Ni1
LaZn4Ni,mp-1222733,0.0,5.10305329,0.001105012583334286,"{57: 1, 30: 4, 28: 1}","[28, 30, 57]",281304571,La1Zn4Ni1
CeZn4Ni,mp-1226482,0.0,4.84060917,0.0,"{58: 1, 30: 4, 28: 1}","[28, 30, 58]",281304581,Ce1Zn4Ni1
GaNi,mp-1941,0.0,7.62977756,0.042973296904763814,"{31: 1, 28: 1}","[28, 31]",281311,Ga1Ni1
La2Ga10Ni,mp-1104497,0.0,5.56701044,0.0,"{57: 2, 31: 10, 28: 1}","[28, 31, 57]",2813110572,La2Ga10Ni1
Ce2Ga10Ni,mp-7720,0.0,5.33887386,0.007391845384611351,"{58: 2, 31: 10, 28: 1}","[28, 31, 58]",2813110582,Ce2Ga10Ni1
Ce3Ga10Ni,mp-1104373,0.0,5.27725889,0.019332966785711392,"{58: 3, 31: 10, 28: 1}","[28, 31, 58]",2813110583,Ce3Ga10Ni1
Pr3Ga10Ni,mp-632810,0.0,4.06740791,0.0012109441071421756,"{59: 3, 31: 10, 28: 1}","[28, 31, 59]",2813110593,Pr3Ga10Ni1
Nd3Ga10Ni,mp-1104426,0.0,4.05785522,0.01144643642856824,"{60: 3, 31: 10, 28: 1}","[28, 31, 60]",2813110603,Nd3Ga10Ni1
Lu3Ga10Ni,mp-1222569,0.0,4.36882567,0.05410336678571115,"{71: 3, 31: 10, 28: 1}","[28, 31, 71]",2813110713,Lu3Ga10Ni1
La2Ga12Ni,mp-604613,0.0,5.01076742,0.00032715299999841463,"{57: 2, 31: 12, 28: 1}","[28, 31, 57]",2813112572,La2Ga12Ni1
Ce2Ga12Ni,mp-567195,0.0,4.99940462,0.0,"{58: 2, 31: 12, 28: 1}","[28, 31, 58]",2813112582,Ce2Ga12Ni1
Pr2Ga12Ni,mp-1194385,0.0,4.22193377,0.0,"{59: 2, 31: 12, 28: 1}","[28, 31, 59]",2813112592,Pr2Ga12Ni1
Nd2Ga12Ni,mp-864627,0.0,4.16869016,0.0,"{60: 2, 31: 12, 28: 1}","[28, 31, 60]",2813112602,Nd2Ga12Ni1
Dy4Ga12Ni,mp-1189966,0.0,4.37122013,0.0083466723529515,"{66: 4, 31: 12, 28: 1}","[28, 31, 66]",2813112664,Dy4Ga12Ni1
Ho4Ga12Ni,mp-1106064,0.0,4.40168015,0.006660227500009164,"{67: 4, 31: 12, 28: 1}","[28, 31, 67]",2813112674,Ho4Ga12Ni1
Er4Ga12Ni,mp-1106190,0.0,4.38476091,0.0003841442647116722,"{68: 4, 31: 12, 28: 1}","[28, 31, 68]",2813112684,Er4Ga12Ni1
Lu4Ga12Ni,mp-1106196,0.0,4.38586452,0.0,"{71: 4, 31: 12, 28: 1}","[28, 31, 71]",2813112714,Lu4Ga12Ni1
U4Ga12Ni,mp-1207934,0.0,6.712747,0.0,"{92: 4, 31: 12, 28: 1}","[28, 31, 92]",2813112924,U4Ga12Ni1
Nd3GaNiSe7,mp-1190815,0.0,3.89623247,0.028770858532980448,"{60: 3, 31: 1, 28: 1, 34: 7}","[28, 31, 34, 60]",281311347603,Nd3Ga1Ni1Se7
Gd3GaNiSe7,mp-1191156,0.0,3.79888945,0.05441342725693943,"{64: 3, 31: 1, 28: 1, 34: 7}","[28, 31, 34, 64]",281311347643,Gd3Ga1Ni1Se7
Dy3GaNiSe7,mp-1191327,0.3080000000000003,4.04476807,0.046745292569441155,"{66: 3, 31: 1, 28: 1, 34: 7}","[28, 31, 34, 66]",281311347663,Dy3Ga1Ni1Se7
YGaNi,mp-1102603,0.0,4.61550804,0.0,"{39: 1, 31: 1, 28: 1}","[28, 31, 39]",281311391,Y1Ga1Ni1
ZrGaNi,mp-1078832,0.0,5.58281142,0.0,"{40: 1, 31: 1, 28: 1}","[28, 31, 40]",281311401,Zr1Ga1Ni1
GaNiRh2,mp-866037,0.0,6.37659956,0.0,"{31: 1, 28: 1, 45: 2}","[28, 31, 45]",281311452,Ga1Ni1Rh2
LaGaNi,mp-1102982,0.0,6.93642474,0.0,"{57: 1, 31: 1, 28: 1}","[28, 31, 57]",281311571,La1Ga1Ni1
CeGaNi,mp-31492,0.0,7.34910007,0.0,"{58: 1, 31: 1, 28: 1}","[28, 31, 58]",281311581,Ce1Ga1Ni1
PrGaNi,mp-1103558,0.0,4.85855142,0.0,"{59: 1, 31: 1, 28: 1}","[28, 31, 59]",281311591,Pr1Ga1Ni1
NdGaNi,mp-1103550,0.0,4.7169658,0.0,"{60: 1, 31: 1, 28: 1}","[28, 31, 60]",281311601,Nd1Ga1Ni1
SmGaNi,mp-1103079,0.0,4.41692869,0.0,"{62: 1, 31: 1, 28: 1}","[28, 31, 62]",281311621,Sm1Ga1Ni1
TbGaNi,mp-1103670,0.0,4.73034436,0.0,"{65: 1, 31: 1, 28: 1}","[28, 31, 65]",281311651,Tb1Ga1Ni1
DyGaNi,mp-1102760,0.0,5.23189058,0.0,"{66: 1, 31: 1, 28: 1}","[28, 31, 66]",281311661,Dy1Ga1Ni1
HoGaNi,mp-11442,0.0,4.66306357,0.0,"{67: 1, 31: 1, 28: 1}","[28, 31, 67]",281311671,Ho1Ga1Ni1
Ho3GaNi,mp-1200030,0.0,3.81178154,0.01501533614285755,"{67: 3, 31: 1, 28: 1}","[28, 31, 67]",281311673,Ho3Ga1Ni1
ErGaNi,mp-1102207,0.0,4.70103944,0.0,"{68: 1, 31: 1, 28: 1}","[28, 31, 68]",281311681,Er1Ga1Ni1
TmGaNi,mp-1101855,0.0,4.60506252,0.0,"{69: 1, 31: 1, 28: 1}","[28, 31, 69]",281311691,Tm1Ga1Ni1
LuGaNi,mp-1102758,0.0,4.66832269,0.0,"{71: 1, 31: 1, 28: 1}","[28, 31, 71]",281311711,Lu1Ga1Ni1
HfGaNi,mp-1079860,0.0,5.93828844,0.0,"{72: 1, 31: 1, 28: 1}","[28, 31, 72]",281311721,Hf1Ga1Ni1
GaNiPt2,mp-1096493,0.030899999999999928,-4.45549206,2.4362684868750004,"{31: 1, 28: 1, 78: 2}","[28, 31, 78]",281311782,Ga1Ni1Pt2
Nd4Ga18Ni,mp-1210207,0.0,4.34778973,0.044249947826075164,"{60: 4, 31: 18, 28: 1}","[28, 31, 60]",2813118604,Nd4Ga18Ni1
ThGaNi,mp-1079601,0.0,7.10204477,0.0,"{90: 1, 31: 1, 28: 1}","[28, 31, 90]",281311901,Th1Ga1Ni1
UGaNi,mp-21320,0.0,9.20772883,0.0,"{92: 1, 31: 1, 28: 1}","[28, 31, 92]",281311921,U1Ga1Ni1
PuGaNi,mp-1091393,0.0,8.81360956,0.013907867876993052,"{94: 1, 31: 1, 28: 1}","[28, 31, 94]",281311941,Pu1Ga1Ni1
YGa2Ni,mp-11444,0.0,4.81188196,0.0,"{39: 1, 31: 2, 28: 1}","[28, 31, 39]",281312391,Y1Ga2Ni1
ZrGa2Ni,mp-1200150,0.0,5.61855336,0.0,"{40: 1, 31: 2, 28: 1}","[28, 31, 40]",281312401,Zr1Ga2Ni1
Zr6Ga2Ni,mp-1080051,0.0,4.45167657,0.0066635338888882956,"{40: 6, 31: 2, 28: 1}","[28, 31, 40]",281312406,Zr6Ga2Ni1
Ga2NiRu,mp-1184299,0.0,6.81084168,0.03167111591346128,"{31: 2, 28: 1, 44: 1}","[28, 31, 44]",281312441,Ga2Ni1Ru1
LaGa2Ni,mp-1079217,0.0,6.1713993,0.0,"{57: 1, 31: 2, 28: 1}","[28, 31, 57]",281312571,La1Ga2Ni1
CeGa2Ni,mp-1025446,0.0,6.0198291,0.0,"{58: 1, 31: 2, 28: 1}","[28, 31, 58]",281312581,Ce1Ga2Ni1
PrGa2Ni,mp-1025536,0.0,4.26945319,0.0,"{59: 1, 31: 2, 28: 1}","[28, 31, 59]",281312591,Pr1Ga2Ni1
NdGa2Ni,mp-11396,0.0,4.24416572,0.0,"{60: 1, 31: 2, 28: 1}","[28, 31, 60]",281312601,Nd1Ga2Ni1
SmGa2Ni,mp-1025423,0.0,4.18974207,0.0,"{62: 1, 31: 2, 28: 1}","[28, 31, 62]",281312621,Sm1Ga2Ni1
TbGa2Ni,mp-1079552,0.0,4.88229142,0.0,"{65: 1, 31: 2, 28: 1}","[28, 31, 65]",281312651,Tb1Ga2Ni1
DyGa2Ni,mp-1095135,0.0,4.89639035,0.0,"{66: 1, 31: 2, 28: 1}","[28, 31, 66]",281312661,Dy1Ga2Ni1
HoGa2Ni,mp-1025433,0.0,4.7367064,0.0,"{67: 1, 31: 2, 28: 1}","[28, 31, 67]",281312671,Ho1Ga2Ni1
ErGa2Ni,mp-1025508,0.0,4.81028709,0.0,"{68: 1, 31: 2, 28: 1}","[28, 31, 68]",281312681,Er1Ga2Ni1
TmGa2Ni,mp-1025504,0.0,4.76914069,0.0,"{69: 1, 31: 2, 28: 1}","[28, 31, 69]",281312691,Tm1Ga2Ni1
LuGa2Ni,mp-1025552,0.0,4.80830817,0.0,"{71: 1, 31: 2, 28: 1}","[28, 31, 71]",281312711,Lu1Ga2Ni1
HfGa2Ni,mp-30269,0.0,6.0003182,0.0,"{72: 1, 31: 2, 28: 1}","[28, 31, 72]",281312721,Hf1Ga2Ni1
YGa3NiGe,mp-1216105,0.0,5.20151434,0.015720970277778967,"{39: 1, 31: 3, 28: 1, 32: 1}","[28, 31, 32, 39]",281313321391,Y1Ga3Ni1Ge1
Y2Ga3Ni,mp-1216091,0.0,4.24308752,0.025366930000000565,"{39: 2, 31: 3, 28: 1}","[28, 31, 39]",281313392,Y2Ga3Ni1
Zr2Ga3Ni,mp-1215689,0.0,5.00417508,0.021265596648154528,"{40: 2, 31: 3, 28: 1}","[28, 31, 40]",281313402,Zr2Ga3Ni1
LaGa3Ni,mp-1223040,0.0,6.03047027,0.03819668966666967,"{57: 1, 31: 3, 28: 1}","[28, 31, 57]",281313571,La1Ga3Ni1
CeGa3Ni,mp-1226580,0.0,5.76130569,0.03568666900000128,"{58: 1, 31: 3, 28: 1}","[28, 31, 58]",281313581,Ce1Ga3Ni1
PrGa3Ni,mp-1220010,0.0,4.44727572,0.04651740600000309,"{59: 1, 31: 3, 28: 1}","[28, 31, 59]",281313591,Pr1Ga3Ni1
NdGa3Ni,mp-1220163,0.0,4.25223266,0.04416560900000377,"{60: 1, 31: 3, 28: 1}","[28, 31, 60]",281313601,Nd1Ga3Ni1
SmGa3Ni,mp-1219023,0.0,4.24383867,0.24256820999998752,"{62: 1, 31: 3, 28: 1}","[28, 31, 62]",281313621,Sm1Ga3Ni1
Sm2Ga3Ni,mp-1219204,0.0,4.24328414,0.28262152785714534,"{62: 2, 31: 3, 28: 1}","[28, 31, 62]",281313622,Sm2Ga3Ni1
Dy2Ga3Ni,mp-1225386,0.0,4.13450178,0.01690296499999988,"{66: 2, 31: 3, 28: 1}","[28, 31, 66]",281313662,Dy2Ga3Ni1
Ho2Ga3Ni,mp-1224099,0.0,4.25428824,0.00394134291666326,"{67: 2, 31: 3, 28: 1}","[28, 31, 67]",281313672,Ho2Ga3Ni1
Er2Ga3Ni,mp-1225643,0.0,4.35438781,0.003217333333331851,"{68: 2, 31: 3, 28: 1}","[28, 31, 68]",281313682,Er2Ga3Ni1
Tm2Ga3Ni,mp-1216720,0.0,4.2998874,0.02326997104166839,"{69: 2, 31: 3, 28: 1}","[28, 31, 69]",281313692,Tm2Ga3Ni1
Lu2Ga3Ni,mp-1222400,0.0,4.39383673,0.027368705208328237,"{71: 2, 31: 3, 28: 1}","[28, 31, 71]",281313712,Lu2Ga3Ni1
Hf2Ga3Ni,mp-1223946,0.0,5.26821277,0.033438147916665883,"{72: 2, 31: 3, 28: 1}","[28, 31, 72]",281313722,Hf2Ga3Ni1
UGa3Ni,mp-1070301,0.0,6.6615653,0.04369815066666671,"{92: 1, 31: 3, 28: 1}","[28, 31, 92]",281313921,U1Ga3Ni1
YGa4Ni,mp-1095535,0.0,4.97605451,0.0,"{39: 1, 31: 4, 28: 1}","[28, 31, 39]",281314391,Y1Ga4Ni1
NdGa4Ni,mp-1102540,0.0,4.64476072,0.0,"{60: 1, 31: 4, 28: 1}","[28, 31, 60]",281314601,Nd1Ga4Ni1
SmGa4Ni,mp-1102499,0.0,4.68201479,0.09914220499999793,"{62: 1, 31: 4, 28: 1}","[28, 31, 62]",281314621,Sm1Ga4Ni1
TbGa4Ni,mp-1102206,0.0,4.76760473,0.0,"{65: 1, 31: 4, 28: 1}","[28, 31, 65]",281314651,Tb1Ga4Ni1
DyGa4Ni,mp-1101844,0.0,4.68602071,0.0,"{66: 1, 31: 4, 28: 1}","[28, 31, 66]",281314661,Dy1Ga4Ni1
HoGa4Ni,mp-30645,0.0,4.85271067,0.0,"{67: 1, 31: 4, 28: 1}","[28, 31, 67]",281314671,Ho1Ga4Ni1
ErGa4Ni,mp-1095496,0.0,4.87650692,0.0,"{68: 1, 31: 4, 28: 1}","[28, 31, 68]",281314681,Er1Ga4Ni1
TmGa4Ni,mp-1095433,0.0,4.85995641,0.0,"{69: 1, 31: 4, 28: 1}","[28, 31, 69]",281314691,Tm1Ga4Ni1
LuGa4Ni,mp-1103114,0.0,4.6773578,0.0,"{71: 1, 31: 4, 28: 1}","[28, 31, 71]",281314711,Lu1Ga4Ni1
Ga5Ni,mp-1095578,0.0,4.34560365,0.021044003333335226,"{31: 5, 28: 1}","[28, 31]",281315,Ga5Ni1
Tm3Ga5Ni,mp-1206164,0.0,4.21395857,0.0,"{69: 3, 31: 5, 28: 1}","[28, 31, 69]",281315693,Tm3Ga5Ni1
Lu3Ga5Ni,mp-973878,0.0,4.21059127,0.0,"{71: 3, 31: 5, 28: 1}","[28, 31, 71]",281315713,Lu3Ga5Ni1
HfGa5Ni,mp-1025176,0.0,5.12624374,0.026785833142852766,"{72: 1, 31: 5, 28: 1}","[28, 31, 72]",281315721,Hf1Ga5Ni1
UGa5Ni,mp-21251,0.0,5.93743356,0.0,"{92: 1, 31: 5, 28: 1}","[28, 31, 92]",281315921,U1Ga5Ni1
NpGa5Ni,mp-1025198,0.0,6.02629581,0.0,"{93: 1, 31: 5, 28: 1}","[28, 31, 93]",281315931,Np1Ga5Ni1
CeGa6Ni,mp-1190078,0.0,5.31492297,0.0,"{58: 1, 31: 6, 28: 1}","[28, 31, 58]",281316581,Ce1Ga6Ni1
Pr2Ga7Ni,mp-1219873,0.0,4.52397688,0.004014819250000912,"{59: 2, 31: 7, 28: 1}","[28, 31, 59]",281317592,Pr2Ga7Ni1
Sm2Ga9NiGe2,mp-1193425,0.0,4.29663252,0.08473854357142496,"{62: 2, 31: 9, 28: 1, 32: 2}","[28, 31, 32, 62]",281319322622,Sm2Ga9Ni1Ge2
NiGe,mp-1099,0.0,8.30223044,0.0,"{28: 1, 32: 1}","[28, 32]",281321,Ni1Ge1