formula,material_id,band_gap,efermi,energy_above_hull,comp_atoms,sorted_keys_comp_atoms,comp_number,new_formula
Na2ZrSi2SnSO12,mp-2712675,2.7762999999999995,1.59516207,0.11231727412280534,"{11: 2, 40: 1, 14: 2, 50: 1, 16: 1, 8: 12}","[8, 11, 14, 16, 40, 50]",812112142161401501,Na2Zr1Si2Sn1S1O12
Na2HfZrSi2SO12,mp-2712769,4.1694,1.05753708,0.07937978666666012,"{11: 2, 72: 1, 40: 1, 14: 2, 16: 1, 8: 12}","[8, 11, 14, 16, 40, 72]",812112142161401721,Na2Hf1Zr1Si2S1O12
Na2Zr2Si2SO12,mp-2712744,4.1324000000000005,0.90579875,0.08557700298245052,"{11: 2, 40: 2, 14: 2, 16: 1, 8: 12}","[8, 11, 14, 16, 40]",812112142161402,Na2Zr2Si2S1O12
Na2NbInSi2SO12,mp-2712563,2.0718,1.61856845,0.1395048851754357,"{11: 2, 41: 1, 49: 1, 14: 2, 16: 1, 8: 12}","[8, 11, 14, 16, 41, 49]",812112142161411491,Na2Nb1In1Si2S1O12
Na2LaNbSi2SO12,mp-2712700,1.9258999999999997,1.48479845,0.19905258938597026,"{11: 2, 57: 1, 41: 1, 14: 2, 16: 1, 8: 12}","[8, 11, 14, 16, 41, 57]",812112142161411571,Na2La1Nb1Si2S1O12
Na2TaInSi2SO12,mp-2712672,2.9246,1.74829443,0.13813831842104918,"{11: 2, 73: 1, 49: 1, 14: 2, 16: 1, 8: 12}","[8, 11, 14, 16, 49, 73]",812112142161491731,Na2Ta1In1Si2S1O12
Na2HfSi2SnSO12,mp-2712532,2.9043,1.66547544,0.10348729403508639,"{11: 2, 72: 1, 14: 2, 50: 1, 16: 1, 8: 12}","[8, 11, 14, 16, 50, 72]",812112142161501721,Na2Hf1Si2Sn1S1O12
Na2Si2Sn2SO12,mp-2712631,2.5679,2.26864504,0.13062432991227801,"{11: 2, 14: 2, 50: 2, 16: 1, 8: 12}","[8, 11, 14, 16, 50]",812112142161502,Na2Si2Sn2S1O12
Na2LaTaSi2SO12,mp-2712808,2.4938000000000002,1.66155477,0.19472331548245503,"{11: 2, 57: 1, 73: 1, 14: 2, 16: 1, 8: 12}","[8, 11, 14, 16, 57, 73]",812112142161571731,Na2La1Ta1Si2S1O12
Na2Hf2Si2SO12,mp-2712524,4.4725,1.0582475,0.07748553833332394,"{11: 2, 72: 2, 14: 2, 16: 1, 8: 12}","[8, 11, 14, 16, 72]",812112142161722,Na2Hf2Si2S1O12
KNa2Ga3(SiO4)3,mp-1211711,3.9631999999999996,4.33059725,0.0,"{19: 1, 11: 2, 31: 3, 14: 3, 8: 12}","[8, 11, 14, 19, 31]",812112143191313,K1Na2Ga3Si3O12
Na2TaNb(SiO4)3,mp-2714408,3.1346999999999996,1.12259839,0.02017857144736901,"{11: 2, 73: 1, 41: 1, 14: 3, 8: 12}","[8, 11, 14, 41, 73]",812112143411731,Na2Ta1Nb1Si3O12
Na2Nb2(SiO4)3,mp-2714432,3.0565,0.90182127,0.02848130824562034,"{11: 2, 41: 2, 14: 3, 8: 12}","[8, 11, 14, 41]",812112143412,Na2Nb2Si3O12
Na2Ta2(SiO4)3,mp-2714429,3.9770999999999996,1.07975946,0.005988339298228951,"{11: 2, 73: 2, 14: 3, 8: 12}","[8, 11, 14, 73]",812112143732,Na2Ta2Si3O12
Na2ScIn(SiO3)4,mp-1221317,4.2568,2.44172247,0.0018268015000009186,"{11: 2, 21: 1, 49: 1, 14: 4, 8: 12}","[8, 11, 14, 21, 49]",812112144211491,Na2Sc1In1Si4O12
Na3MgNbSi(PO6)2,mp-2715386,2.0465999999999998,1.85730471,0.06292993080554776,"{11: 3, 12: 1, 41: 1, 14: 1, 15: 2, 8: 12}","[8, 11, 12, 14, 15, 41]",812113121141152411,Na3Mg1Nb1Si1P2O12
Na3MgTaSi(PO6)2,mp-2715476,2.7676,1.89457558,0.06062054029166042,"{11: 3, 12: 1, 73: 1, 14: 1, 15: 2, 8: 12}","[8, 11, 12, 14, 15, 73]",812113121141152731,Na3Mg1Ta1Si1P2O12
Na3MgScSi(SO6)2,mp-2712670,3.7620000000000005,1.90927364,0.08658446836718525,"{11: 3, 12: 1, 21: 1, 14: 1, 16: 2, 8: 12}","[8, 11, 12, 14, 16, 21]",812113121141162211,Na3Mg1Sc1Si1S2O12
Na3MgGaSi(SO6)2,mp-2712641,2.7880000000000003,2.17599,0.1195331397916668,"{11: 3, 12: 1, 31: 1, 14: 1, 16: 2, 8: 12}","[8, 11, 12, 14, 16, 31]",812113121141162311,Na3Mg1Ga1Si1S2O12
Na3MgInSi(SO6)2,mp-2712571,2.6394,2.3116866,0.10710867310416816,"{11: 3, 12: 1, 49: 1, 14: 1, 16: 2, 8: 12}","[8, 11, 12, 14, 16, 49]",812113121141162491,Na3Mg1In1Si1S2O12
Na3LaMgSi(SO6)2,mp-2712802,3.551,1.9848864,0.12446227700000012,"{11: 3, 57: 1, 12: 1, 14: 1, 16: 2, 8: 12}","[8, 11, 12, 14, 16, 57]",812113121141162571,Na3La1Mg1Si1S2O12
Na3MgNbSi2SO12,mp-2714404,1.5882999999999998,2.05813152,0.1491503090416666,"{11: 3, 12: 1, 41: 1, 14: 2, 16: 1, 8: 12}","[8, 11, 12, 14, 16, 41]",812113121142161411,Na3Mg1Nb1Si2S1O12
Na3MgTaSi2SO12,mp-2714546,2.3825000000000003,2.18397475,0.14634225891666386,"{11: 3, 12: 1, 73: 1, 14: 2, 16: 1, 8: 12}","[8, 11, 12, 14, 16, 73]",812113121142161731,Na3Mg1Ta1Si2S1O12
Na3CaNbSi(PO6)2,mp-2715291,1.7441999999999998,1.63257338,0.10371322327500643,"{11: 3, 20: 1, 41: 1, 14: 1, 15: 2, 8: 12}","[8, 11, 14, 15, 20, 41]",812113141152201411,Na3Ca1Nb1Si1P2O12
Na3CaTaSi(PO6)2,mp-2715432,2.4619,1.76913039,0.10382577248332403,"{11: 3, 20: 1, 73: 1, 14: 1, 15: 2, 8: 12}","[8, 11, 14, 15, 20, 73]",812113141152201731,Na3Ca1Ta1Si1P2O12
Na3ScTiSi(PO6)2,mp-2715337,2.2967,1.76883224,0.04618999310000049,"{11: 3, 21: 1, 22: 1, 14: 1, 15: 2, 8: 12}","[8, 11, 14, 15, 21, 22]",812113141152211221,Na3Sc1Ti1Si1P2O12
Na3ScSiGe(PO6)2,mp-2715285,2.2724,1.84739024,0.09401112418332858,"{11: 3, 21: 1, 14: 1, 32: 1, 15: 2, 8: 12}","[8, 11, 14, 15, 21, 32]",812113141152211321,Na3Sc1Si1Ge1P2O12
Na3ZrScSi(PO6)2,mp-2715472,4.0502,1.33701758,0.023958574999999982,"{11: 3, 40: 1, 21: 1, 14: 1, 15: 2, 8: 12}","[8, 11, 14, 15, 21, 40]",812113141152211401,Na3Zr1Sc1Si1P2O12
Na3ScSiSn(PO6)2,mp-2715501,2.6552,2.08383257,0.04130905468333079,"{11: 3, 21: 1, 14: 1, 50: 1, 15: 2, 8: 12}","[8, 11, 14, 15, 21, 50]",812113141152211501,Na3Sc1Si1Sn1P2O12
Na3HfScSi(PO6)2,mp-2715409,4.6408000000000005,1.53453764,0.019552687645832734,"{11: 3, 72: 1, 21: 1, 14: 1, 15: 2, 8: 12}","[8, 11, 14, 15, 21, 72]",812113141152211721,Na3Hf1Sc1Si1P2O12
Na3TiGaSi(PO6)2,mp-2715505,2.3777999999999997,1.859527,0.047411788958329204,"{11: 3, 22: 1, 31: 1, 14: 1, 15: 2, 8: 12}","[8, 11, 14, 15, 22, 31]",812113141152221311,Na3Ti1Ga1Si1P2O12
Na3TiInSi(PO6)2,mp-2715332,2.2501999999999995,2.06653742,0.05658546229166017,"{11: 3, 22: 1, 49: 1, 14: 1, 15: 2, 8: 12}","[8, 11, 14, 15, 22, 49]",812113141152221491,Na3Ti1In1Si1P2O12
Na3LaTiSi(PO6)2,mp-2715357,1.8736999999999997,2.01268944,0.1448470699111155,"{11: 3, 57: 1, 22: 1, 14: 1, 15: 2, 8: 12}","[8, 11, 14, 15, 22, 57]",812113141152221571,Na3La1Ti1Si1P2O12
Na3NbZnSi(PO6)2,mp-2715454,1.8679000000000001,1.7412161,0.09121998999999636,"{11: 3, 41: 1, 30: 1, 14: 1, 15: 2, 8: 12}","[8, 11, 14, 15, 30, 41]",812113141152301411,Na3Nb1Zn1Si1P2O12
Na3TaZnSi(PO6)2,mp-2715447,2.6222000000000003,1.90839173,0.08875167912499471,"{11: 3, 73: 1, 30: 1, 14: 1, 15: 2, 8: 12}","[8, 11, 14, 15, 30, 73]",812113141152301731,Na3Ta1Zn1Si1P2O12
Na3GaSiGe(PO6)2,mp-2715401,2.6749,2.11365359,0.09063330491667543,"{11: 3, 31: 1, 14: 1, 32: 1, 15: 2, 8: 12}","[8, 11, 14, 15, 31, 32]",812113141152311321,Na3Ga1Si1Ge1P2O12
Na3ZrGaSi(PO6)2,mp-2715464,3.7539,1.43757224,0.051176435833333755,"{11: 3, 40: 1, 31: 1, 14: 1, 15: 2, 8: 12}","[8, 11, 14, 15, 31, 40]",812113141152311401,Na3Zr1Ga1Si1P2O12
Na3GaSiSn(PO6)2,mp-2715486,3.0725000000000007,2.197777,0.05734789491666881,"{11: 3, 31: 1, 14: 1, 50: 1, 15: 2, 8: 12}","[8, 11, 14, 15, 31, 50]",812113141152311501,Na3Ga1Si1Sn1P2O12
Na3HfGaSi(PO6)2,mp-2715402,3.9063,1.67018565,0.04952099479166616,"{11: 3, 72: 1, 31: 1, 14: 1, 15: 2, 8: 12}","[8, 11, 14, 15, 31, 72]",812113141152311721,Na3Hf1Ga1Si1P2O12
Na3InSiGe(PO6)2,mp-2715431,2.1064999999999996,2.20946732,0.11457437983333651,"{11: 3, 49: 1, 14: 1, 32: 1, 15: 2, 8: 12}","[8, 11, 14, 15, 32, 49]",812113141152321491,Na3In1Si1Ge1P2O12
Na3LaSiGe(PO6)2,mp-2715508,1.4308,1.95942243,0.19681642495833085,"{11: 3, 57: 1, 14: 1, 32: 1, 15: 2, 8: 12}","[8, 11, 14, 15, 32, 57]",812113141152321571,Na3La1Si1Ge1P2O12
Na3ZrInSi(PO6)2,mp-2715227,3.7413,1.76697177,0.03396841958333052,"{11: 3, 40: 1, 49: 1, 14: 1, 15: 2, 8: 12}","[8, 11, 14, 15, 40, 49]",812113141152401491,Na3Zr1In1Si1P2O12
Na3LaZrSi(PO6)2,mp-2715330,3.4205999999999994,1.90705808,0.09212719895833654,"{11: 3, 57: 1, 40: 1, 14: 1, 15: 2, 8: 12}","[8, 11, 14, 15, 40, 57]",812113141152401571,Na3La1Zr1Si1P2O12
Na3InSiSn(PO6)2,mp-2715433,2.4841,2.39858663,0.056238134666667605,"{11: 3, 49: 1, 14: 1, 50: 1, 15: 2, 8: 12}","[8, 11, 14, 15, 49, 50]",812113141152491501,Na3In1Si1Sn1P2O12
Na3HfInSi(PO6)2,mp-2715238,3.7849,1.82640867,0.028462576999995548,"{11: 3, 72: 1, 49: 1, 14: 1, 15: 2, 8: 12}","[8, 11, 14, 15, 49, 72]",812113141152491721,Na3Hf1In1Si1P2O12
Na3LaSiSn(PO6)2,mp-2715260,2.0419,1.92285489,0.11986722591666954,"{11: 3, 57: 1, 14: 1, 50: 1, 15: 2, 8: 12}","[8, 11, 14, 15, 50, 57]",812113141152501571,Na3La1Si1Sn1P2O12
Na3LaHfSi(PO6)2,mp-2715408,3.9433,1.94308737,0.0924928858541616,"{11: 3, 57: 1, 72: 1, 14: 1, 15: 2, 8: 12}","[8, 11, 14, 15, 57, 72]",812113141152571721,Na3La1Hf1Si1P2O12
Na3CaScSi(SO6)2,mp-2712777,3.1999,1.82541932,0.10499951191146195,"{11: 3, 20: 1, 21: 1, 14: 1, 16: 2, 8: 12}","[8, 11, 14, 16, 20, 21]",812113141162201211,Na3Ca1Sc1Si1S2O12
Na3CaGaSi(SO6)2,mp-2712580,1.7786000000000002,1.61838966,0.1592683407500033,"{11: 3, 20: 1, 31: 1, 14: 1, 16: 2, 8: 12}","[8, 11, 14, 16, 20, 31]",812113141162201311,Na3Ca1Ga1Si1S2O12
Na3CaInSi(SO6)2,mp-2712755,2.0313,1.9298669,0.11368974706250157,"{11: 3, 20: 1, 49: 1, 14: 1, 16: 2, 8: 12}","[8, 11, 14, 16, 20, 49]",812113141162201491,Na3Ca1In1Si1S2O12
Na3CaLaSi(SO6)2,mp-2712588,3.5454000000000003,1.80720484,0.10439569640625379,"{11: 3, 20: 1, 57: 1, 14: 1, 16: 2, 8: 12}","[8, 11, 14, 16, 20, 57]",812113141162201571,Na3Ca1La1Si1S2O12
Na3ScZnSi(SO6)2,mp-2712585,3.7613000000000003,1.54297103,0.09122749245312711,"{11: 3, 21: 1, 30: 1, 14: 1, 16: 2, 8: 12}","[8, 11, 14, 16, 21, 30]",812113141162211301,Na3Sc1Zn1Si1S2O12
Na3ZnGaSi(SO6)2,mp-2712622,2.5381,1.89301744,0.13597617909375437,"{11: 3, 30: 1, 31: 1, 14: 1, 16: 2, 8: 12}","[8, 11, 14, 16, 30, 31]",812113141162301311,Na3Zn1Ga1Si1S2O12
Na3ZnInSi(SO6)2,mp-2712629,2.6445999999999996,2.02095792,0.11350632261458582,"{11: 3, 30: 1, 49: 1, 14: 1, 16: 2, 8: 12}","[8, 11, 14, 16, 30, 49]",812113141162301491,Na3Zn1In1Si1S2O12
Na3LaZnSi(SO6)2,mp-2712692,3.1527,1.54688164,0.13861451141666414,"{11: 3, 57: 1, 30: 1, 14: 1, 16: 2, 8: 12}","[8, 11, 14, 16, 30, 57]",812113141162301571,Na3La1Zn1Si1S2O12
Na3ScNbSi2PO12,mp-2713264,2.3859000000000004,1.66004943,0.05930750755000069,"{11: 3, 21: 1, 41: 1, 14: 2, 15: 1, 8: 12}","[8, 11, 14, 15, 21, 41]",812113142151211411,Na3Sc1Nb1Si2P1O12
Na3ScTaSi2PO12,mp-2715309,3.1932000000000005,1.70187208,0.05256200167499703,"{11: 3, 21: 1, 73: 1, 14: 2, 15: 1, 8: 12}","[8, 11, 14, 15, 21, 73]",812113142151211731,Na3Sc1Ta1Si2P1O12
Na3TiSi2GePO12,mp-2715375,2.8424,2.00783892,0.06656644357778152,"{11: 3, 22: 1, 14: 2, 32: 1, 15: 1, 8: 12}","[8, 11, 14, 15, 22, 32]",812113142151221321,Na3Ti1Si2Ge1P1O12
Na3ZrTiSi2PO12,mp-2713585,2.7696,1.60847165,0.029377100332152573,"{11: 3, 40: 1, 22: 1, 14: 2, 15: 1, 8: 12}","[8, 11, 14, 15, 22, 40]",812113142151221401,Na3Zr1Ti1Si2P1O12
Na3TiSi2SnPO12,mp-2713300,2.8678999999999997,2.19294745,0.03732746920278096,"{11: 3, 22: 1, 14: 2, 50: 1, 15: 1, 8: 12}","[8, 11, 14, 15, 22, 50]",812113142151221501,Na3Ti1Si2Sn1P1O12
Na3HfTiSi2PO12,mp-2715502,2.8251999999999997,1.65210159,0.017932301702774822,"{11: 3, 72: 1, 22: 1, 14: 2, 15: 1, 8: 12}","[8, 11, 14, 15, 22, 72]",812113142151221721,Na3Hf1Ti1Si2P1O12
Na3Ti2Si2PO12,mp-2713692,2.7236,1.90419488,0.030756723408337905,"{11: 3, 22: 2, 14: 2, 15: 1, 8: 12}","[8, 11, 14, 15, 22]",812113142151222,Na3Ti2Si2P1O12
Na3NbGaSi2PO12,mp-2715500,2.5581,1.63035794,0.07010793358333256,"{11: 3, 41: 1, 31: 1, 14: 2, 15: 1, 8: 12}","[8, 11, 14, 15, 31, 41]",812113142151311411,Na3Nb1Ga1Si2P1O12
Na3TaGaSi2PO12,mp-2715324,3.1348,1.9216362,0.06351866104165982,"{11: 3, 73: 1, 31: 1, 14: 2, 15: 1, 8: 12}","[8, 11, 14, 15, 31, 73]",812113142151311731,Na3Ta1Ga1Si2P1O12
Na3ZrSi2GePO12,mp-2713664,3.1631,1.85186232,0.06706442362499843,"{11: 3, 40: 1, 14: 2, 32: 1, 15: 1, 8: 12}","[8, 11, 14, 15, 32, 40]",812113142151321401,Na3Zr1Si2Ge1P1O12
Na3Si2SnGePO12,mp-2715385,2.9643,2.37862439,0.0712303632916651,"{11: 3, 14: 2, 50: 1, 32: 1, 15: 1, 8: 12}","[8, 11, 14, 15, 32, 50]",812113142151321501,Na3Si2Sn1Ge1P1O12
Na3HfSi2GePO12,mp-2715497,3.3141000000000003,1.77578082,0.054847056638886116,"{11: 3, 72: 1, 14: 2, 32: 1, 15: 1, 8: 12}","[8, 11, 14, 15, 32, 72]",812113142151321721,Na3Hf1Si2Ge1P1O12
Na3Si2Ge2PO12,mp-2715261,3.2063999999999995,2.21880975,0.09064764183333196,"{11: 3, 14: 2, 32: 2, 15: 1, 8: 12}","[8, 11, 14, 15, 32]",812113142151322,Na3Si2Ge2P1O12
Na3ZrSi2SnPO12,mp-2713601,3.3099000000000003,1.87755672,0.03289884824999767,"{11: 3, 40: 1, 14: 2, 50: 1, 15: 1, 8: 12}","[8, 11, 14, 15, 40, 50]",812113142151401501,Na3Zr1Si2Sn1P1O12
Na3HfZrSi2PO12,mp-2715468,4.4903,1.38240474,0.005706109937502646,"{11: 3, 72: 1, 40: 1, 14: 2, 15: 1, 8: 12}","[8, 11, 14, 15, 40, 72]",812113142151401721,Na3Hf1Zr1Si2P1O12
Na3Zr2Si2PO12,mp-532695,0.00010000000000065512,5.27216877,0.0,"{11: 3, 40: 2, 14: 2, 15: 1, 8: 12}","[8, 11, 14, 15, 40]",812113142151402,Na3Zr2Si2P1O12
Na3NbInSi2PO12,mp-2713305,2.3581000000000003,1.91268838,0.07032043287500311,"{11: 3, 41: 1, 49: 1, 14: 2, 15: 1, 8: 12}","[8, 11, 14, 15, 41, 49]",812113142151411491,Na3Nb1In1Si2P1O12
Na3LaNbSi2PO12,mp-2715495,1.9824000000000002,2.0745911,0.14776657054166709,"{11: 3, 57: 1, 41: 1, 14: 2, 15: 1, 8: 12}","[8, 11, 14, 15, 41, 57]",812113142151411571,Na3La1Nb1Si2P1O12
Na3TaInSi2PO12,mp-2715241,3.1719999999999997,2.11396958,0.06605173895833438,"{11: 3, 73: 1, 49: 1, 14: 2, 15: 1, 8: 12}","[8, 11, 14, 15, 49, 73]",812113142151491731,Na3Ta1In1Si2P1O12
Na3HfSi2SnPO12,mp-2715231,3.3880999999999997,2.04227231,0.020923204888885216,"{11: 3, 72: 1, 14: 2, 50: 1, 15: 1, 8: 12}","[8, 11, 14, 15, 50, 72]",812113142151501721,Na3Hf1Si2Sn1P1O12
Na3Si2Sn2PO12,mp-2715487,2.9263999999999997,2.54391788,0.03936745945833131,"{11: 3, 14: 2, 50: 2, 15: 1, 8: 12}","[8, 11, 14, 15, 50]",812113142151502,Na3Si2Sn2P1O12
Na3LaTaSi2PO12,mp-2713235,3.1178999999999997,1.90391446,0.14785081170833436,"{11: 3, 57: 1, 73: 1, 14: 2, 15: 1, 8: 12}","[8, 11, 14, 15, 57, 73]",812113142151571731,Na3La1Ta1Si2P1O12
Na3Hf2Si2PO12,mp-2713249,4.6743999999999994,1.41556071,0.0,"{11: 3, 72: 2, 14: 2, 15: 1, 8: 12}","[8, 11, 14, 15, 72]",812113142151722,Na3Hf2Si2P1O12
Na3CaNbSi2SO12,mp-2714453,1.3921000000000001,1.72368623,0.18662711804166765,"{11: 3, 20: 1, 41: 1, 14: 2, 16: 1, 8: 12}","[8, 11, 14, 16, 20, 41]",812113142161201411,Na3Ca1Nb1Si2S1O12
Na3CaTaSi2SO12,mp-2714580,2.0622,1.96045783,0.19030727808333303,"{11: 3, 20: 1, 73: 1, 14: 2, 16: 1, 8: 12}","[8, 11, 14, 16, 20, 73]",812113142161201731,Na3Ca1Ta1Si2S1O12
Na3ScTiSi2SO12,mp-2714366,2.4381000000000004,1.71302063,0.08851141829167108,"{11: 3, 21: 1, 22: 1, 14: 2, 16: 1, 8: 12}","[8, 11, 14, 16, 21, 22]",812113142161211221,Na3Sc1Ti1Si2S1O12
Na3ScSi2GeSO12,mp-2714525,1.8903,1.73148007,0.1338818405833342,"{11: 3, 21: 1, 14: 2, 32: 1, 16: 1, 8: 12}","[8, 11, 14, 16, 21, 32]",812113142161211321,Na3Sc1Si2Ge1S1O12
Na3ZrScSi2SO12,mp-2714535,4.1265,1.56707909,0.0790100305833219,"{11: 3, 40: 1, 21: 1, 14: 2, 16: 1, 8: 12}","[8, 11, 14, 16, 21, 40]",812113142161211401,Na3Zr1Sc1Si2S1O12
Na3ScSi2SnSO12,mp-2714499,2.1491999999999996,2.12013106,0.1100797562500011,"{11: 3, 21: 1, 14: 2, 50: 1, 16: 1, 8: 12}","[8, 11, 14, 16, 21, 50]",812113142161211501,Na3Sc1Si2Sn1S1O12
Na3HfScSi2SO12,mp-2714394,4.1742,1.60223438,0.0749171683749994,"{11: 3, 72: 1, 21: 1, 14: 2, 16: 1, 8: 12}","[8, 11, 14, 16, 21, 72]",812113142161211721,Na3Hf1Sc1Si2S1O12
Na3TiGaSi2SO12,mp-2714482,2.5364999999999998,1.95736557,0.10450471754167356,"{11: 3, 22: 1, 31: 1, 14: 2, 16: 1, 8: 12}","[8, 11, 14, 16, 22, 31]",812113142161221311,Na3Ti1Ga1Si2S1O12
Na3TiInSi2SO12,mp-2714450,2.4548000000000005,2.03882122,0.09489359010416454,"{11: 3, 22: 1, 49: 1, 14: 2, 16: 1, 8: 12}","[8, 11, 14, 16, 22, 49]",812113142161221491,Na3Ti1In1Si2S1O12
Na3LaTiSi2SO12,mp-2714579,2.3528,1.64700709,0.1396124198958386,"{11: 3, 57: 1, 22: 1, 14: 2, 16: 1, 8: 12}","[8, 11, 14, 16, 22, 57]",812113142161221571,Na3La1Ti1Si2S1O12
Na3NbZnSi2SO12,mp-2714513,1.4585,2.03167261,0.1678952528750015,"{11: 3, 41: 1, 30: 1, 14: 2, 16: 1, 8: 12}","[8, 11, 14, 16, 30, 41]",812113142161301411,Na3Nb1Zn1Si2S1O12
Na3TaZnSi2SO12,mp-2714468,2.2724,1.98148531,0.16776667958333302,"{11: 3, 73: 1, 30: 1, 14: 2, 16: 1, 8: 12}","[8, 11, 14, 16, 30, 73]",812113142161301731,Na3Ta1Zn1Si2S1O12
Na3GaSi2GeSO12,mp-2714437,2.1227,2.20310463,0.15202839841666815,"{11: 3, 31: 1, 14: 2, 32: 1, 16: 1, 8: 12}","[8, 11, 14, 16, 31, 32]",812113142161311321,Na3Ga1Si2Ge1S1O12
Na3ZrGaSi2SO12,mp-2714614,3.4225999999999996,1.77968977,0.11241145433333966,"{11: 3, 40: 1, 31: 1, 14: 2, 16: 1, 8: 12}","[8, 11, 14, 16, 31, 40]",812113142161311401,Na3Zr1Ga1Si2S1O12
Na3GaSi2SnSO12,mp-2714340,2.3867,2.42720256,0.13607651925000042,"{11: 3, 31: 1, 14: 2, 50: 1, 16: 1, 8: 12}","[8, 11, 14, 16, 31, 50]",812113142161311501,Na3Ga1Si2Sn1S1O12
Na3HfGaSi2SO12,mp-2714485,3.4492000000000003,1.82007998,0.10723507258333242,"{11: 3, 72: 1, 31: 1, 14: 2, 16: 1, 8: 12}","[8, 11, 14, 16, 31, 72]",812113142161311721,Na3Hf1Ga1Si2S1O12
Na3InSi2GeSO12,mp-2714343,1.9225,2.09808003,0.14903324933333284,"{11: 3, 49: 1, 14: 2, 32: 1, 16: 1, 8: 12}","[8, 11, 14, 16, 32, 49]",812113142161321491,Na3In1Si2Ge1S1O12
Na3LaSi2GeSO12,mp-2714425,1.5683,1.51098398,0.18486810989583446,"{11: 3, 57: 1, 14: 2, 32: 1, 16: 1, 8: 12}","[8, 11, 14, 16, 32, 57]",812113142161321571,Na3La1Si2Ge1S1O12
Na3ZrInSi2SO12,mp-2714567,3.4327000000000005,1.8098355,0.08416643674999857,"{11: 3, 40: 1, 49: 1, 14: 2, 16: 1, 8: 12}","[8, 11, 14, 16, 40, 49]",812113142161401491,Na3Zr1In1Si2S1O12
Na3LaZrSi2SO12,mp-2714505,3.7692,1.82527068,0.11006759679164002,"{11: 3, 57: 1, 40: 1, 14: 2, 16: 1, 8: 12}","[8, 11, 14, 16, 40, 57]",812113142161401571,Na3La1Zr1Si2S1O12
Na3InSi2SnSO12,mp-2714449,2.1052000000000004,2.44787738,0.11088025616666641,"{11: 3, 49: 1, 14: 2, 50: 1, 16: 1, 8: 12}","[8, 11, 14, 16, 49, 50]",812113142161491501,Na3In1Si2Sn1S1O12
Na3HfInSi2SO12,mp-2714451,3.5407,1.95583895,0.07982586755952514,"{11: 3, 72: 1, 49: 1, 14: 2, 16: 1, 8: 12}","[8, 11, 14, 16, 49, 72]",812113142161491721,Na3Hf1In1Si2S1O12
Na3LaSi2SnSO12,mp-2714469,1.1779,2.01946049,0.14422043889583414,"{11: 3, 57: 1, 14: 2, 50: 1, 16: 1, 8: 12}","[8, 11, 14, 16, 50, 57]",812113142161501571,Na3La1Si2Sn1S1O12
Na3LaHfSi2SO12,mp-2714491,3.8575,1.83888295,0.11517461182291733,"{11: 3, 57: 1, 72: 1, 14: 2, 16: 1, 8: 12}","[8, 11, 14, 16, 57, 72]",812113142161571721,Na3La1Hf1Si2S1O12
Na3TiNb(SiO4)3,mp-2715478,2.8811999999999998,1.61767738,0.029761584249999196,"{11: 3, 22: 1, 41: 1, 14: 3, 8: 12}","[8, 11, 14, 22, 41]",812113143221411,Na3Ti1Nb1Si3O12
Na3TaTi(SiO4)3,mp-2715475,3.0575,1.66403961,0.01929682987499426,"{11: 3, 73: 1, 22: 1, 14: 3, 8: 12}","[8, 11, 14, 22, 73]",812113143221731,Na3Ta1Ti1Si3O12
Na3NbSi3GeO12,mp-2715378,2.9308,1.80509935,0.058525787833334064,"{11: 3, 41: 1, 14: 3, 32: 1, 8: 12}","[8, 11, 14, 32, 41]",812113143321411,Na3Nb1Si3Ge1O12
Na3TaSi3GeO12,mp-2715458,3.4498000000000006,1.91019554,0.049834140958334494,"{11: 3, 73: 1, 14: 3, 32: 1, 8: 12}","[8, 11, 14, 32, 73]",812113143321731,Na3Ta1Si3Ge1O12
Na3ZrNb(SiO4)3,mp-2715349,2.9471999999999996,1.42440946,0.03008254687500589,"{11: 3, 40: 1, 41: 1, 14: 3, 8: 12}","[8, 11, 14, 40, 41]",812113143401411,Na3Zr1Nb1Si3O12
Na3ZrTa(SiO4)3,mp-2715268,3.7920000000000003,1.34366644,0.022037442958334097,"{11: 3, 40: 1, 73: 1, 14: 3, 8: 12}","[8, 11, 14, 40, 73]",812113143401731,Na3Zr1Ta1Si3O12
Na3NbSi3SnO12,mp-2715316,2.9701,1.96637426,0.02663312058333478,"{11: 3, 41: 1, 14: 3, 50: 1, 8: 12}","[8, 11, 14, 41, 50]",812113143411501,Na3Nb1Si3Sn1O12
Na3HfNb(SiO4)3,mp-2715222,2.9679,1.36683916,0.014506286208328945,"{11: 3, 72: 1, 41: 1, 14: 3, 8: 12}","[8, 11, 14, 41, 72]",812113143411721,Na3Hf1Nb1Si3O12
Na3TaSi3SnO12,mp-2715282,3.6973999999999996,2.01684963,0.01713985283333308,"{11: 3, 73: 1, 14: 3, 50: 1, 8: 12}","[8, 11, 14, 50, 73]",812113143501731,Na3Ta1Si3Sn1O12
Na3HfTa(SiO4)3,mp-2715297,3.8417,1.52391911,0.006714351583335443,"{11: 3, 72: 1, 73: 1, 14: 3, 8: 12}","[8, 11, 14, 72, 73]",812113143721731,Na3Hf1Ta1Si3O12
Na4MgTiSi(PO6)2,mp-2714354,2.0090000000000003,2.45939746,0.04191291646296147,"{11: 4, 12: 1, 22: 1, 14: 1, 15: 2, 8: 12}","[8, 11, 12, 14, 15, 22]",812114121141152221,Na4Mg1Ti1Si1P2O12
Na4MgSiGe(PO6)2,mp-2714594,1.6970999999999998,2.62537597,0.08667431309523543,"{11: 4, 12: 1, 14: 1, 32: 1, 15: 2, 8: 12}","[8, 11, 12, 14, 15, 32]",812114121141152321,Na4Mg1Si1Ge1P2O12