formula,material_id,band_gap,efermi,energy_above_hull,comp_atoms,sorted_keys_comp_atoms,comp_number,new_formula
Na6HfZn3Si2(SO6)4,mp-2712740,3.1313,1.97462409,0.11600027409375446,"{11: 6, 72: 1, 30: 3, 14: 2, 16: 4, 8: 24}","[8, 11, 14, 16, 30, 72]",824116142164303721,Na6Hf1Zn3Si2S4O24
Na6Ca2Ti2Si3(SO8)3,mp-2716221,0.4654999999999998,1.92919539,0.15660116470833518,"{11: 6, 20: 2, 22: 2, 14: 3, 16: 3, 8: 24}","[8, 11, 14, 16, 20, 22]",824116143163202222,Na6Ca2Ti2Si3S3O24
Na6Ca2Si3Ge2(SO8)3,mp-2716270,0.3104,1.43040602,0.22329976291666487,"{11: 6, 20: 2, 14: 3, 32: 2, 16: 3, 8: 24}","[8, 11, 14, 16, 20, 32]",824116143163202322,Na6Ca2Si3Ge2S3O24
Na6Ca2Zr2Si3(SO8)3,mp-2716154,1.6916,2.10496435,0.13194669324999975,"{11: 6, 20: 2, 40: 2, 14: 3, 16: 3, 8: 24}","[8, 11, 14, 16, 20, 40]",824116143163202402,Na6Ca2Zr2Si3S3O24
Na6Ca2Si3Sn2(SO8)3,mp-2716248,0.6677000000000004,2.32327916,0.17076751308333193,"{11: 6, 20: 2, 14: 3, 50: 2, 16: 3, 8: 24}","[8, 11, 14, 16, 20, 50]",824116143163202502,Na6Ca2Si3Sn2S3O24
Na6Ca2Hf2Si3(SO8)3,mp-2716198,2.5414999999999996,2.08605983,0.13687579310416798,"{11: 6, 20: 2, 72: 2, 14: 3, 16: 3, 8: 24}","[8, 11, 14, 16, 20, 72]",824116143163202722,Na6Ca2Hf2Si3S3O24
Na6Sc2Ga2Si3(SO8)3,mp-2716180,3.0208000000000004,2.149718,0.11041885383333394,"{11: 6, 21: 2, 31: 2, 14: 3, 16: 3, 8: 24}","[8, 11, 14, 16, 21, 31]",824116143163212312,Na6Sc2Ga2Si3S3O24
Na6Sc2In2Si3(SO8)3,mp-2716194,2.096,2.44239809,0.09915813879166624,"{11: 6, 21: 2, 49: 2, 14: 3, 16: 3, 8: 24}","[8, 11, 14, 16, 21, 49]",824116143163212492,Na6Sc2In2Si3S3O24
Na6La2Sc2Si3(SO8)3,mp-2716201,3.4,2.22507694,0.1054713898593782,"{11: 6, 57: 2, 21: 2, 14: 3, 16: 3, 8: 24}","[8, 11, 14, 16, 21, 57]",824116143163212572,Na6La2Sc2Si3S3O24
Na6Sc4Si3(SO8)3,mp-2716242,3.0087,1.95778472,0.08050830965105327,"{11: 6, 21: 4, 14: 3, 16: 3, 8: 24}","[8, 11, 14, 16, 21]",824116143163214,Na6Sc4Si3S3O24
Na6Ti2Zn2Si3(SO8)3,mp-2716250,0.3296999999999999,2.42114272,0.14441525404167344,"{11: 6, 22: 2, 30: 2, 14: 3, 16: 3, 8: 24}","[8, 11, 14, 16, 22, 30]",824116143163222302,Na6Ti2Zn2Si3S3O24
Na6Zn2Si3Ge2(SO8)3,mp-2716219,1.1248,2.40783877,0.19697075645833628,"{11: 6, 30: 2, 14: 3, 32: 2, 16: 3, 8: 24}","[8, 11, 14, 16, 30, 32]",824116143163302322,Na6Zn2Si3Ge2S3O24
Na6Zr2Zn2Si3(SO8)3,mp-2716274,1.8993000000000002,2.19668507,0.13921716183333022,"{11: 6, 40: 2, 30: 2, 14: 3, 16: 3, 8: 24}","[8, 11, 14, 16, 30, 40]",824116143163302402,Na6Zr2Zn2Si3S3O24
Na6Zn2Si3Sn2(SO8)3,mp-2716120,0.5551999999999997,2.95895604,0.1606570789166719,"{11: 6, 30: 2, 14: 3, 50: 2, 16: 3, 8: 24}","[8, 11, 14, 16, 30, 50]",824116143163302502,Na6Zn2Si3Sn2S3O24
Na6Hf2Zn2Si3(SO8)3,mp-2716251,2.5238,2.35034348,0.13443123224999898,"{11: 6, 72: 2, 30: 2, 14: 3, 16: 3, 8: 24}","[8, 11, 14, 16, 30, 72]",824116143163302722,Na6Hf2Zn2Si3S3O24
Na6In2Ga2Si3(SO8)3,mp-2716211,2.1285000000000003,2.50423886,0.12778620266666607,"{11: 6, 49: 2, 31: 2, 14: 3, 16: 3, 8: 24}","[8, 11, 14, 16, 31, 49]",824116143163312492,Na6In2Ga2Si3S3O24
Na6La2Ga2Si3(SO8)3,mp-2716200,2.6149000000000004,2.00002913,0.1419415200416605,"{11: 6, 57: 2, 31: 2, 14: 3, 16: 3, 8: 24}","[8, 11, 14, 16, 31, 57]",824116143163312572,Na6La2Ga2Si3S3O24
Na6Ga4Si3(SO8)3,mp-2716196,2.4128999999999996,2.3049664,0.13664075570833578,"{11: 6, 31: 4, 14: 3, 16: 3, 8: 24}","[8, 11, 14, 16, 31]",824116143163314,Na6Ga4Si3S3O24
Na6La2In2Si3(SO8)3,mp-2716159,2.3505000000000003,2.37997661,0.12657769566666488,"{11: 6, 57: 2, 49: 2, 14: 3, 16: 3, 8: 24}","[8, 11, 14, 16, 49, 57]",824116143163492572,Na6La2In2Si3S3O24
Na6In4Si3(SO8)3,mp-2716126,1.9002999999999997,2.67815241,0.11848424404166824,"{11: 6, 49: 4, 14: 3, 16: 3, 8: 24}","[8, 11, 14, 16, 49]",824116143163494,Na6In4Si3S3O24
Na6La4Si3(SO8)3,mp-2716262,2.9695,2.12730928,0.12376226587500039,"{11: 6, 57: 4, 14: 3, 16: 3, 8: 24}","[8, 11, 14, 16, 57]",824116143163574,Na6La4Si3S3O24
Na6CaTi3Si4(SO12)2,mp-2714514,1.7594,1.87137456,0.10194142077083423,"{11: 6, 20: 1, 22: 3, 14: 4, 16: 2, 8: 24}","[8, 11, 14, 16, 20, 22]",824116144162201223,Na6Ca1Ti3Si4S2O24
Na6CaSi4Ge3(SO12)2,mp-2714564,0.7364000000000002,2.13623032,0.1699300897500029,"{11: 6, 20: 1, 14: 4, 32: 3, 16: 2, 8: 24}","[8, 11, 14, 16, 20, 32]",824116144162201323,Na6Ca1Si4Ge3S2O24
Na6CaZr3Si4(SO12)2,mp-2714323,3.2539,1.78007853,0.08543095856250638,"{11: 6, 20: 1, 40: 3, 14: 4, 16: 2, 8: 24}","[8, 11, 14, 16, 20, 40]",824116144162201403,Na6Ca1Zr3Si4S2O24
Na6CaSi4Sn3(SO12)2,mp-2714433,1.1902,2.70623903,0.12212844462499994,"{11: 6, 20: 1, 14: 4, 50: 3, 16: 2, 8: 24}","[8, 11, 14, 16, 20, 50]",824116144162201503,Na6Ca1Si4Sn3S2O24
Na6CaHf3Si4(SO12)2,mp-2714416,3.6643000000000003,1.77401554,0.08047812076042149,"{11: 6, 20: 1, 72: 3, 14: 4, 16: 2, 8: 24}","[8, 11, 14, 16, 20, 72]",824116144162201723,Na6Ca1Hf3Si4S2O24
Na6Sc3NbSi4(SO12)2,mp-2714476,2.2988,1.72431763,0.08943832537500018,"{11: 6, 21: 3, 41: 1, 14: 4, 16: 2, 8: 24}","[8, 11, 14, 16, 21, 41]",824116144162213411,Na6Sc3Nb1Si4S2O24
Na6Sc3TaSi4(SO12)2,mp-2714576,3.0873999999999997,1.8886903,0.08387315262500206,"{11: 6, 21: 3, 73: 1, 14: 4, 16: 2, 8: 24}","[8, 11, 14, 16, 21, 73]",824116144162213731,Na6Sc3Ta1Si4S2O24
Na6Ti3ZnSi4(SO12)2,mp-2714352,1.9139000000000002,1.92982709,0.0996605991874997,"{11: 6, 22: 3, 30: 1, 14: 4, 16: 2, 8: 24}","[8, 11, 14, 16, 22, 30]",824116144162223301,Na6Ti3Zn1Si4S2O24
Na6ZnSi4Ge3(SO12)2,mp-2714516,1.2593,2.52162522,0.16627082904166635,"{11: 6, 30: 1, 14: 4, 32: 3, 16: 2, 8: 24}","[8, 11, 14, 16, 30, 32]",824116144162301323,Na6Zn1Si4Ge3S2O24
Na6Zr3ZnSi4(SO12)2,mp-2714537,3.471,1.55937925,0.09405080535416488,"{11: 6, 40: 3, 30: 1, 14: 4, 16: 2, 8: 24}","[8, 11, 14, 16, 30, 40]",824116144162301403,Na6Zr3Zn1Si4S2O24
Na6ZnSi4Sn3(SO12)2,mp-2714536,1.7742,2.67356132,0.12251933683333238,"{11: 6, 30: 1, 14: 4, 50: 3, 16: 2, 8: 24}","[8, 11, 14, 16, 30, 50]",824116144162301503,Na6Zn1Si4Sn3S2O24
Na6Hf3ZnSi4(SO12)2,mp-2714613,3.9084000000000003,1.59888309,0.08503894337500029,"{11: 6, 72: 3, 30: 1, 14: 4, 16: 2, 8: 24}","[8, 11, 14, 16, 30, 72]",824116144162301723,Na6Hf3Zn1Si4S2O24
Na6NbGa3Si4(SO12)2,mp-2714331,2.1889,2.01410954,0.12383374258333468,"{11: 6, 41: 1, 31: 3, 14: 4, 16: 2, 8: 24}","[8, 11, 14, 16, 31, 41]",824116144162313411,Na6Nb1Ga3Si4S2O24
Na6TaGa3Si4(SO12)2,mp-2714358,2.9662999999999995,2.13685284,0.11849151627083554,"{11: 6, 73: 1, 31: 3, 14: 4, 16: 2, 8: 24}","[8, 11, 14, 16, 31, 73]",824116144162313731,Na6Ta1Ga3Si4S2O24
Na6NbIn3Si4(SO12)2,mp-2714409,2.1738999999999997,2.31055838,0.1010926707916715,"{11: 6, 41: 1, 49: 3, 14: 4, 16: 2, 8: 24}","[8, 11, 14, 16, 41, 49]",824116144162411493,Na6Nb1In3Si4S2O24
Na6La3NbSi4(SO12)2,mp-2714506,2.333,1.99342628,0.12197454173958455,"{11: 6, 57: 3, 41: 1, 14: 4, 16: 2, 8: 24}","[8, 11, 14, 16, 41, 57]",824116144162411573,Na6La3Nb1Si4S2O24
Na6TaIn3Si4(SO12)2,mp-2714402,2.8314000000000004,2.35090716,0.10147910656249959,"{11: 6, 73: 1, 49: 3, 14: 4, 16: 2, 8: 24}","[8, 11, 14, 16, 49, 73]",824116144162493731,Na6Ta1In3Si4S2O24
Na6La3TaSi4(SO12)2,mp-2714413,3.0646000000000004,2.07338179,0.11808731251041849,"{11: 6, 57: 3, 73: 1, 14: 4, 16: 2, 8: 24}","[8, 11, 14, 16, 57, 73]",824116144162573731,Na6La3Ta1Si4S2O24
Na6Sc2Nb2Si5SO24,mp-2714010,2.1168000000000005,1.74061811,0.07176167604167194,"{11: 6, 21: 2, 41: 2, 14: 5, 16: 1, 8: 24}","[8, 11, 14, 16, 21, 41]",824116145161212412,Na6Sc2Nb2Si5S1O24
Na6Sc2Ta2Si5SO24,mp-2713870,2.9656,1.77752831,0.06642833258333525,"{11: 6, 21: 2, 73: 2, 14: 5, 16: 1, 8: 24}","[8, 11, 14, 16, 21, 73]",824116145161212732,Na6Sc2Ta2Si5S1O24
Na6Ti2Si5Ge2SO24,mp-2713937,2.7089999999999996,2.11553074,0.0864377992916614,"{11: 6, 22: 2, 14: 5, 32: 2, 16: 1, 8: 24}","[8, 11, 14, 16, 22, 32]",824116145161222322,Na6Ti2Si5Ge2S1O24
Na6Zr2Ti2Si5SO24,mp-2713889,2.6109999999999998,1.71774319,0.058638425645828995,"{11: 6, 40: 2, 22: 2, 14: 5, 16: 1, 8: 24}","[8, 11, 14, 16, 22, 40]",824116145161222402,Na6Zr2Ti2Si5S1O24
Na6Ti2Si5Sn2SO24,mp-2713907,2.4870000000000005,2.30361992,0.061713939875001955,"{11: 6, 22: 2, 14: 5, 50: 2, 16: 1, 8: 24}","[8, 11, 14, 16, 22, 50]",824116145161222502,Na6Ti2Si5Sn2S1O24
Na6Hf2Ti2Si5SO24,mp-2713974,2.5557999999999996,1.75151621,0.04957375362500738,"{11: 6, 72: 2, 22: 2, 14: 5, 16: 1, 8: 24}","[8, 11, 14, 16, 22, 72]",824116145161222722,Na6Hf2Ti2Si5S1O24
Na6Ti4Si5SO24,mp-2713908,2.5801000000000003,1.89128181,0.05779008275000219,"{11: 6, 22: 4, 14: 5, 16: 1, 8: 24}","[8, 11, 14, 16, 22]",824116145161224,Na6Ti4Si5S1O24
Na6Nb2Ga2Si5SO24,mp-2713938,2.2912,1.85844885,0.09246502204166962,"{11: 6, 41: 2, 31: 2, 14: 5, 16: 1, 8: 24}","[8, 11, 14, 16, 31, 41]",824116145161312412,Na6Nb2Ga2Si5S1O24
Na6Ta2Ga2Si5SO24,mp-2713793,3.0338000000000003,2.03686351,0.0835755196666712,"{11: 6, 73: 2, 31: 2, 14: 5, 16: 1, 8: 24}","[8, 11, 14, 16, 31, 73]",824116145161312732,Na6Ta2Ga2Si5S1O24
Na6Zr2Si5Ge2SO24,mp-2713899,2.7725,1.90377752,0.09562609895833152,"{11: 6, 40: 2, 14: 5, 32: 2, 16: 1, 8: 24}","[8, 11, 14, 16, 32, 40]",824116145161322402,Na6Zr2Si5Ge2S1O24
Na6Si5Sn2Ge2SO24,mp-2713777,2.6911000000000005,2.53986518,0.1018619309166704,"{11: 6, 14: 5, 50: 2, 32: 2, 16: 1, 8: 24}","[8, 11, 14, 16, 32, 50]",824116145161322502,Na6Si5Sn2Ge2S1O24
Na6Hf2Si5Ge2SO24,mp-2713919,2.4599,1.91144467,0.09574987316666483,"{11: 6, 72: 2, 14: 5, 32: 2, 16: 1, 8: 24}","[8, 11, 14, 16, 32, 72]",824116145161322722,Na6Hf2Si5Ge2S1O24
Na6Si5Ge4SO24,mp-2713951,2.838,2.31895525,0.11740956533333691,"{11: 6, 14: 5, 32: 4, 16: 1, 8: 24}","[8, 11, 14, 16, 32]",824116145161324,Na6Si5Ge4S1O24
Na6Zr2Si5Sn2SO24,mp-2713804,2.9380000000000006,1.89503865,0.060164354374991014,"{11: 6, 40: 2, 14: 5, 50: 2, 16: 1, 8: 24}","[8, 11, 14, 16, 40, 50]",824116145161402502,Na6Zr2Si5Sn2S1O24
Na6Hf2Zr2Si5SO24,mp-2713809,4.1447,1.33004755,0.041691162833334516,"{11: 6, 72: 2, 40: 2, 14: 5, 16: 1, 8: 24}","[8, 11, 14, 16, 40, 72]",824116145161402722,Na6Hf2Zr2Si5S1O24
Na6Zr4Si5SO24,mp-2713849,4.1429,1.38202869,0.047331768458335866,"{11: 6, 40: 4, 14: 5, 16: 1, 8: 24}","[8, 11, 14, 16, 40]",824116145161404,Na6Zr4Si5S1O24
Na6Nb2In2Si5SO24,mp-2713762,2.3092999999999995,2.02323762,0.07399321679166881,"{11: 6, 41: 2, 49: 2, 14: 5, 16: 1, 8: 24}","[8, 11, 14, 16, 41, 49]",824116145161412492,Na6Nb2In2Si5S1O24
Na6La2Nb2Si5SO24,mp-2713838,2.193,1.91778753,0.10900561177083556,"{11: 6, 57: 2, 41: 2, 14: 5, 16: 1, 8: 24}","[8, 11, 14, 16, 41, 57]",824116145161412572,Na6La2Nb2Si5S1O24
Na6Ta2In2Si5SO24,mp-2713735,3.0377,2.18870861,0.07002432900000244,"{11: 6, 73: 2, 49: 2, 14: 5, 16: 1, 8: 24}","[8, 11, 14, 16, 49, 73]",824116145161492732,Na6Ta2In2Si5S1O24
Na6Hf2Si5Sn2SO24,mp-2713969,2.7807000000000004,1.89259775,0.060209694999999286,"{11: 6, 72: 2, 14: 5, 50: 2, 16: 1, 8: 24}","[8, 11, 14, 16, 50, 72]",824116145161502722,Na6Hf2Si5Sn2S1O24
Na6Si5Sn4SO24,mp-2713875,2.6812,2.48553456,0.0712998335000039,"{11: 6, 14: 5, 50: 4, 16: 1, 8: 24}","[8, 11, 14, 16, 50]",824116145161504,Na6Si5Sn4S1O24
Na6La2Ta2Si5SO24,mp-2713760,3.0591999999999997,2.19684744,0.10366946614583572,"{11: 6, 57: 2, 73: 2, 14: 5, 16: 1, 8: 24}","[8, 11, 14, 16, 57, 73]",824116145161572732,Na6La2Ta2Si5S1O24
Na6Hf4Si5SO24,mp-2713879,4.2524,1.56468917,0.03377061533332615,"{11: 6, 72: 4, 14: 5, 16: 1, 8: 24}","[8, 11, 14, 16, 72]",824116145161724,Na6Hf4Si5S1O24
Na6ScNb3(SiO4)6,mp-2715327,2.6699,1.45709454,0.03703676756249674,"{11: 6, 21: 1, 41: 3, 14: 6, 8: 24}","[8, 11, 14, 21, 41]",824116146211413,Na6Sc1Nb3Si6O24
Na6ScTa3(SiO4)6,mp-2715430,3.7699999999999996,1.57870336,0.022547993208336337,"{11: 6, 21: 1, 73: 3, 14: 6, 8: 24}","[8, 11, 14, 21, 73]",824116146211733,Na6Sc1Ta3Si6O24
Na6Nb3Ga(SiO4)6,mp-2715283,2.6851000000000003,1.50863264,0.0451172688958259,"{11: 6, 41: 3, 31: 1, 14: 6, 8: 24}","[8, 11, 14, 31, 41]",824116146311413,Na6Nb3Ga1Si6O24
Na6Ta3Ga(SiO4)6,mp-2715427,3.4071,1.76710859,0.030638863624992574,"{11: 6, 73: 3, 31: 1, 14: 6, 8: 24}","[8, 11, 14, 31, 73]",824116146311733,Na6Ta3Ga1Si6O24
Na6Nb3In(SiO4)6,mp-2715367,2.9199999999999995,1.63556117,0.03569241177083082,"{11: 6, 41: 3, 49: 1, 14: 6, 8: 24}","[8, 11, 14, 41, 49]",824116146413491,Na6Nb3In1Si6O24
Na6LaNb3(SiO4)6,mp-2715389,2.9099,1.48205924,0.052734181177086725,"{11: 6, 57: 1, 41: 3, 14: 6, 8: 24}","[8, 11, 14, 41, 57]",824116146413571,Na6La1Nb3Si6O24
Na6Ta3In(SiO4)6,mp-2715346,3.7908,1.63709988,0.020660062083329933,"{11: 6, 73: 3, 49: 1, 14: 6, 8: 24}","[8, 11, 14, 49, 73]",824116146491733,Na6Ta3In1Si6O24
Na6LaTa3(SiO4)6,mp-2715322,3.6397000000000004,1.66671274,0.04380100636458728,"{11: 6, 57: 1, 73: 3, 14: 6, 8: 24}","[8, 11, 14, 57, 73]",824116146571733,Na6La1Ta3Si6O24
Na7MgTi3Si3(PO8)3,mp-2714633,2.2132000000000005,2.16635833,0.03905820552033301,"{11: 7, 12: 1, 22: 3, 14: 3, 15: 3, 8: 24}","[8, 11, 12, 14, 15, 22]",824117121143153223,Na7Mg1Ti3Si3P3O24
Na7MgSi3Ge3(PO8)3,mp-2714827,2.3761,2.49246074,0.09258541107723417,"{11: 7, 12: 1, 14: 3, 32: 3, 15: 3, 8: 24}","[8, 11, 12, 14, 15, 32]",824117121143153323,Na7Mg1Si3Ge3P3O24
Na7MgZr3Si3(PO8)3,mp-2714771,3.8258,1.63871007,0.03044343386178827,"{11: 7, 12: 1, 40: 3, 14: 3, 15: 3, 8: 24}","[8, 11, 12, 14, 15, 40]",824117121143153403,Na7Mg1Zr3Si3P3O24
Na7MgSi3Sn3(PO8)3,mp-2714709,2.4782,2.89917949,0.04739240014227519,"{11: 7, 12: 1, 14: 3, 50: 3, 15: 3, 8: 24}","[8, 11, 12, 14, 15, 50]",824117121143153503,Na7Mg1Si3Sn3P3O24
Na7Hf3MgSi3(PO8)3,mp-2714679,4.0792,1.93442358,0.017626848587397603,"{11: 7, 72: 3, 12: 1, 14: 3, 15: 3, 8: 24}","[8, 11, 12, 14, 15, 72]",824117121143153723,Na7Hf3Mg1Si3P3O24
Na7MgSc3Si3(SO8)3,mp-2714190,3.8121,2.0062602,0.0865960063998914,"{11: 7, 12: 1, 21: 3, 14: 3, 16: 3, 8: 24}","[8, 11, 12, 14, 16, 21]",824117121143163213,Na7Mg1Sc3Si3S3O24
Na7MgGa3Si3(SO8)3,mp-2714249,2.9515000000000002,2.31332772,0.12958130451220207,"{11: 7, 12: 1, 31: 3, 14: 3, 16: 3, 8: 24}","[8, 11, 12, 14, 16, 31]",824117121143163313,Na7Mg1Ga3Si3S3O24
Na7MgIn3Si3(SO8)3,mp-2714115,2.586,2.59279364,0.10905838798780909,"{11: 7, 12: 1, 49: 3, 14: 3, 16: 3, 8: 24}","[8, 11, 12, 14, 16, 49]",824117121143163493,Na7Mg1In3Si3S3O24
Na7La3MgSi3(SO8)3,mp-2714286,3.2708000000000004,2.17918909,0.11969282837398598,"{11: 7, 57: 3, 12: 1, 14: 3, 16: 3, 8: 24}","[8, 11, 12, 14, 16, 57]",824117121143163573,Na7La3Mg1Si3S3O24
Na7MgNb3(SiO4)6,mp-2712873,1.9441,2.28893266,0.04944740867886033,"{11: 7, 12: 1, 41: 3, 14: 6, 8: 24}","[8, 11, 12, 14, 41]",824117121146413,Na7Mg1Nb3Si6O24
Na7MgTa3(SiO4)6,mp-2712875,2.6186,2.50395756,0.03596755434959675,"{11: 7, 12: 1, 73: 3, 14: 6, 8: 24}","[8, 11, 12, 14, 73]",824117121146733,Na7Mg1Ta3Si6O24
Na7Mg2Ti2SiP5O24,mp-2715593,1.9953000000000003,2.0815004,0.03871849726504184,"{11: 7, 12: 2, 22: 2, 14: 1, 15: 5, 8: 24}","[8, 11, 12, 14, 15, 22]",824117122141155222,Na7Mg2Ti2Si1P5O24
Na7Mg2SiGe2P5O24,mp-2715692,1.5531000000000001,2.55394033,0.0860870796409241,"{11: 7, 12: 2, 14: 1, 32: 2, 15: 5, 8: 24}","[8, 11, 12, 14, 15, 32]",824117122141155322,Na7Mg2Si1Ge2P5O24
Na7Mg2Zr2SiP5O24,mp-2715543,3.6294000000000004,1.81805078,0.019335568495933764,"{11: 7, 12: 2, 40: 2, 14: 1, 15: 5, 8: 24}","[8, 11, 12, 14, 15, 40]",824117122141155402,Na7Mg2Zr2Si1P5O24
Na7Mg2SiSn2P5O24,mp-2715793,2.2217999999999996,2.64191062,0.0396686412520344,"{11: 7, 12: 2, 14: 1, 50: 2, 15: 5, 8: 24}","[8, 11, 12, 14, 15, 50]",824117122141155502,Na7Mg2Si1Sn2P5O24
Na7Hf2Mg2SiP5O24,mp-2715556,4.2128,2.11673896,0.016290952367884692,"{11: 7, 72: 2, 12: 2, 14: 1, 15: 5, 8: 24}","[8, 11, 12, 14, 15, 72]",824117122141155722,Na7Hf2Mg2Si1P5O24
Na7Mg2Nb2Si3(PO8)3,mp-2714801,1.7219,2.119028,0.06525300282520163,"{11: 7, 12: 2, 41: 2, 14: 3, 15: 3, 8: 24}","[8, 11, 12, 14, 15, 41]",824117122143153412,Na7Mg2Nb2Si3P3O24
Na7Mg2Ta2Si3(PO8)3,mp-2714700,2.7153,2.16821356,0.058934199369918616,"{11: 7, 12: 2, 73: 2, 14: 3, 15: 3, 8: 24}","[8, 11, 12, 14, 15, 73]",824117122143153732,Na7Mg2Ta2Si3P3O24
Na7Mg3NbSi3(SO8)3,mp-2714181,0.4504999999999999,2.80355089,0.125920632784549,"{11: 7, 12: 3, 41: 1, 14: 3, 16: 3, 8: 24}","[8, 11, 12, 14, 16, 41]",824117123143163411,Na7Mg3Nb1Si3S3O24
Na7Mg3TaSi3(SO8)3,mp-2714234,1.2982999999999998,2.89060356,0.1253799614227722,"{11: 7, 12: 3, 73: 1, 14: 3, 16: 3, 8: 24}","[8, 11, 12, 14, 16, 73]",824117123143163731,Na7Mg3Ta1Si3S3O24
Na7Ca2Ti2SiP5O24,mp-2715607,1.824,1.80423847,0.08634662925138237,"{11: 7, 20: 2, 22: 2, 14: 1, 15: 5, 8: 24}","[8, 11, 14, 15, 20, 22]",824117141155202222,Na7Ca2Ti2Si1P5O24
Na7Ca2SiGe2P5O24,mp-2715653,0.7585,2.05452615,0.1490792035830344,"{11: 7, 20: 2, 14: 1, 32: 2, 15: 5, 8: 24}","[8, 11, 14, 15, 20, 32]",824117141155202322,Na7Ca2Si1Ge2P5O24
Na7Ca2Zr2SiP5O24,mp-2715635,3.3627000000000002,1.7448102,0.04115608963415518,"{11: 7, 20: 2, 40: 2, 14: 1, 15: 5, 8: 24}","[8, 11, 14, 15, 20, 40]",824117141155202402,Na7Ca2Zr2Si1P5O24
Na7Ca2SiSn2P5O24,mp-2715532,1.367,2.37566313,0.06807725187572444,"{11: 7, 20: 2, 14: 1, 50: 2, 15: 5, 8: 24}","[8, 11, 14, 15, 20, 50]",824117141155202502,Na7Ca2Si1Sn2P5O24
Na7Ca2Hf2SiP5O24,mp-2715640,3.8854,1.86285208,0.044832970985772214,"{11: 7, 20: 2, 72: 2, 14: 1, 15: 5, 8: 24}","[8, 11, 14, 15, 20, 72]",824117141155202722,Na7Ca2Hf2Si1P5O24
Na7Sc2Ga2SiP5O24,mp-2715739,4.0067,1.83385175,0.04282381727642104,"{11: 7, 21: 2, 31: 2, 14: 1, 15: 5, 8: 24}","[8, 11, 14, 15, 21, 31]",824117141155212312,Na7Sc2Ga2Si1P5O24
Na7Sc2In2SiP5O24,mp-2715539,3.7228999999999997,1.98120671,0.022548780619917608,"{11: 7, 21: 2, 49: 2, 14: 1, 15: 5, 8: 24}","[8, 11, 14, 15, 21, 49]",824117141155212492,Na7Sc2In2Si1P5O24
Na7La2Sc2SiP5O24,mp-2715755,4.1463,1.68669351,0.054507551951213706,"{11: 7, 57: 2, 21: 2, 14: 1, 15: 5, 8: 24}","[8, 11, 14, 15, 21, 57]",824117141155212572,Na7La2Sc2Si1P5O24
Na7Sc4SiP5O24,mp-2715658,4.457,1.4890951,0.01124134979674718,"{11: 7, 21: 4, 14: 1, 15: 5, 8: 24}","[8, 11, 14, 15, 21]",824117141155214,Na7Sc4Si1P5O24
Na7Ti2Zn2SiP5O24,mp-2715630,1.6576,2.34947357,0.0695372630308917,"{11: 7, 22: 2, 30: 2, 14: 1, 15: 5, 8: 24}","[8, 11, 14, 15, 22, 30]",824117141155222302,Na7Ti2Zn2Si1P5O24
Na7Zn2SiGe2P5O24,mp-2715592,1.2563,2.52698035,0.1136672472154423,"{11: 7, 30: 2, 14: 1, 32: 2, 15: 5, 8: 24}","[8, 11, 14, 15, 30, 32]",824117141155302322,Na7Zn2Si1Ge2P5O24
Na7Zr2Zn2SiP5O24,mp-2715731,3.5011,1.88545021,0.05304085865853647,"{11: 7, 40: 2, 30: 2, 14: 1, 15: 5, 8: 24}","[8, 11, 14, 15, 30, 40]",824117141155302402,Na7Zr2Zn2Si1P5O24
Na7Zn2SiSn2P5O24,mp-2715660,1.9837000000000002,2.66222365,0.06604102586991978,"{11: 7, 30: 2, 14: 1, 50: 2, 15: 5, 8: 24}","[8, 11, 14, 15, 30, 50]",824117141155302502,Na7Zn2Si1Sn2P5O24
Na7Hf2Zn2SiP5O24,mp-2715741,3.87,1.9120602,0.04632001935975971,"{11: 7, 72: 2, 30: 2, 14: 1, 15: 5, 8: 24}","[8, 11, 14, 15, 30, 72]",824117141155302722,Na7Hf2Zn2Si1P5O24
Na7In2Ga2SiP5O24,mp-2715768,3.4177000000000004,2.11120453,0.0450199322764222,"{11: 7, 49: 2, 31: 2, 14: 1, 15: 5, 8: 24}","[8, 11, 14, 15, 31, 49]",824117141155312492,Na7In2Ga2Si1P5O24
Na7La2Ga2SiP5O24,mp-2715683,3.4148,1.93535851,0.09278644277439252,"{11: 7, 57: 2, 31: 2, 14: 1, 15: 5, 8: 24}","[8, 11, 14, 15, 31, 57]",824117141155312572,Na7La2Ga2Si1P5O24
Na7Ga4SiP5O24,mp-2715706,3.7148000000000003,1.94779498,0.042398562872629775,"{11: 7, 31: 4, 14: 1, 15: 5, 8: 24}","[8, 11, 14, 15, 31]",824117141155314,Na7Ga4Si1P5O24
Na7La2In2SiP5O24,mp-2715761,3.226,2.07757131,0.06184311888211269,"{11: 7, 57: 2, 49: 2, 14: 1, 15: 5, 8: 24}","[8, 11, 14, 15, 49, 57]",824117141155492572,Na7La2In2Si1P5O24
Na7In4SiP5O24,mp-2715638,3.2459999999999996,2.26861223,0.028971752845541765,"{11: 7, 49: 4, 14: 1, 15: 5, 8: 24}","[8, 11, 14, 15, 49]",824117141155494,Na7In4Si1P5O24
Na7La4SiP5O24,mp-2715788,3.7515,1.83507248,0.0743487099796738,"{11: 7, 57: 4, 14: 1, 15: 5, 8: 24}","[8, 11, 14, 15, 57]",824117141155574,Na7La4Si1P5O24
Na7CaTi3Si3(PO8)3,mp-2714908,2.0046,1.91067069,0.05717029125202977,"{11: 7, 20: 1, 22: 3, 14: 3, 15: 3, 8: 24}","[8, 11, 14, 15, 20, 22]",824117143153201223,Na7Ca1Ti3Si3P3O24
Na7CaSi3Ge3(PO8)3,mp-2715030,1.9717,2.19503044,0.12023817241869672,"{11: 7, 20: 1, 14: 3, 32: 3, 15: 3, 8: 24}","[8, 11, 14, 15, 20, 32]",824117143153201323,Na7Ca1Si3Ge3P3O24