formula,material_id,band_gap,efermi,energy_above_hull,comp_atoms,sorted_keys_comp_atoms,comp_number,new_formula
Mg2Mn2(SiO4)3,mp-1264900,1.3374000000000001,3.26156915,0.11595582847952812,"{12: 2, 25: 2, 14: 3, 8: 12}","[8, 12, 14, 25]",812122143252,Mg2Mn2Si3O12
Lu3Mg2(SiO4)3,mp-1211091,0.0,7.99718537,0.07317650084374527,"{71: 3, 12: 2, 14: 3, 8: 12}","[8, 12, 14, 71]",812122143713,Lu3Mg2Si3O12
Mg3Ti2(SiO4)3,mp-1262556,0.0,7.69149175,0.12294868287500282,"{12: 3, 22: 2, 14: 3, 8: 12}","[8, 12, 14, 22]",812123143222,Mg3Ti2Si3O12
Mg3V2(SiO4)3,mp-14043,0.0,5.95580535,0.05978662481250119,"{12: 3, 23: 2, 14: 3, 8: 12}","[8, 12, 14, 23]",812123143232,Mg3V2Si3O12
Mg3Cr2(SiO4)3,mp-6700,3.101,4.32988085,0.06172003791667002,"{12: 3, 24: 2, 14: 3, 8: 12}","[8, 12, 14, 24]",812123143242,Mg3Cr2Si3O12
Mg3Mn2(SiO4)3,mp-1258129,1.4259000000000004,4.4322697,0.08715322996528041,"{12: 3, 25: 2, 14: 3, 8: 12}","[8, 12, 14, 25]",812123143252,Mg3Mn2Si3O12
Mg3Co2(SiO4)3,mp-1324099,2.5397999999999996,4.20713732,0.0883887366666638,"{12: 3, 27: 2, 14: 3, 8: 12}","[8, 12, 14, 27]",812123143272,Mg3Co2Si3O12
Mg3Si3(MoO6)2,mp-1327088,2.6674999999999995,5.0978153,0.08705948412499698,"{12: 3, 14: 3, 42: 2, 8: 12}","[8, 12, 14, 42]",812123143422,Mg3Si3Mo2O12
Mg3Si3(AgO6)2,mp-1154476,0.12589999999999968,3.85486503,0.2038521644999962,"{12: 3, 14: 3, 47: 2, 8: 12}","[8, 12, 14, 47]",812123143472,Mg3Si3Ag2O12
Mg3Si3(SnO6)2,mp-1328703,0.19709999999999983,7.6035901,0.2623701380624919,"{12: 3, 14: 3, 50: 2, 8: 12}","[8, 12, 14, 50]",812123143502,Mg3Si3Sn2O12
Mg3Si3(SbO6)2,mp-1163940,2.9489,9.11631395,0.26692116154166623,"{12: 3, 14: 3, 51: 2, 8: 12}","[8, 12, 14, 51]",812123143512,Mg3Si3Sb2O12
Mg3Si3(WO6)2,mp-1157231,2.1308,5.10384074,0.17197938637499632,"{12: 3, 14: 3, 74: 2, 8: 12}","[8, 12, 14, 74]",812123143742,Mg3Si3W2O12
Mg3Si3(BiO6)2,mp-1328117,3.465300000000001,8.45844923,0.2460089088750026,"{12: 3, 14: 3, 83: 2, 8: 12}","[8, 12, 14, 83]",812123143832,Mg3Si3Bi2O12
Mg3(SiO3)4,mp-1200846,0.0766,-1.9499942,0.10644876350877208,"{12: 3, 14: 4, 8: 12}","[8, 12, 14]",812123144,Mg3Si4O12
KMg3(SiO3)4,mp-1211275,1.1346999999999996,2.65778262,0.04603175613123245,"{19: 1, 12: 3, 14: 4, 8: 12}","[8, 12, 14, 19]",812123144191,K1Mg3Si4O12
CaMg3(SiO3)4,mp-1227106,4.7023,2.79297681,0.017460937333325433,"{20: 1, 12: 3, 14: 4, 8: 12}","[8, 12, 14, 20]",812123144201,Ca1Mg3Si4O12
Ca5Si(PO6)2,mp-1227400,4.7968,1.89646412,0.0,"{20: 5, 14: 1, 15: 2, 8: 12}","[8, 14, 15, 20]",812141152205,Ca5Si1P2O12
TaNbSi(PO6)2,mp-2715709,2.9977,-0.00416995,0.0170060173529496,"{73: 1, 41: 1, 14: 1, 15: 2, 8: 12}","[8, 14, 15, 41, 73]",812141152411731,Ta1Nb1Si1P2O12
Nb2Si(PO6)2,mp-2715728,2.9381,-0.16525453,0.017277805000000868,"{41: 2, 14: 1, 15: 2, 8: 12}","[8, 14, 15, 41]",812141152412,Nb2Si1P2O12
Cd5Si(PO6)2,mp-1227191,2.0401,1.17706511,0.013249035083338079,"{48: 5, 14: 1, 15: 2, 8: 12}","[8, 14, 15, 48]",812141152485,Cd5Si1P2O12
Ta2Si(PO6)2,mp-2715695,3.7612,0.03944996,0.013032517549023126,"{73: 2, 14: 1, 15: 2, 8: 12}","[8, 14, 15, 73]",812141152732,Ta2Si1P2O12
ScNbSi(SO6)2,mp-2713368,1.9425000000000001,0.07313288,0.06581301593137923,"{21: 1, 41: 1, 14: 1, 16: 2, 8: 12}","[8, 14, 16, 21, 41]",812141162211411,Sc1Nb1Si1S2O12
ScTaSi(SO6)2,mp-2713398,2.4815,0.37924395,0.07493535029412968,"{21: 1, 73: 1, 14: 1, 16: 2, 8: 12}","[8, 14, 16, 21, 73]",812141162211731,Sc1Ta1Si1S2O12
TiSiGe(SO6)2,mp-2713169,2.5307999999999997,0.47721116,0.05848779852940833,"{22: 1, 14: 1, 32: 1, 16: 2, 8: 12}","[8, 14, 16, 22, 32]",812141162221321,Ti1Si1Ge1S2O12
ZrTiSi(SO6)2,mp-2713214,2.4421,-0.02883438,0.016567398210785456,"{40: 1, 22: 1, 14: 1, 16: 2, 8: 12}","[8, 14, 16, 22, 40]",812141162221401,Zr1Ti1Si1S2O12
TiSiSn(SO6)2,mp-2713338,2.2135,0.99487442,0.03336445555146028,"{22: 1, 14: 1, 50: 1, 16: 2, 8: 12}","[8, 14, 16, 22, 50]",812141162221501,Ti1Si1Sn1S2O12
HfTiSi(SO6)2,mp-2713426,2.3917,-0.05485959,0.012755486642159752,"{72: 1, 22: 1, 14: 1, 16: 2, 8: 12}","[8, 14, 16, 22, 72]",812141162221721,Hf1Ti1Si1S2O12
Ti2Si(SO6)2,mp-2713395,2.4594,0.20970956,0.027992433186271093,"{22: 2, 14: 1, 16: 2, 8: 12}","[8, 14, 16, 22]",812141162222,Ti2Si1S2O12
NbGaSi(SO6)2,mp-2713498,2.1598,0.33391703,0.04716381843137096,"{41: 1, 31: 1, 14: 1, 16: 2, 8: 12}","[8, 14, 16, 31, 41]",812141162311411,Nb1Ga1Si1S2O12
TaGaSi(SO6)2,mp-2713344,2.943,0.47665039,0.051806990049019674,"{73: 1, 31: 1, 14: 1, 16: 2, 8: 12}","[8, 14, 16, 31, 73]",812141162311731,Ta1Ga1Si1S2O12
ZrSiGe(SO6)2,mp-2713452,2.2184,0.21745036,0.0850448852450798,"{40: 1, 14: 1, 32: 1, 16: 2, 8: 12}","[8, 14, 16, 32, 40]",812141162321401,Zr1Si1Ge1S2O12
SiSnGe(SO6)2,mp-2713382,1.8064,1.31606085,0.0978178540931367,"{14: 1, 50: 1, 32: 1, 16: 2, 8: 12}","[8, 14, 16, 32, 50]",812141162321501,Si1Sn1Ge1S2O12
HfSiGe(SO6)2,mp-2713402,2.0599999999999996,0.45999614,0.044795714852949864,"{72: 1, 14: 1, 32: 1, 16: 2, 8: 12}","[8, 14, 16, 32, 72]",812141162321721,Hf1Si1Ge1S2O12
SiGe2(SO6)2,mp-2713373,2.3672,0.91006995,0.06784033460784133,"{14: 1, 32: 2, 16: 2, 8: 12}","[8, 14, 16, 32]",812141162322,Si1Ge2S2O12
ZrSiSn(SO6)2,mp-2713450,2.4120999999999997,0.4688634,0.039043039852951544,"{40: 1, 14: 1, 50: 1, 16: 2, 8: 12}","[8, 14, 16, 40, 50]",812141162401501,Zr1Si1Sn1S2O12
HfZrSi(SO6)2,mp-2713208,3.9413,-0.21344396,0.001120443725490361,"{72: 1, 40: 1, 14: 1, 16: 2, 8: 12}","[8, 14, 16, 40, 72]",812141162401721,Hf1Zr1Si1S2O12
Zr2Si(SO6)2,mp-2713150,3.872,-0.37174977,0.0,"{40: 2, 14: 1, 16: 2, 8: 12}","[8, 14, 16, 40]",812141162402,Zr2Si1S2O12
NbInSi(SO6)2,mp-2713193,1.8039999999999998,0.53935142,0.07347176450980353,"{41: 1, 49: 1, 14: 1, 16: 2, 8: 12}","[8, 14, 16, 41, 49]",812141162411491,Nb1In1Si1S2O12
LaNbSi(SO6)2,mp-2713430,1.723,0.36555799,0.10467193705880984,"{57: 1, 41: 1, 14: 1, 16: 2, 8: 12}","[8, 14, 16, 41, 57]",812141162411571,La1Nb1Si1S2O12
TaInSi(SO6)2,mp-2713531,2.4726000000000004,0.75567595,0.08048696446078196,"{73: 1, 49: 1, 14: 1, 16: 2, 8: 12}","[8, 14, 16, 49, 73]",812141162491731,Ta1In1Si1S2O12
HfSiSn(SO6)2,mp-2713420,2.2986999999999997,0.62695222,0.03082220047796902,"{72: 1, 14: 1, 50: 1, 16: 2, 8: 12}","[8, 14, 16, 50, 72]",812141162501721,Hf1Si1Sn1S2O12
SiSn2(SO6)2,mp-2713158,2.1966,1.22135785,0.051560146348036184,"{14: 1, 50: 2, 16: 2, 8: 12}","[8, 14, 16, 50]",812141162502,Si1Sn2S2O12
LaTaSi(SO6)2,mp-2713393,2.441,1.00294096,0.10168708014707128,"{57: 1, 73: 1, 14: 1, 16: 2, 8: 12}","[8, 14, 16, 57, 73]",812141162571731,La1Ta1Si1S2O12
Hf2Si(SO6)2,mp-2713341,4.5267,-0.00491851,0.0,"{72: 2, 14: 1, 16: 2, 8: 12}","[8, 14, 16, 72]",812141162722,Hf2Si1S2O12
CaMn6SiO12,mp-558986,0.5927000000000002,3.41020353,0.0,"{20: 1, 25: 6, 14: 1, 8: 12}","[8, 14, 20, 25]",812141201256,Ca1Mn6Si1O12
Ca3Ga2Si(SnO6)2,mp-695070,2.9215,3.04619023,0.0,"{20: 3, 31: 2, 14: 1, 50: 2, 8: 12}","[8, 14, 20, 31, 50]",812141203312502,Ca3Ga2Si1Sn2O12
V2SiPb5O12,mp-1217159,2.6668,2.78064136,0.0,"{23: 2, 14: 1, 82: 5, 8: 12}","[8, 14, 23, 82]",812141232825,V2Si1Pb5O12
Mn7SiO12,mp-3224,0.25669999999999993,3.71644267,0.0,"{25: 7, 14: 1, 8: 12}","[8, 14, 25]",812141257,Mn7Si1O12
Cd5Si2PO12,mp-1213943,0.0,1.03879206,0.043966041479179374,"{48: 5, 14: 2, 15: 1, 8: 12}","[8, 14, 15, 48]",812142151485,Cd5Si2P1O12
Ca5Si2SO12,mp-6607,4.4382,2.00417167,0.004208485874999113,"{20: 5, 14: 2, 16: 1, 8: 12}","[8, 14, 16, 20]",812142161205,Ca5Si2S1O12
TaNbSi2SO12,mp-2715710,3.1292999999999997,-0.03291779,0.0,"{73: 1, 41: 1, 14: 2, 16: 1, 8: 12}","[8, 14, 16, 41, 73]",812142161411731,Ta1Nb1Si2S1O12
Nb2Si2SO12,mp-2715784,3.0701,-0.12013633,0.0,"{41: 2, 14: 2, 16: 1, 8: 12}","[8, 14, 16, 41]",812142161412,Nb2Si2S1O12
Ta2Si2SO12,mp-2715681,3.8496,0.07248651,0.0,"{73: 2, 14: 2, 16: 1, 8: 12}","[8, 14, 16, 73]",812142161732,Ta2Si2S1O12
CaCr2(SiO4)3,mp-1250522,0.0,1.75485402,0.2576858119444605,"{20: 1, 24: 2, 14: 3, 8: 12}","[8, 14, 20, 24]",812143201242,Ca1Cr2Si3O12
Ca2Cr2(SiO4)3,mp-1250467,0.5882000000000001,2.67226993,0.10939882931287492,"{20: 2, 24: 2, 14: 3, 8: 12}","[8, 14, 20, 24]",812143202242,Ca2Cr2Si3O12
Ca2Mn2(SiO4)3,mp-1250185,1.0448,2.79821688,0.09292145385964634,"{20: 2, 25: 2, 14: 3, 8: 12}","[8, 14, 20, 25]",812143202252,Ca2Mn2Si3O12
Ca2Zn3Si3PbO12,mp-1200437,3.7221,5.591253,0.0,"{20: 2, 30: 3, 14: 3, 82: 1, 8: 12}","[8, 14, 20, 30, 82]",812143202303821,Ca2Zn3Si3Pb1O12
Ca3Sc2(SiO4)3,mp-6255,4.1025,2.83479667,0.0,"{20: 3, 21: 2, 14: 3, 8: 12}","[8, 14, 20, 21]",812143203212,Ca3Sc2Si3O12
Ca3Ti2(SiO4)3,mp-1154470,0.06930000000000014,6.81381079,0.02330592724999825,"{20: 3, 22: 2, 14: 3, 8: 12}","[8, 14, 20, 22]",812143203222,Ca3Ti2Si3O12
Ca3V2(SiO4)3,mp-1163934,1.8973000000000004,4.30915376,0.0,"{20: 3, 23: 2, 14: 3, 8: 12}","[8, 14, 20, 23]",812143203232,Ca3V2Si3O12
Ca3Cr2(SiO4)3,mp-6414,3.0111,3.46869365,0.0,"{20: 3, 24: 2, 14: 3, 8: 12}","[8, 14, 20, 24]",812143203242,Ca3Cr2Si3O12
Ca3Mn2(SiO4)3,mp-1265277,1.1067999999999998,3.61046708,0.025516219097214687,"{20: 3, 25: 2, 14: 3, 8: 12}","[8, 14, 20, 25]",812143203252,Ca3Mn2Si3O12
Ca3Co2(SiO4)3,mp-1163930,1.9902999999999995,2.86497185,0.03007758287500817,"{20: 3, 27: 2, 14: 3, 8: 12}","[8, 14, 20, 27]",812143203272,Ca3Co2Si3O12
Ca3Ga2(SiO4)3,mp-14050,4.2496,3.03428222,0.011785602375006476,"{20: 3, 31: 2, 14: 3, 8: 12}","[8, 14, 20, 31]",812143203312,Ca3Ga2Si3O12
Ca3Si3(MoO6)2,mp-1170750,3.077000000000001,7.41925548,0.0,"{20: 3, 14: 3, 42: 2, 8: 12}","[8, 14, 20, 42]",812143203422,Ca3Si3Mo2O12
Ca3Si3(AgO6)2,mp-1157153,0.1654,3.00141263,0.10910737400001214,"{20: 3, 14: 3, 47: 2, 8: 12}","[8, 14, 20, 47]",812143203472,Ca3Si3Ag2O12
Ca3In2(SiO4)3,mp-14052,3.668,3.60406034,0.008378406750008338,"{20: 3, 49: 2, 14: 3, 8: 12}","[8, 14, 20, 49]",812143203492,Ca3In2Si3O12
Ca3Si3(SnO6)2,mp-1330803,0.0,6.44399248,0.1448753918125032,"{20: 3, 14: 3, 50: 2, 8: 12}","[8, 14, 20, 50]",812143203502,Ca3Si3Sn2O12
Ca3Si3(SbO6)2,mp-1331145,2.9629000000000003,8.0171955,0.12147788025000494,"{20: 3, 14: 3, 51: 2, 8: 12}","[8, 14, 20, 51]",812143203512,Ca3Si3Sb2O12
Ca3Si3(WO6)2,mp-1154711,2.4811999999999994,4.70037418,0.053578934999999106,"{20: 3, 14: 3, 74: 2, 8: 12}","[8, 14, 20, 74]",812143203742,Ca3Si3W2O12
Ca3Si3(BiO6)2,mp-1163927,3.2982000000000005,4.61204073,0.06537842750000067,"{20: 3, 14: 3, 83: 2, 8: 12}","[8, 14, 20, 83]",812143203832,Ca3Si3Bi2O12
Ti2Zn3(SiO4)3,mp-1254352,0.0,6.53290008,0.22054641729166136,"{22: 2, 30: 3, 14: 3, 8: 12}","[8, 14, 22, 30]",812143222303,Ti2Zn3Si3O12
Mn3V2(SiO4)3,mp-14046,0.0,5.38896045,0.0671832860624999,"{25: 3, 23: 2, 14: 3, 8: 12}","[8, 14, 23, 25]",812143232253,Mn3V2Si3O12
V2Zn3(SiO4)3,mp-1251134,0.0,5.0927888,0.1751195512500079,"{23: 2, 30: 3, 14: 3, 8: 12}","[8, 14, 23, 30]",812143232303,V2Zn3Si3O12
Cr2(SiO4)3,mp-1172462,0.5603,1.30439531,0.3917612939411743,"{24: 2, 14: 3, 8: 12}","[8, 14, 24]",812143242,Cr2Si3O12
Mn3Cr2(SiO4)3,mp-6274,2.8887,4.35544672,0.02882274416666597,"{25: 3, 24: 2, 14: 3, 8: 12}","[8, 14, 24, 25]",812143242253,Mn3Cr2Si3O12
Zn3Cr2(SiO4)3,mp-1253507,2.6819999999999995,3.53641556,0.1339314046666722,"{30: 3, 24: 2, 14: 3, 8: 12}","[8, 14, 24, 30]",812143242303,Zn3Cr2Si3O12
Mn2Zn3(SiO4)3,mp-1264019,1.255,3.76481587,0.15657473091667562,"{25: 2, 30: 3, 14: 3, 8: 12}","[8, 14, 25, 30]",812143252303,Mn2Zn3Si3O12
Mn5(SiO4)3,mp-5802,0.0,4.43427921,0.08024111598611938,"{25: 5, 14: 3, 8: 12}","[8, 14, 25]",812143255,Mn5Si3O12
Zn3Co2(SiO4)3,mp-1327416,2.3659999999999997,3.6062417,0.15325768815350926,"{30: 3, 27: 2, 14: 3, 8: 12}","[8, 14, 27, 30]",812143272303,Zn3Co2Si3O12
Zn3Si3(MoO6)2,mp-1154656,1.2614,4.38153457,0.14295421374999595,"{30: 3, 14: 3, 42: 2, 8: 12}","[8, 14, 30, 42]",812143303422,Zn3Si3Mo2O12
Zn3Si3(AgO6)2,mp-1324601,0.0,3.25230536,0.26990387325000054,"{30: 3, 14: 3, 47: 2, 8: 12}","[8, 14, 30, 47]",812143303472,Zn3Si3Ag2O12
Zn3Si3(SnO6)2,mp-1364038,0.0,7.24372785,0.3074768255624978,"{30: 3, 14: 3, 50: 2, 8: 12}","[8, 14, 30, 50]",812143303502,Zn3Si3Sn2O12
Zn3Si3(SbO6)2,mp-1154534,1.7355,7.09313041,0.3106498451249955,"{30: 3, 14: 3, 51: 2, 8: 12}","[8, 14, 30, 51]",812143303512,Zn3Si3Sb2O12
Zn3Si3(WO6)2,mp-1163950,0.7980999999999998,4.44634072,0.22655278087499564,"{30: 3, 14: 3, 74: 2, 8: 12}","[8, 14, 30, 74]",812143303742,Zn3Si3W2O12
Zn3Si3(BiO6)2,mp-1157822,2.0979,6.41111215,0.2923133517500238,"{30: 3, 14: 3, 83: 2, 8: 12}","[8, 14, 30, 83]",812143303832,Zn3Si3Bi2O12
Si3(MoO6)2,mp-1143651,2.1461,1.16713991,0.1808334170588175,"{14: 3, 42: 2, 8: 12}","[8, 14, 42]",812143422,Si3Mo2O12
Si3(TeO6)2,mp-1143703,2.4380000000000006,2.70966795,0.1332911686764664,"{14: 3, 52: 2, 8: 12}","[8, 14, 52]",812143522,Si3Te2O12
Si3(WO6)2,mp-1143551,3.0736,1.04278397,0.1428872999999946,"{14: 3, 74: 2, 8: 12}","[8, 14, 74]",812143742,Si3W2O12
Si3(BiO3)4,mp-23331,3.8978999999999995,3.34730949,0.0,"{14: 3, 83: 4, 8: 12}","[8, 14, 83]",812143834,Si3Bi4O12
CaMn2(SiO3)4,mp-1154719,1.1615000000000002,2.80121541,0.0668937563742773,"{20: 1, 25: 2, 14: 4, 8: 12}","[8, 14, 20, 25]",812144201252,Ca1Mn2Si4O12
CaCo2(SiO3)4,mp-1248436,0.0,2.76155695,0.11437948982456625,"{20: 1, 27: 2, 14: 4, 8: 12}","[8, 14, 20, 27]",812144201272,Ca1Co2Si4O12
CaCo3(SiO3)4,mp-1227278,0.0,4.56435515,0.026500784333333804,"{20: 1, 27: 3, 14: 4, 8: 12}","[8, 14, 20, 27]",812144201273,Ca1Co3Si4O12
Ca2Zr(SiO3)4,mp-560339,4.8495,1.30807697,0.0061855486842095075,"{20: 2, 40: 1, 14: 4, 8: 12}","[8, 14, 20, 40]",812144202401,Ca2Zr1Si4O12
Rb2EuGa(SiO3)4,mp-684467,0.18120000000000003,2.73402471,0.0,"{37: 2, 63: 1, 31: 1, 14: 4, 8: 12}","[8, 14, 31, 37, 63]",812144311372631,Rb2Eu1Ga1Si4O12
Rb2GdGa(SiO3)4,mp-555485,3.3463,0.71100929,0.0,"{37: 2, 64: 1, 31: 1, 14: 4, 8: 12}","[8, 14, 31, 37, 64]",812144311372641,Rb2Gd1Ga1Si4O12
Rb2TbGa(SiO3)4,mp-558318,4.0952,0.66649033,0.0,"{37: 2, 65: 1, 31: 1, 14: 4, 8: 12}","[8, 14, 31, 37, 65]",812144311372651,Rb2Tb1Ga1Si4O12
Rb2U(SiO3)4,mp-555974,2.5082999999999998,0.85548868,0.0,"{37: 2, 92: 1, 14: 4, 8: 12}","[8, 14, 37, 92]",812144372921,Rb2U1Si4O12
Rb2MnSi5O12,mp-1195883,3.1643,1.56422477,0.0,"{37: 2, 25: 1, 14: 5, 8: 12}","[8, 14, 25, 37]",812145251372,Rb2Mn1Si5O12
Cs2MnSi5O12,mp-15126,2.4585,3.23695012,0.0,"{55: 2, 25: 1, 14: 5, 8: 12}","[8, 14, 25, 55]",812145251552,Cs2Mn1Si5O12
Cs2ZnSi5O12,mp-1214991,4.1819999999999995,1.10110641,0.0,"{55: 2, 30: 1, 14: 5, 8: 12}","[8, 14, 30, 55]",812145301552,Cs2Zn1Si5O12
Rb2CdSi5O12,mp-15125,3.7913,0.20843633,0.0,"{37: 2, 48: 1, 14: 5, 8: 12}","[8, 14, 37, 48]",812145372481,Rb2Cd1Si5O12
Tl4Si5O12,mp-1201442,3.1736,5.24889115,0.0,"{81: 4, 14: 5, 8: 12}","[8, 14, 81]",812145814,Tl4Si5O12
Ca(SiO2)6,mp-1233067,2.7153,3.87538622,0.1667334854385878,"{20: 1, 14: 6, 8: 12}","[8, 14, 20]",812146201,Ca1Si6O12
Eu5Si3O12F,mp-558207,0.0,2.81043888,0.0,"{63: 5, 14: 3, 8: 12, 9: 1}","[8, 9, 14, 63]",81291143635,Eu5Si3O12F1
Na2Gd2MgSi4(O6F)2,mp-557538,3.1090999999999998,1.73282479,0.0,"{11: 2, 64: 2, 12: 1, 14: 4, 8: 12, 9: 2}","[8, 9, 11, 12, 14, 64]",81292112121144642,Na2Gd2Mg1Si4O12F2
KCa7Si3(O4F)3,mp-1202104,4.7135,6.5665787,0.024601552692310236,"{19: 1, 20: 7, 14: 3, 8: 12, 9: 3}","[8, 9, 14, 19, 20]",81293143191207,K1Ca7Si3O12F3
NaSi4O13,mp-1202598,0.0,-0.31242051,0.5610525027430544,"{11: 1, 14: 4, 8: 13}","[8, 11, 14]",813111144,Na1Si4O13
KNaSi5SnW3O13,mp-1211795,0.5925999999999996,3.86410975,0.7590700035590361,"{19: 1, 11: 1, 14: 5, 50: 1, 74: 3, 8: 13}","[8, 11, 14, 19, 50, 74]",813111145191501743,K1Na1Si5Sn1W3O13
Na2Ti2Si4O13,mp-1200505,3.5136000000000003,4.35784161,0.015215343611115983,"{11: 2, 22: 2, 14: 4, 8: 13}","[8, 11, 14, 22]",813112144222,Na2Ti2Si4O13
Na4Sc2Si4O13,mp-555825,4.6001,2.12464626,0.0,"{11: 4, 21: 2, 14: 4, 8: 13}","[8, 11, 14, 21]",813114144212,Na4Sc2Si4O13
Na5Ti2Si2PO13,mp-18271,2.5262000000000002,1.95112749,0.0,"{11: 5, 22: 2, 14: 2, 15: 1, 8: 13}","[8, 11, 14, 15, 22]",813115142151222,Na5Ti2Si2P1O13
Mg3Si4O13,mp-1189710,0.0,1.0671497,0.2168490267083314,"{12: 3, 14: 4, 8: 13}","[8, 12, 14]",813123144,Mg3Si4O13
Rb2SiP4O13,mp-557355,5.166600000000001,0.54101469,0.0,"{37: 2, 14: 1, 15: 4, 8: 13}","[8, 14, 15, 37]",813141154372,Rb2Si1P4O13
Si2P3RhO13,mp-1219334,2.0386,2.21091628,0.0,"{14: 2, 15: 3, 45: 1, 8: 13}","[8, 14, 15, 45]",813142153451,Si2P3Rh1O13
K3Nb3Si2O13,mp-559346,2.1454,1.12966836,0.00033530928570790763,"{19: 3, 41: 3, 14: 2, 8: 13}","[8, 14, 19, 41]",813142193413,K3Nb3Si2O13
K3Ta3Si2O13,mp-16855,2.9726,1.3069556,0.0,"{19: 3, 73: 3, 14: 2, 8: 13}","[8, 14, 19, 73]",813142193733,K3Ta3Si2O13
K3U3Si2O13,mp-558320,0.5497000000000005,4.15229585,0.0,"{19: 3, 92: 3, 14: 2, 8: 13}","[8, 14, 19, 92]",813142193923,K3U3Si2O13
K3Np3Si2O13,mp-1224146,0.0,4.53979968,0.12182861920634025,"{19: 3, 93: 3, 14: 2, 8: 13}","[8, 14, 19, 93]",813142193933,K3Np3Si2O13
Ca6Si2O13,mp-1214120,0.23080000000000003,0.38433072,0.23987011386904733,"{20: 6, 14: 2, 8: 13}","[8, 14, 20]",813142206,Ca6Si2O13
CaLa4Si3O13,mp-1227220,4.4836,9.08885827,0.0,"{20: 1, 57: 4, 14: 3, 8: 13}","[8, 14, 20, 57]",813143201574,Ca1La4Si3O13
CaCe4Si3O13,mp-1229253,0.16080000000000005,7.4348282,0.0,"{20: 1, 58: 4, 14: 3, 8: 13}","[8, 14, 20, 58]",813143201584,Ca1Ce4Si3O13
Ca2La3Si3O13,mp-1214227,0.0,3.50310795,0.031156254037703945,"{20: 2, 57: 3, 14: 3, 8: 13}","[8, 14, 20, 57]",813143202573,Ca2La3Si3O13
Ca2Nd3Si3O13,mp-1214181,0.0,2.06382088,0.00864357465277088,"{20: 2, 60: 3, 14: 3, 8: 13}","[8, 14, 20, 60]",813143202603,Ca2Nd3Si3O13
Ca2Gd3Si3O13,mp-1214310,0.0,2.08591389,0.006565312519837718,"{20: 2, 64: 3, 14: 3, 8: 13}","[8, 14, 20, 64]",813143202643,Ca2Gd3Si3O13
Ca5Si3O13,mp-1214077,0.0,1.41997942,0.14209962956348754,"{20: 5, 14: 3, 8: 13}","[8, 14, 20]",813143205,Ca5Si3O13
Ca6Si3O13,mp-734368,0.25459999999999994,1.59518903,0.09122496494317822,"{20: 6, 14: 3, 8: 13}","[8, 14, 20]",813143206,Ca6Si3O13
SrLa4Si3O13,mp-1218249,4.4193999999999996,8.86438001,0.0,"{38: 1, 57: 4, 14: 3, 8: 13}","[8, 14, 38, 57]",813143381574,Sr1La4Si3O13
SrNd4Si3O13,mp-1218195,4.680400000000001,7.26650994,0.0,"{38: 1, 60: 4, 14: 3, 8: 13}","[8, 14, 38, 60]",813143381604,Sr1Nd4Si3O13
Nd4CdSi3O13,mp-1220265,3.4103,2.61359756,0.0,"{60: 4, 48: 1, 14: 3, 8: 13}","[8, 14, 48, 60]",813143481604,Nd4Cd1Si3O13
Nd3Cd2Si3O13,mp-1210000,0.0,1.79328591,0.05226161770833304,"{60: 3, 48: 2, 14: 3, 8: 13}","[8, 14, 48, 60]",813143482603,Nd3Cd2Si3O13
La5Si3O13,mp-1211451,0.0,9.65409773,0.05352258720237124,"{57: 5, 14: 3, 8: 13}","[8, 14, 57]",813143575,La5Si3O13
Pr5Si3O13,mp-1209689,0.0,7.17083246,0.01618685121483132,"{59: 5, 14: 3, 8: 13}","[8, 14, 59]",813143595,Pr5Si3O13
Nd5Si3O13,mp-1210042,0.0,7.43631273,0.05915412937499198,"{60: 5, 14: 3, 8: 13}","[8, 14, 60]",813143605,Nd5Si3O13
Sm5Si3O13,mp-16981,0.0,7.4572238,0.06436540276784797,"{62: 5, 14: 3, 8: 13}","[8, 14, 62]",813143625,Sm5Si3O13
Eu5Si3O13,mp-1213303,0.0,2.5901317,0.006160045555557048,"{63: 5, 14: 3, 8: 13}","[8, 14, 63]",813143635,Eu5Si3O13
Tb5Si3O13,mp-1208437,0.0,7.81037726,0.07728984309522957,"{65: 5, 14: 3, 8: 13}","[8, 14, 65]",813143655,Tb5Si3O13
V4Si4O13,mp-766894,0.6473999999999993,4.41430991,0.06796757922619179,"{23: 4, 14: 4, 8: 13}","[8, 14, 23]",813144234,V4Si4O13
Cr4Si4O13,mp-768078,1.1174000000000004,3.73481062,0.08225395896825383,"{24: 4, 14: 4, 8: 13}","[8, 14, 24]",813144244,Cr4Si4O13
Mn4Si4O13,mp-766688,0.0,2.92234273,0.07484219212965293,"{25: 4, 14: 4, 8: 13}","[8, 14, 25]",813144254,Mn4Si4O13
NbSi4O13,mp-1196756,0.14959999999999996,-1.67861919,0.3253542387136257,"{41: 1, 14: 4, 8: 13}","[8, 14, 41]",813144411,Nb1Si4O13
Si4Ag10O13,mp-651688,0.2730999999999999,2.30967296,0.05656031820987728,"{14: 4, 47: 10, 8: 13}","[8, 14, 47]",8131444710,Si4Ag10O13
TiSi5O13,mp-1199408,0.08069999999999977,-2.71788772,0.13704506611841794,"{22: 1, 14: 5, 8: 13}","[8, 14, 22]",813145221,Ti1Si5O13
Si6O13,mp-731864,0.008799999999999919,-2.9504701,0.19427524427631404,"{14: 6, 8: 13}","[8, 14]",813146,Si6O13
K5Eu2Si4O13F,mp-605935,0.0,0.54152715,0.0,"{19: 5, 63: 2, 14: 4, 8: 13, 9: 1}","[8, 9, 14, 19, 63]",81391144195632,K5Eu2Si4O13F1
NaPr(Si3O7)2,mp-557126,4.789,1.39066672,0.0013820153598533835,"{11: 1, 59: 1, 14: 6, 8: 14}","[8, 11, 14, 59]",814111146591,Na1Pr1Si6O14
NaNd(Si3O7)2,mp-560226,4.7954,1.29527513,0.0,"{11: 1, 60: 1, 14: 6, 8: 14}","[8, 11, 14, 60]",814111146601,Na1Nd1Si6O14