formula,material_id,band_gap,efermi,energy_above_hull,comp_atoms,sorted_keys_comp_atoms,comp_number,new_formula
MgSc4(Si2O7)2,mp-1233228,0.5823,8.90741317,0.32728564932066107,"{12: 1, 21: 4, 14: 4, 8: 14}","[8, 12, 14, 21]",814121144214,Mg1Sc4Si4O14
Sr2MgV2(Si2O7)2,mp-1233213,2.3901,3.97291779,0.17669454759058745,"{38: 2, 12: 1, 23: 2, 14: 4, 8: 14}","[8, 12, 14, 23, 38]",814121144232382,Sr2Mg1V2Si4O14
Mg3Ti2(Si2O7)2,mp-1250045,0.05600000000000005,6.44640315,0.11232256757246795,"{12: 3, 22: 2, 14: 4, 8: 14}","[8, 12, 14, 22]",814123144222,Mg3Ti2Si4O14
Mg3V2(Si2O7)2,mp-1250648,2.0513000000000003,6.29411005,0.08532639501812422,"{12: 3, 23: 2, 14: 4, 8: 14}","[8, 12, 14, 23]",814123144232,Mg3V2Si4O14
Mg3Cr2(Si2O7)2,mp-1266557,2.4641,6.66513515,0.11551571760869095,"{12: 3, 24: 2, 14: 4, 8: 14}","[8, 12, 14, 24]",814123144242,Mg3Cr2Si4O14
Mg3Mn2(Si2O7)2,mp-1250887,2.1370999999999998,2.91446179,0.07112915591183189,"{12: 3, 25: 2, 14: 4, 8: 14}","[8, 12, 14, 25]",814123144252,Mg3Mn2Si4O14
Mg3Co2(Si2O7)2,mp-1254259,1.5325999999999995,4.42848316,0.10269629869564856,"{12: 3, 27: 2, 14: 4, 8: 14}","[8, 12, 14, 27]",814123144272,Mg3Co2Si4O14
Mg3Si4(MoO7)2,mp-1248826,1.4753000000000007,6.39132489,0.1344993418115905,"{12: 3, 14: 4, 42: 2, 8: 14}","[8, 12, 14, 42]",814123144422,Mg3Si4Mo2O14
Mg3Si4(AgO7)2,mp-1260237,0.6494000000000004,2.72961911,0.08799496442028687,"{12: 3, 14: 4, 47: 2, 8: 14}","[8, 12, 14, 47]",814123144472,Mg3Si4Ag2O14
Mg3Si4(SnO7)2,mp-1248487,1.5512999999999995,4.94997419,0.176258128496376,"{12: 3, 14: 4, 50: 2, 8: 14}","[8, 12, 14, 50]",814123144502,Mg3Si4Sn2O14
Mg3Si4(SbO7)2,mp-1249986,1.9461000000000004,3.52066847,0.1863751520652155,"{12: 3, 14: 4, 51: 2, 8: 14}","[8, 12, 14, 51]",814123144512,Mg3Si4Sb2O14
Mg3Si4(WO7)2,mp-1263350,0.7106999999999992,5.55258564,0.21683191224637177,"{12: 3, 14: 4, 74: 2, 8: 14}","[8, 12, 14, 74]",814123144742,Mg3Si4W2O14
Mg3Si4(BiO7)2,mp-1264854,2.6188,3.08072172,0.18235874235507765,"{12: 3, 14: 4, 83: 2, 8: 14}","[8, 12, 14, 83]",814123144832,Mg3Si4Bi2O14
K3Mg4(Si2O7)2,mp-1224150,0.0,2.02295879,0.048891276416665796,"{19: 3, 12: 4, 14: 4, 8: 14}","[8, 12, 14, 19]",814124144193,K3Mg4Si4O14
Mg7(SiO7)2,mp-1196427,0.19009999999999994,1.81621039,0.2163618448913036,"{12: 7, 14: 2, 8: 14}","[8, 12, 14]",814127142,Mg7Si2O14
Mn2Si(P2O7)2,mp-17863,3.718,1.8968246,0.00165689650792622,"{25: 2, 14: 1, 15: 4, 8: 14}","[8, 14, 15, 25]",814141154252,Mn2Si1P4O14
Co2Si(P2O7)2,mp-17775,0.0,3.1252662,0.0,"{27: 2, 14: 1, 15: 4, 8: 14}","[8, 14, 15, 27]",814141154272,Co2Si1P4O14
SiP4PdPbO14,mp-1194892,1.8533,2.8590466,0.006544631904797704,"{14: 1, 15: 4, 46: 1, 82: 1, 8: 14}","[8, 14, 15, 46, 82]",814141154461821,Si1P4Pd1Pb1O14
Cd2Si(P2O7)2,mp-541108,4.0752,0.64470387,0.0,"{48: 2, 14: 1, 15: 4, 8: 14}","[8, 14, 15, 48]",814141154482,Cd2Si1P4O14
La3Ga5SiO14,mp-1223148,3.6931000000000003,3.43686731,0.002892708985505088,"{57: 3, 31: 5, 14: 1, 8: 14}","[8, 14, 31, 57]",814141315573,La3Ga5Si1O14
Nd3Ga5SiO14,mp-1220307,3.5227000000000004,2.02255508,0.019606305525356582,"{60: 3, 31: 5, 14: 1, 8: 14}","[8, 14, 31, 60]",814141315603,Nd3Ga5Si1O14
La3Si(Mo2O7)2,mp-1224288,1.3370999999999995,6.83498479,0.04434298931818326,"{57: 3, 14: 1, 42: 4, 8: 14}","[8, 14, 42, 57]",814141424573,La3Si1Mo4O14
Nd3Si(Mo2O7)2,mp-1220991,1.3427999999999995,5.36095399,0.08487922590909491,"{60: 3, 14: 1, 42: 4, 8: 14}","[8, 14, 42, 60]",814141424603,Nd3Si1Mo4O14
Ca3NbGa3(SiO7)2,mp-1214038,3.4364000000000003,1.53134674,0.005406547373177695,"{20: 3, 41: 1, 31: 3, 14: 2, 8: 14}","[8, 14, 20, 31, 41]",814142203313411,Ca3Nb1Ga3Si2O14
Ca3TaGa3(SiO7)2,mp-6853,3.9122000000000003,1.73752658,0.0,"{20: 3, 73: 1, 31: 3, 14: 2, 8: 14}","[8, 14, 20, 31, 73]",814142203313731,Ca3Ta1Ga3Si2O14
Sr3NbGa3(SiO7)2,mp-1208777,3.4242,1.23001114,0.0,"{38: 3, 41: 1, 31: 3, 14: 2, 8: 14}","[8, 14, 31, 38, 41]",814142313383411,Sr3Nb1Ga3Si2O14
Sr3TaGa3(SiO7)2,mp-16136,3.8537999999999997,1.35885363,0.0,"{38: 3, 73: 1, 31: 3, 14: 2, 8: 14}","[8, 14, 31, 38, 73]",814142313383731,Sr3Ta1Ga3Si2O14
Sr8Si2PtO14,mp-561245,2.2600000000000002,3.03180634,0.001168140399999018,"{38: 8, 14: 2, 78: 1, 8: 14}","[8, 14, 38, 78]",814142388781,Sr8Si2Pt1O14
Ca2Mn3Si3O14,mp-1214281,0.0,2.51404779,0.11278047431818106,"{20: 2, 25: 3, 14: 3, 8: 14}","[8, 14, 20, 25]",814143202253,Ca2Mn3Si3O14
Mn7Si3O14,mp-1222225,0.03259999999999996,3.64426806,0.05410226439816945,"{25: 7, 14: 3, 8: 14}","[8, 14, 25]",814143257,Mn7Si3O14
Cs2KU2(Si2O7)2,mp-862811,0.0,4.83837223,0.0,"{55: 2, 19: 1, 92: 2, 14: 4, 8: 14}","[8, 14, 19, 55, 92]",814144191552922,Cs2K1U2Si4O14
K4CaU(Si2O7)2,mp-1195727,2.0738000000000003,3.04128867,0.0,"{19: 4, 20: 1, 92: 1, 14: 4, 8: 14}","[8, 14, 19, 20, 92]",814144194201921,K4Ca1U1Si4O14
CaSc4(Si2O7)2,mp-1233919,0.9896000000000003,7.90833643,0.3540118277309787,"{20: 1, 21: 4, 14: 4, 8: 14}","[8, 14, 20, 21]",814144201214,Ca1Sc4Si4O14
CaV(Si2O7)2,mp-1202545,0.3478,0.69214933,0.4819520150208376,"{20: 1, 23: 1, 14: 4, 8: 14}","[8, 14, 20, 23]",814144201231,Ca1V1Si4O14
Sr2CaV2(Si2O7)2,mp-1233044,1.9826999999999995,3.47840743,0.11000376326087036,"{38: 2, 20: 1, 23: 2, 14: 4, 8: 14}","[8, 14, 20, 23, 38]",814144201232382,Sr2Ca1V2Si4O14
Ca3Ti2(Si2O7)2,mp-1267920,0.06510000000000016,6.42045678,0.0533484734420302,"{20: 3, 22: 2, 14: 4, 8: 14}","[8, 14, 20, 22]",814144203222,Ca3Ti2Si4O14
Ca3V2(Si2O7)2,mp-1171437,0.14429999999999943,4.54685582,0.03926965061594956,"{20: 3, 23: 2, 14: 4, 8: 14}","[8, 14, 20, 23]",814144203232,Ca3V2Si4O14
Ca3Cr2(Si2O7)2,mp-1264130,2.4673999999999996,4.03117238,0.05010327137680548,"{20: 3, 24: 2, 14: 4, 8: 14}","[8, 14, 20, 24]",814144203242,Ca3Cr2Si4O14
Ca3Mn2(Si2O7)2,mp-557275,1.6320999999999994,3.17832048,0.016367318309159273,"{20: 3, 25: 2, 14: 4, 8: 14}","[8, 14, 20, 25]",814144203252,Ca3Mn2Si4O14
Ca3Co2(Si2O7)2,mp-1249267,1.2255000000000003,4.03446828,0.032243446159434086,"{20: 3, 27: 2, 14: 4, 8: 14}","[8, 14, 20, 27]",814144203272,Ca3Co2Si4O14
Ca3Si4(MoO7)2,mp-1266531,0.5236000000000001,5.88767796,0.0830251794202983,"{20: 3, 14: 4, 42: 2, 8: 14}","[8, 14, 20, 42]",814144203422,Ca3Si4Mo2O14
Ca3Si4(AgO7)2,mp-1248597,0.7307000000000001,2.25715026,0.06368388181159279,"{20: 3, 14: 4, 47: 2, 8: 14}","[8, 14, 20, 47]",814144203472,Ca3Si4Ag2O14
Ca3Si4(SnO7)2,mp-1249213,2.8973999999999993,4.10960332,0.0692134648007281,"{20: 3, 14: 4, 50: 2, 8: 14}","[8, 14, 20, 50]",814144203502,Ca3Si4Sn2O14
Ca3Si4(SbO7)2,mp-1250828,2.3761,4.13826979,0.13306943909420443,"{20: 3, 14: 4, 51: 2, 8: 14}","[8, 14, 20, 51]",814144203512,Ca3Si4Sb2O14
Ca3Si4(BiO7)2,mp-1264770,2.8719000000000006,3.45032223,0.11417347916666554,"{20: 3, 14: 4, 83: 2, 8: 14}","[8, 14, 20, 83]",814144203832,Ca3Si4Bi2O14
Ca4ZnCo(Si2O7)2,mp-1227034,3.2147,2.72801228,0.01707464694444294,"{20: 4, 30: 1, 27: 1, 14: 4, 8: 14}","[8, 14, 20, 27, 30]",814144204271301,Ca4Zn1Co1Si4O14
Ti2Zn3(Si2O7)2,mp-1259911,0.22599999999999998,5.43034808,0.1508414628260848,"{22: 2, 30: 3, 14: 4, 8: 14}","[8, 14, 22, 30]",814144222303,Ti2Zn3Si4O14
V2Zn3(Si2O7)2,mp-1262955,1.7930000000000001,3.35257099,0.09019898963766071,"{23: 2, 30: 3, 14: 4, 8: 14}","[8, 14, 23, 30]",814144232303,V2Zn3Si4O14
Zn3Cr2(Si2O7)2,mp-1262777,2.0619999999999994,3.12313253,0.12408148173912803,"{30: 3, 24: 2, 14: 4, 8: 14}","[8, 14, 24, 30]",814144242303,Zn3Cr2Si4O14
Cr5(Si2O7)2,mp-757245,0.7892999999999999,2.85743334,0.10390447594203067,"{24: 5, 14: 4, 8: 14}","[8, 14, 24]",814144245,Cr5Si4O14
Mn2Zn3(Si2O7)2,mp-1258846,1.7039,2.29167805,0.09115733999998277,"{25: 2, 30: 3, 14: 4, 8: 14}","[8, 14, 25, 30]",814144252303,Mn2Zn3Si4O14
Mn5(Si2O7)2,mp-1643677,0.32030000000000003,2.15295445,0.05695997625606353,"{25: 5, 14: 4, 8: 14}","[8, 14, 25]",814144255,Mn5Si4O14
Zn3Co2(Si2O7)2,mp-1262752,0.4272999999999998,2.75251539,0.1348983473798624,"{30: 3, 27: 2, 14: 4, 8: 14}","[8, 14, 27, 30]",814144272303,Zn3Co2Si4O14
Zn3Si4(MoO7)2,mp-1047015,0.8881999999999999,3.80436676,0.11303208876811688,"{30: 3, 14: 4, 42: 2, 8: 14}","[8, 14, 30, 42]",814144303422,Zn3Si4Mo2O14
Zn3Si4(AgO7)2,mp-1263117,0.5735999999999999,1.56241429,0.10108603442028663,"{30: 3, 14: 4, 47: 2, 8: 14}","[8, 14, 30, 47]",814144303472,Zn3Si4Ag2O14
Zn3Si4(SnO7)2,mp-1256934,1.3686999999999996,4.13314495,0.16227046353261265,"{30: 3, 14: 4, 50: 2, 8: 14}","[8, 14, 30, 50]",814144303502,Zn3Si4Sn2O14
Zn3Si4(SbO7)2,mp-1254678,1.7516999999999996,3.14900437,0.17421006217391444,"{30: 3, 14: 4, 51: 2, 8: 14}","[8, 14, 30, 51]",814144303512,Zn3Si4Sb2O14
Zn3Si4(WO7)2,mp-1248780,0.0,3.95466694,0.14964647376811158,"{30: 3, 14: 4, 74: 2, 8: 14}","[8, 14, 30, 74]",814144303742,Zn3Si4W2O14
Zn3Si4(BiO7)2,mp-1260235,2.4696000000000002,2.70995075,0.16230939822463863,"{30: 3, 14: 4, 83: 2, 8: 14}","[8, 14, 30, 83]",814144303832,Zn3Si4Bi2O14
Si6BiO14,mp-850220,0.0,1.29763933,0.06171839642857346,"{14: 6, 83: 1, 8: 14}","[8, 14, 83]",814146831,Si6Bi1O14
Na18Mg16Nb8Si9(S3O16)9,mp-2713810,0.44640000000000013,1.99409822,0.0764812143976803,"{11: 18, 12: 16, 41: 8, 14: 9, 16: 27, 8: 144}","[8, 11, 12, 14, 16, 41]",8144111812161491627418,Na18Mg16Nb8Si9S27O144
Na18Mg16Ta8Si9(S3O16)9,mp-2713845,1.2334,2.27922426,0.07816387536035663,"{11: 18, 12: 16, 73: 8, 14: 9, 16: 27, 8: 144}","[8, 11, 12, 14, 16, 73]",8144111812161491627738,Na18Mg16Ta8Si9S27O144
Na18Mg20Nb4Si3(S11O48)3,mp-2712577,0.045399999999999885,2.21151686,0.0355831624118359,"{11: 18, 12: 20, 41: 4, 14: 3, 16: 33, 8: 144}","[8, 11, 12, 14, 16, 41]",8144111812201431633414,Na18Mg20Nb4Si3S33O144
Na18Mg20Ta4Si3(S11O48)3,mp-2713636,0.12349999999999994,2.15764708,0.032888204594589965,"{11: 18, 12: 20, 73: 4, 14: 3, 16: 33, 8: 144}","[8, 11, 12, 14, 16, 73]",8144111812201431633734,Na18Mg20Ta4Si3S33O144
Na18Mg4Nb20Si27(SO16)9,mp-2712852,1.3961,1.61185073,0.07573443095720656,"{11: 18, 12: 4, 41: 20, 14: 27, 16: 9, 8: 144}","[8, 11, 12, 14, 16, 41]",8144111812414271694120,Na18Mg4Nb20Si27S9O144
Na18Mg4Ta20Si27(SO16)9,mp-2712953,2.2927,1.71936531,0.06071661545608187,"{11: 18, 12: 4, 73: 20, 14: 27, 16: 9, 8: 144}","[8, 11, 12, 14, 16, 73]",8144111812414271697320,Na18Mg4Ta20Si27S9O144
Na18Mg8Nb16Si21(S5O48)3,mp-2713023,1.1741,1.93529404,0.11313769877091495,"{11: 18, 12: 8, 41: 16, 14: 21, 16: 15, 8: 144}","[8, 11, 12, 14, 16, 41]",81441118128142116154116,Na18Mg8Nb16Si21S15O144
Na18Mg8Ta16Si21(S5O48)3,mp-2712984,1.6638000000000002,2.26258225,0.1095749306756737,"{11: 18, 12: 8, 73: 16, 14: 21, 16: 15, 8: 144}","[8, 11, 12, 14, 16, 73]",81441118128142116157316,Na18Mg8Ta16Si21S15O144
Na18Ca8Nb16Si21(S5O48)3,mp-2712860,1.0947,1.63186235,0.1383830192285993,"{11: 18, 20: 8, 41: 16, 14: 21, 16: 15, 8: 144}","[8, 11, 14, 16, 20, 41]",81441118142116152084116,Na18Ca8Nb16Si21S15O144
Na18Ca8Ta16Si21(S5O48)3,mp-2712868,1.6757000000000002,1.99412507,0.13814484236486724,"{11: 18, 20: 8, 73: 16, 14: 21, 16: 15, 8: 144}","[8, 11, 14, 16, 20, 73]",81441118142116152087316,Na18Ca8Ta16Si21S15O144
Na18Nb16Zn8Si21(S5O48)3,mp-2712997,0.9760000000000002,1.99236297,0.11594752053463875,"{11: 18, 41: 16, 30: 8, 14: 21, 16: 15, 8: 144}","[8, 11, 14, 16, 30, 41]",81441118142116153084116,Na18Nb16Zn8Si21S15O144
Na18Ta16Zn8Si21(S5O48)3,mp-2712961,1.5977000000000001,2.26482664,0.11177664592717118,"{11: 18, 73: 16, 30: 8, 14: 21, 16: 15, 8: 144}","[8, 11, 14, 16, 30, 73]",81441118142116153087316,Na18Ta16Zn8Si21S15O144
Na18Ca4Nb20Si27(SO16)9,mp-2712918,1.6524999999999999,1.24200922,0.0816780324042794,"{11: 18, 20: 4, 41: 20, 14: 27, 16: 9, 8: 144}","[8, 11, 14, 16, 20, 41]",8144111814271692044120,Na18Ca4Nb20Si27S9O144
Na18Ca4Ta20Si27(SO16)9,mp-2713034,2.2234000000000003,1.55119462,0.07440641835587414,"{11: 18, 20: 4, 73: 20, 14: 27, 16: 9, 8: 144}","[8, 11, 14, 16, 20, 73]",8144111814271692047320,Na18Ca4Ta20Si27S9O144
Na18Nb20Zn4Si27(SO16)9,mp-2713037,1.4703999999999997,1.55393392,0.07923056279386032,"{11: 18, 41: 20, 30: 4, 14: 27, 16: 9, 8: 144}","[8, 11, 14, 16, 30, 41]",8144111814271693044120,Na18Nb20Zn4Si27S9O144
Na18Ta20Zn4Si27(SO16)9,mp-2713065,2.0111,1.81049968,0.06647679550299479,"{11: 18, 73: 20, 30: 4, 14: 27, 16: 9, 8: 144}","[8, 11, 14, 16, 30, 73]",8144111814271693047320,Na18Ta20Zn4Si27S9O144
Na18Ca20Nb4Si3(S11O48)3,mp-2713586,0.5026999999999999,1.44504406,0.05893061694014978,"{11: 18, 20: 20, 41: 4, 14: 3, 16: 33, 8: 144}","[8, 11, 14, 16, 20, 41]",8144111814316332020414,Na18Ca20Nb4Si3S33O144
Na18Ca20Ta4Si3(S11O48)3,mp-2713705,1.4934,1.52909928,0.05747727331080643,"{11: 18, 20: 20, 73: 4, 14: 3, 16: 33, 8: 144}","[8, 11, 14, 16, 20, 73]",8144111814316332020734,Na18Ca20Ta4Si3S33O144
Na18Nb4Zn20Si3(S11O48)3,mp-2713299,0.7860999999999998,1.60433251,0.04518944679584891,"{11: 18, 41: 4, 30: 20, 14: 3, 16: 33, 8: 144}","[8, 11, 14, 16, 30, 41]",8144111814316333020414,Na18Nb4Zn20Si3S33O144
Na18Ta4Zn20Si3(S11O48)3,mp-2713301,1.6349,1.75624611,0.043999656931314135,"{11: 18, 73: 4, 30: 20, 14: 3, 16: 33, 8: 144}","[8, 11, 14, 16, 30, 73]",8144111814316333020734,Na18Ta4Zn20Si3S33O144
Na18Ca16Nb8Si9(S3O16)9,mp-2713788,0.49629999999999996,1.36347756,0.1134307262001224,"{11: 18, 20: 16, 41: 8, 14: 9, 16: 27, 8: 144}","[8, 11, 14, 16, 20, 41]",8144111814916272016418,Na18Ca16Nb8Si9S27O144
Na18Ca16Ta8Si9(S3O16)9,mp-2713722,1.1433,1.6838275,0.11396741934684229,"{11: 18, 20: 16, 73: 8, 14: 9, 16: 27, 8: 144}","[8, 11, 14, 16, 20, 73]",8144111814916272016738,Na18Ca16Ta8Si9S27O144
Na18Nb8Zn16Si9(S3O16)9,mp-2713828,1.0232,1.53741396,0.08204662911502414,"{11: 18, 41: 8, 30: 16, 14: 9, 16: 27, 8: 144}","[8, 11, 14, 16, 30, 41]",8144111814916273016418,Na18Nb8Zn16Si9S27O144
Na18Ta8Zn16Si9(S3O16)9,mp-2713831,1.5305,1.78231714,0.08419643144707045,"{11: 18, 73: 8, 30: 16, 14: 9, 16: 27, 8: 144}","[8, 11, 14, 16, 30, 73]",8144111814916273016738,Na18Ta8Zn16Si9S27O144
Na30Mg16Nb8Si15(S7O48)3,mp-2715198,1.2919999999999998,2.07715261,0.1074329290811944,"{11: 30, 12: 16, 41: 8, 14: 15, 16: 21, 8: 144}","[8, 11, 12, 14, 16, 41]",81441130121614151621418,Na30Mg16Nb8Si15S21O144
Na30Mg16Ta8Si15(S7O48)3,mp-2715025,2.0125,2.11999342,0.10603405651709341,"{11: 30, 12: 16, 73: 8, 14: 15, 16: 21, 8: 144}","[8, 11, 12, 14, 16, 73]",81441130121614151621738,Na30Mg16Ta8Si15S21O144
Na30Mg20Nb4Si9(S3O16)9,mp-2714748,1.6991999999999998,2.12454394,0.07940717036324774,"{11: 30, 12: 20, 41: 4, 14: 9, 16: 27, 8: 144}","[8, 11, 12, 14, 16, 41]",8144113012201491627414,Na30Mg20Nb4Si9S27O144
Na30Mg20Ta4Si9(S3O16)9,mp-2714650,2.3522999999999996,2.24550105,0.08028025925213633,"{11: 30, 12: 20, 73: 4, 14: 9, 16: 27, 8: 144}","[8, 11, 12, 14, 16, 73]",8144113012201491627734,Na30Mg20Ta4Si9S27O144
Na30Mg4Nb20Si33(SO48)3,mp-2716517,2.2502,1.61754326,0.06069198136751908,"{11: 30, 12: 4, 41: 20, 14: 33, 16: 3, 8: 144}","[8, 11, 12, 14, 16, 41]",8144113012414331634120,Na30Mg4Nb20Si33S3O144
Na30Mg4Ta20Si33(SO48)3,mp-2716319,3.0540000000000003,1.94379371,0.04561206423076847,"{11: 30, 12: 4, 73: 20, 14: 33, 16: 3, 8: 144}","[8, 11, 12, 14, 16, 73]",8144113012414331637320,Na30Mg4Ta20Si33S3O144
Na30Mg8Nb16Si27(SO16)9,mp-2714199,1.5219999999999998,2.02664091,0.09865149534188156,"{11: 30, 12: 8, 41: 16, 14: 27, 16: 9, 8: 144}","[8, 11, 12, 14, 16, 41]",8144113012814271694116,Na30Mg8Nb16Si27S9O144
Na30Mg8Ta16Si27(SO16)9,mp-2714251,2.0145999999999997,2.28774389,0.09168731636751648,"{11: 30, 12: 8, 73: 16, 14: 27, 16: 9, 8: 144}","[8, 11, 12, 14, 16, 73]",8144113012814271697316,Na30Mg8Ta16Si27S9O144
Na30Ca16Nb8Si15(S7O48)3,mp-2715153,1.3618,1.5081253,0.12126276141025105,"{11: 30, 20: 16, 41: 8, 14: 15, 16: 21, 8: 144}","[8, 11, 14, 16, 20, 41]",81441130141516212016418,Na30Ca16Nb8Si15S21O144
Na30Ca16Ta8Si15(S7O48)3,mp-2715022,2.0387,1.70136255,0.12259276282051257,"{11: 30, 20: 16, 73: 8, 14: 15, 16: 21, 8: 144}","[8, 11, 14, 16, 20, 73]",81441130141516212016738,Na30Ca16Ta8Si15S21O144
Na30Nb8Zn16Si15(S7O48)3,mp-2715106,1.5811000000000002,1.50910062,0.1236494057290356,"{11: 30, 41: 8, 30: 16, 14: 15, 16: 21, 8: 144}","[8, 11, 14, 16, 30, 41]",81441130141516213016418,Na30Nb8Zn16Si15S21O144
Na30Ta8Zn16Si15(S7O48)3,mp-2714984,2.1692,1.86168343,0.12128288345797511,"{11: 30, 73: 8, 30: 16, 14: 15, 16: 21, 8: 144}","[8, 11, 14, 16, 30, 73]",81441130141516213016738,Na30Ta8Zn16Si15S21O144
Na30Ca8Nb16Si27(SO16)9,mp-2714311,1.5502,1.85000044,0.11390069702990857,"{11: 30, 20: 8, 41: 16, 14: 27, 16: 9, 8: 144}","[8, 11, 14, 16, 20, 41]",8144113014271692084116,Na30Ca8Nb16Si27S9O144
Na30Ca8Ta16Si27(SO16)9,mp-2714201,2.1396,2.00778248,0.11022500799145263,"{11: 30, 20: 8, 73: 16, 14: 27, 16: 9, 8: 144}","[8, 11, 14, 16, 20, 73]",8144113014271692087316,Na30Ca8Ta16Si27S9O144
Na30Nb16Zn8Si27(SO16)9,mp-2714307,1.4811,1.8923088,0.1151346759330476,"{11: 30, 41: 16, 30: 8, 14: 27, 16: 9, 8: 144}","[8, 11, 14, 16, 30, 41]",8144113014271693084116,Na30Nb16Zn8Si27S9O144
Na30Ta16Zn8Si27(SO16)9,mp-2714222,2.0981,2.19384371,0.10786722798431558,"{11: 30, 73: 16, 30: 8, 14: 27, 16: 9, 8: 144}","[8, 11, 14, 16, 30, 73]",8144113014271693087316,Na30Ta16Zn8Si27S9O144
Na30Ca4Nb20Si33(SO48)3,mp-2716571,2.1171999999999995,1.72063267,0.07097934373219239,"{11: 30, 20: 4, 41: 20, 14: 33, 16: 3, 8: 144}","[8, 11, 14, 16, 20, 41]",8144113014331632044120,Na30Ca4Nb20Si33S3O144
Na30Ca4Ta20Si33(SO48)3,mp-2716300,2.9402000000000004,1.80474394,0.05508807056980025,"{11: 30, 20: 4, 73: 20, 14: 33, 16: 3, 8: 144}","[8, 11, 14, 16, 20, 73]",8144113014331632047320,Na30Ca4Ta20Si33S3O144
Na30Nb20Zn4Si33(SO48)3,mp-2716457,1.9898,1.84000309,0.06745009451566641,"{11: 30, 41: 20, 30: 4, 14: 33, 16: 3, 8: 144}","[8, 11, 14, 16, 30, 41]",8144113014331633044120,Na30Nb20Zn4Si33S3O144
Na30Ta20Zn4Si33(SO48)3,mp-2716395,2.833,1.97034969,0.053053631481482455,"{11: 30, 73: 20, 30: 4, 14: 33, 16: 3, 8: 144}","[8, 11, 14, 16, 30, 73]",8144113014331633047320,Na30Ta20Zn4Si33S3O144
Na30Ca20Nb4Si9(S3O16)9,mp-2714668,1.4932000000000003,1.57806495,0.09211344002135924,"{11: 30, 20: 20, 41: 4, 14: 9, 16: 27, 8: 144}","[8, 11, 14, 16, 20, 41]",8144113014916272020414,Na30Ca20Nb4Si9S27O144
Na30Ca20Ta4Si9(S3O16)9,mp-2714845,2.2771999999999997,1.64811549,0.09405427414529388,"{11: 30, 20: 20, 73: 4, 14: 9, 16: 27, 8: 144}","[8, 11, 14, 16, 20, 73]",8144113014916272020734,Na30Ca20Ta4Si9S27O144
Na30Nb4Zn20Si9(S3O16)9,mp-2714854,1.6711999999999998,1.69834278,0.09964163320106323,"{11: 30, 41: 4, 30: 20, 14: 9, 16: 27, 8: 144}","[8, 11, 14, 16, 30, 41]",8144113014916273020414,Na30Nb4Zn20Si9S27O144
Na30Ta4Zn20Si9(S3O16)9,mp-2714756,2.3905,1.8062685,0.09889877650997025,"{11: 30, 73: 4, 30: 20, 14: 9, 16: 27, 8: 144}","[8, 11, 14, 16, 30, 73]",8144113014916273020734,Na30Ta4Zn20Si9S27O144
Na42Mg16Nb8Si21(S5O48)3,mp-2715792,0.6506000000000003,2.75801191,0.12409663520324976,"{11: 42, 12: 16, 41: 8, 14: 21, 16: 15, 8: 144}","[8, 11, 12, 14, 16, 41]",81441142121614211615418,Na42Mg16Nb8Si21S15O144
Na42Mg16Ta8Si21(S5O48)3,mp-2715535,1.4472,2.79583575,0.12426251739837202,"{11: 42, 12: 16, 73: 8, 14: 21, 16: 15, 8: 144}","[8, 11, 12, 14, 16, 73]",81441142121614211615738,Na42Mg16Ta8Si21S15O144
Na42Mg20Nb4Si15(S7O48)3,mp-2716042,1.3538999999999999,2.48307139,0.10214329357723528,"{11: 42, 12: 20, 41: 4, 14: 15, 16: 21, 8: 144}","[8, 11, 12, 14, 16, 41]",81441142122014151621414,Na42Mg20Nb4Si15S21O144
Na42Mg20Ta4Si15(S7O48)3,mp-2715931,1.9447,2.77929188,0.10294860414635476,"{11: 42, 12: 20, 73: 4, 14: 15, 16: 21, 8: 144}","[8, 11, 12, 14, 16, 73]",81441142122014151621734,Na42Mg20Ta4Si15S21O144
Na42Mg8Nb16Si33(SO48)3,mp-2714393,2.1263,2.07128528,0.0640995025203237,"{11: 42, 12: 8, 41: 16, 14: 33, 16: 3, 8: 144}","[8, 11, 12, 14, 16, 41]",8144114212814331634116,Na42Mg8Nb16Si33S3O144
Na42Mg8Ta16Si33(SO48)3,mp-2714379,2.7505,2.41092269,0.05785041959349435,"{11: 42, 12: 8, 73: 16, 14: 33, 16: 3, 8: 144}","[8, 11, 12, 14, 16, 73]",8144114212814331637316,Na42Mg8Ta16Si33S3O144
Na42Ca20Nb4Si15(S7O48)3,mp-2715896,1.4472999999999998,1.98323755,0.09953132721883762,"{11: 42, 20: 20, 41: 4, 14: 15, 16: 21, 8: 144}","[8, 11, 14, 16, 20, 41]",81441142141516212020414,Na42Ca20Nb4Si15S21O144
Na42Ca20Ta4Si15(S7O48)3,mp-2716083,2.1238,2.08885034,0.09898766173780871,"{11: 42, 20: 20, 73: 4, 14: 15, 16: 21, 8: 144}","[8, 11, 14, 16, 20, 73]",81441142141516212020734,Na42Ca20Ta4Si15S21O144