formula,material_id,band_gap,efermi,energy_above_hull,comp_atoms,sorted_keys_comp_atoms,comp_number,new_formula
U(SiIr)2,mp-22758,0.0,10.51989848,0.0,"{92: 1, 14: 2, 77: 2}","[14, 77, 92]",142772921,U1Si2Ir2
Np(SiIr)2,mp-22433,0.0,10.44584024,0.0,"{93: 1, 14: 2, 77: 2}","[14, 77, 93]",142772931,Np1Si2Ir2
Pu(SiIr)2,mp-505143,0.0,10.63938561,0.0,"{94: 1, 14: 2, 77: 2}","[14, 77, 94]",142772941,Pu1Si2Ir2
Si2Ir3,mp-1219241,0.0,8.99144347,0.36125423050000194,"{14: 2, 77: 3}","[14, 77]",142773,Si2Ir3
Th(SiPt)2,mp-1079221,0.0,8.76806813,0.0,"{90: 1, 14: 2, 78: 2}","[14, 78, 90]",142782901,Th1Si2Pt2
U(SiPt)2,mp-21101,0.0,9.83066435,0.0,"{92: 1, 14: 2, 78: 2}","[14, 78, 92]",142782921,U1Si2Pt2
Np(SiPt)2,mp-505142,0.0,10.02426678,0.0,"{93: 1, 14: 2, 78: 2}","[14, 78, 93]",142782931,Np1Si2Pt2
Pu(SiPt)2,mp-867963,0.0,9.72082243,0.0,"{94: 1, 14: 2, 78: 2}","[14, 78, 94]",142782941,Pu1Si2Pt2
Th(SiAu)2,mp-16250,0.0,8.2591877,0.0,"{90: 1, 14: 2, 79: 2}","[14, 79, 90]",142792901,Th1Si2Au2
U(SiAu)2,mp-5510,0.0,8.82623061,0.02088200266666007,"{92: 1, 14: 2, 79: 2}","[14, 79, 92]",142792921,U1Si2Au2
Np(SiAu)2,mp-20166,0.0,9.07433701,0.0,"{93: 1, 14: 2, 79: 2}","[14, 79, 93]",142792931,Np1Si2Au2
Pu(SiAu)2,mp-541381,0.0,8.73291404,0.3082010786666558,"{94: 1, 14: 2, 79: 2}","[14, 79, 94]",142792941,Pu1Si2Au2
ThSi2,mp-7497,0.0,8.60954917,0.0,"{90: 1, 14: 2}","[14, 90]",142901,Th1Si2
Th3Si2,mp-1079146,0.0,7.75968177,0.0,"{90: 3, 14: 2}","[14, 90]",142903,Th3Si2
USi2,mp-980,0.0,10.72841894,0.0,"{92: 1, 14: 2}","[14, 92]",142921,U1Si2
U3Si2,mp-21346,0.0,11.28805237,0.15117765650000337,"{92: 3, 14: 2}","[14, 92]",142923,U3Si2
NpSi2,mp-21298,0.0,11.07868757,0.0,"{93: 1, 14: 2}","[14, 93]",142931,Np1Si2
Np3Si2,mp-1079895,0.0,13.12371692,0.36612464649999765,"{93: 3, 14: 2}","[14, 93]",142933,Np3Si2
PuSi2,mp-10186,0.0,10.7018798,0.0,"{94: 1, 14: 2}","[14, 94]",142941,Pu1Si2
Pu3Si2,mp-1080146,0.0,11.21565374,0.03584960300000262,"{94: 3, 14: 2}","[14, 94]",142943,Pu3Si2
Nb13Co40Si31,mp-1196553,0.0,8.25279017,0.03462393934523611,"{41: 13, 27: 40, 14: 31}","[14, 27, 41]",143127404113,Nb13Co40Si31
Ta13Co40Si31,mp-1198832,0.0,8.45289397,0.03763948264880934,"{73: 13, 27: 40, 14: 31}","[14, 27, 73]",143127407313,Ta13Co40Si31
Si3P,mp-972741,0.0,9.74863534,0.6635494337499992,"{14: 3, 15: 1}","[14, 15]",143151,Si3P1
Nb5Si3P,mp-1190041,0.0,7.75452057,0.09847114666666634,"{41: 5, 14: 3, 15: 1}","[14, 15, 41]",143151415,Nb5Si3P1
Si3P2Pt,mp-29157,0.6067,7.11034174,0.0,"{14: 3, 15: 2, 78: 1}","[14, 15, 78]",143152781,Si3P2Pt1
Co(SiP)3,mp-29187,1.2632000000000003,7.28566414,0.004502096642861275,"{27: 1, 14: 3, 15: 3}","[14, 15, 27]",143153271,Co1Si3P3
Si3P3Rh,mp-1219203,0.6598999999999995,7.27657373,0.012697057390107958,"{14: 3, 15: 3, 45: 1}","[14, 15, 45]",143153451,Si3P3Rh1
Si3P3Ir,mp-1219249,0.9857000000000005,7.58519917,0.0044172657142844685,"{14: 3, 15: 3, 77: 1}","[14, 15, 77]",143153771,Si3P3Ir1
Si3Ag3(SnP3)2,mp-18310,0.26730000000000054,6.30574918,0.0,"{14: 3, 47: 3, 50: 2, 15: 6}","[14, 15, 47, 50]",143156473502,Si3Ag3Sn2P6
Si3Ag10S11,mp-1219303,1.2759000000000005,4.29053958,0.0068608777864316295,"{14: 3, 47: 10, 16: 11}","[14, 16, 47]",14316114710,Si3Ag10S11
Ce4(SiS4)3,mp-680692,0.0,6.351381,0.00254834473683907,"{58: 4, 14: 3, 16: 12}","[14, 16, 58]",1431612584,Ce4Si3S12
Pr4(SiS4)3,mp-1202024,2.0692000000000004,5.78379053,0.01366115771928822,"{59: 4, 14: 3, 16: 12}","[14, 16, 59]",1431612594,Pr4Si3S12
Nd4(SiS4)3,mp-1202775,2.0793999999999997,5.81812986,0.0005966827192871449,"{60: 4, 14: 3, 16: 12}","[14, 16, 60]",1431612604,Nd4Si3S12
Sm4(SiS4)3,mp-1196898,2.1071,5.93878259,0.008372933684202444,"{62: 4, 14: 3, 16: 12}","[14, 16, 62]",1431612624,Sm4Si3S12
Gd4(SiS4)3,mp-1199792,1.2438000000000002,2.80102525,0.06853643921052388,"{64: 4, 14: 3, 16: 12}","[14, 16, 64]",1431612644,Gd4Si3S12
Tb4(SiS4)3,mp-16402,2.3660999999999994,2.99897137,0.0,"{65: 4, 14: 3, 16: 12}","[14, 16, 65]",1431612654,Tb4Si3S12
Dy4(SiS4)3,mp-10771,2.2456000000000005,3.00717102,0.002084365263154808,"{66: 4, 14: 3, 16: 12}","[14, 16, 66]",1431612664,Dy4Si3S12
La9In(SiS7)3,mp-1224434,1.9284,5.3036552,0.0,"{57: 9, 49: 1, 14: 3, 16: 21}","[14, 16, 49, 57]",1431621491579,La9In1Si3S21
Sm9In(SiS7)3,mp-1219368,1.9216999999999995,3.83338427,0.0,"{62: 9, 49: 1, 14: 3, 16: 21}","[14, 16, 49, 62]",1431621491629,Sm9In1Si3S21
La3Si3Cl2,mp-29559,0.0,7.3211766,0.0,"{57: 3, 14: 3, 17: 2}","[14, 17, 57]",143172573,La3Si3Cl2
Si3Cl8,mp-27189,4.7516,-1.88223311,0.01629378454545538,"{14: 3, 17: 8}","[14, 17]",143178,Si3Cl8
K(SiAs)3,mp-1211981,1.4134999999999995,4.27476046,0.0,"{19: 1, 14: 3, 33: 3}","[14, 19, 33]",143191333,K1Si3As3
CaSi3,mp-1205346,0.0,6.82241512,0.12540275249999944,"{20: 1, 14: 3}","[14, 20]",143201,Ca1Si3
Ca10Si3Pt7,mp-1205012,0.0,4.4820489,0.0,"{20: 10, 14: 3, 78: 7}","[14, 20, 78]",1432010787,Ca10Si3Pt7
Sr4CaSi3,mp-1208721,0.0,3.01272489,0.003818142187498097,"{38: 4, 20: 1, 14: 3}","[14, 20, 38]",143201384,Sr4Ca1Si3
CaSi3Ir,mp-1068653,0.0,7.37293529,0.0,"{20: 1, 14: 3, 77: 1}","[14, 20, 77]",143201771,Ca1Si3Ir1
CaSi3Pt,mp-1069604,0.0,7.51326303,0.0,"{20: 1, 14: 3, 78: 1}","[14, 20, 78]",143201781,Ca1Si3Pt1
Ca2Si3Ag,mp-29570,0.0,5.00004343,0.0,"{20: 2, 14: 3, 47: 1}","[14, 20, 47]",143202471,Ca2Si3Ag1
Ca4GaSi3,mp-1227558,0.0,4.17064865,0.0008536599999988681,"{20: 4, 31: 1, 14: 3}","[14, 20, 31]",143204311,Ca4Ga1Si3
Ca4Si3Pd4,mp-17185,0.0,4.84735027,0.0,"{20: 4, 14: 3, 46: 4}","[14, 20, 46]",143204464,Ca4Si3Pd4
Ca5Si3,mp-793,0.0,3.47737053,0.0,"{20: 5, 14: 3}","[14, 20]",143205,Ca5Si3
ScV4Si3,mp-1219322,0.0,7.37790671,0.08026188609374962,"{21: 1, 23: 4, 14: 3}","[14, 21, 23]",143211234,Sc1V4Si3
ScRe2Si3,mp-669400,0.0,8.04900163,0.04861568273150496,"{21: 1, 75: 2, 14: 3}","[14, 21, 75]",143211752,Sc1Re2Si3
Sc2Si3,mp-1219398,0.0,6.28441335,0.29092815400000127,"{21: 2, 14: 3}","[14, 21]",143212,Sc2Si3
Sc2(VSi)3,mp-1219438,0.0,6.35036993,0.35685321604166553,"{21: 2, 23: 3, 14: 3}","[14, 21, 23]",143212233,Sc2V3Si3
Sc2(NbSi)3,mp-1219466,0.0,6.28137717,0.015315498250000559,"{21: 2, 41: 3, 14: 3}","[14, 21, 41]",143212413,Sc2Nb3Si3
Sc3V2Si3,mp-1208991,0.0,6.34482972,0.028166026319446757,"{21: 3, 23: 2, 14: 3}","[14, 21, 23]",143213232,Sc3V2Si3
Sc3Co2Si3,mp-9901,0.0,6.43922177,0.006721076249999847,"{21: 3, 27: 2, 14: 3}","[14, 21, 27]",143213272,Sc3Co2Si3
Sc3Si3Mo2,mp-1219406,0.0,6.8289203,0.23508294022321508,"{21: 3, 14: 3, 42: 2}","[14, 21, 42]",143213422,Sc3Si3Mo2
Sc3Si3Ru,mp-1193608,0.0,6.50687127,0.0,"{21: 3, 14: 3, 44: 1}","[14, 21, 44]",143213441,Sc3Si3Ru1
Sc3Si3Rh,mp-1193822,0.0,6.56789205,0.0,"{21: 3, 14: 3, 45: 1}","[14, 21, 45]",143213451,Sc3Si3Rh1
Sc3Re2Si3,mp-542607,0.0,6.5336379,0.11102718171874848,"{21: 3, 75: 2, 14: 3}","[14, 21, 75]",143213752,Sc3Re2Si3
Sc3Si3Ir,mp-1194432,0.0,7.02514673,0.0,"{21: 3, 14: 3, 77: 1}","[14, 21, 77]",143213771,Sc3Si3Ir1
Sc3Si3Pt,mp-1194390,0.0,6.8103628,0.0,"{21: 3, 14: 3, 78: 1}","[14, 21, 78]",143213781,Sc3Si3Pt1
Sc5Si3,mp-7822,0.0,5.36914211,0.0,"{21: 5, 14: 3}","[14, 21]",143215,Sc5Si3
TiV4Si3,mp-1189475,0.0,7.9641987,0.08018520020833009,"{22: 1, 23: 4, 14: 3}","[14, 22, 23]",143221234,Ti1V4Si3
Gd3Ti2MnSi3,mp-569019,0.0,5.14302328,0.4066526647916664,"{64: 3, 22: 2, 25: 1, 14: 3}","[14, 22, 25, 64]",143222251643,Gd3Ti2Mn1Si3
Zr3Ti2Si3,mp-1215386,0.0,6.43140412,0.0,"{40: 3, 22: 2, 14: 3}","[14, 22, 40]",143222403,Zr3Ti2Si3
Ti3V2Si3,mp-1217138,0.0,7.75223773,0.0,"{22: 3, 23: 2, 14: 3}","[14, 22, 23]",143223232,Ti3V2Si3
Zr2(TiSi)3,mp-1215754,0.0,6.33889427,0.18832687291666694,"{40: 2, 22: 3, 14: 3}","[14, 22, 40]",143223402,Zr2Ti3Si3
Ti3Si3Mo2,mp-1217191,0.0,8.13105743,0.026904089208327875,"{22: 3, 14: 3, 42: 2}","[14, 22, 42]",143223422,Ti3Si3Mo2
Ti5Si3,mp-2108,0.0,7.39430384,0.0,"{22: 5, 14: 3}","[14, 22]",143225,Ti5Si3
Ti8GaCo4Si3,mp-1217174,0.0,7.28687123,0.27793042093749865,"{22: 8, 31: 1, 27: 4, 14: 3}","[14, 22, 27, 31]",143228274311,Ti8Ga1Co4Si3
V10(SiGe)3,mp-1216775,0.0,7.6532225,0.0052045246874996565,"{23: 10, 14: 3, 32: 3}","[14, 23, 32]",1432310323,V10Si3Ge3
VSi3Mo4,mp-1207805,0.0,9.39351163,0.0,"{23: 1, 14: 3, 42: 4}","[14, 23, 42]",143231424,V1Si3Mo4
V2(CrSi)3,mp-1216681,0.0,8.5615462,0.014824554575000093,"{23: 2, 24: 3, 14: 3}","[14, 23, 24]",143232243,V2Cr3Si3
Mn3V2Si3,mp-1180331,0.0,7.57278724,0.1529393056250008,"{25: 3, 23: 2, 14: 3}","[14, 23, 25]",143232253,Mn3V2Si3
Nb2(VSi)3,mp-1220775,0.0,6.95667643,0.2583497062500051,"{41: 2, 23: 3, 14: 3}","[14, 23, 41]",143233412,Nb2V3Si3
V5Si3,mp-568671,0.0,8.02343285,0.0,"{23: 5, 14: 3}","[14, 23]",143235,V5Si3
Nb4CrSi3,mp-1189988,0.0,7.35916158,0.027335173868237916,"{41: 4, 24: 1, 14: 3}","[14, 24, 41]",143241414,Nb4Cr1Si3
Nb2(CrSi)3,mp-1220777,0.0,7.89360953,0.08505018285472588,"{41: 2, 24: 3, 14: 3}","[14, 24, 41]",143243412,Nb2Cr3Si3
Cr5Si3,mp-7506,0.0,8.99749921,0.05473733324999941,"{24: 5, 14: 3}","[14, 24]",143245,Cr5Si3
Mn10(SiGe)3,mp-1222206,0.0,7.09359722,0.04297522828125011,"{25: 10, 14: 3, 32: 3}","[14, 25, 32]",1432510323,Mn10Si3Ge3
Th2MnSi3,mp-1217299,0.0,7.85374942,0.03374572083333405,"{90: 2, 25: 1, 14: 3}","[14, 25, 90]",143251902,Th2Mn1Si3
Mn4Co4Si3Ge,mp-1222104,0.0,7.27455,0.0,"{25: 4, 27: 4, 14: 3, 32: 1}","[14, 25, 27, 32]",143254274321,Mn4Co4Si3Ge1
Mn5Si3,mp-1111,0.0,7.92480785,0.0,"{25: 5, 14: 3}","[14, 25]",143255,Mn5Si3
LaCoSi3,mp-1068559,0.0,9.31857708,0.0,"{57: 1, 27: 1, 14: 3}","[14, 27, 57]",143271571,La1Co1Si3
La2CoSi3,mp-1223336,0.0,8.35852288,0.11302971916666493,"{57: 2, 27: 1, 14: 3}","[14, 27, 57]",143271572,La2Co1Si3
CeCoSi3,mp-1070753,0.0,9.18402747,0.0,"{58: 1, 27: 1, 14: 3}","[14, 27, 58]",143271581,Ce1Co1Si3
Ce2CoSi3,mp-1226808,0.0,8.08211768,0.0770882612500019,"{58: 2, 27: 1, 14: 3}","[14, 27, 58]",143271582,Ce2Co1Si3
Pr2CoSi3,mp-1219912,0.0,6.00184606,0.12356175833333438,"{59: 2, 27: 1, 14: 3}","[14, 27, 59]",143271592,Pr2Co1Si3
NdCoSi3,mp-1069204,0.0,7.69426878,0.0,"{60: 1, 27: 1, 14: 3}","[14, 27, 60]",143271601,Nd1Co1Si3
Nd2CoSi3,mp-1220282,0.0,5.92533224,0.16199889833333003,"{60: 2, 27: 1, 14: 3}","[14, 27, 60]",143271602,Nd2Co1Si3
SmCoSi3,mp-972659,0.0,7.6928792,0.0,"{62: 1, 27: 1, 14: 3}","[14, 27, 62]",143271621,Sm1Co1Si3
Eu2CoSi3,mp-1225402,0.0,5.24504685,0.17299416208333085,"{63: 2, 27: 1, 14: 3}","[14, 27, 63]",143271632,Eu2Co1Si3
GdCoSi3,mp-1069379,0.0,7.69808649,0.0,"{64: 1, 27: 1, 14: 3}","[14, 27, 64]",143271641,Gd1Co1Si3
TbCoSi3,mp-1069044,0.0,7.993859,0.0,"{65: 1, 27: 1, 14: 3}","[14, 27, 65]",143271651,Tb1Co1Si3
ErCoSi3,mp-1205515,0.0,6.73675071,0.013481436529410473,"{68: 1, 27: 1, 14: 3}","[14, 27, 68]",143271681,Er1Co1Si3
Er3CoSi3,mp-568196,0.0,5.44524145,0.0,"{68: 3, 27: 1, 14: 3}","[14, 27, 68]",143271683,Er3Co1Si3
ThCoSi3,mp-1068664,0.0,9.17475606,0.0,"{90: 1, 27: 1, 14: 3}","[14, 27, 90]",143271901,Th1Co1Si3
Th2CoSi3,mp-1217302,0.0,8.02097426,0.004364659583320218,"{90: 2, 27: 1, 14: 3}","[14, 27, 90]",143271902,Th2Co1Si3
U2CoSi3,mp-1216755,0.0,10.39065385,0.044478960476189044,"{92: 2, 27: 1, 14: 3}","[14, 27, 92]",143271922,U2Co1Si3
Nd2Co19Si3,mp-1220564,0.0,6.01625838,0.03148203463540078,"{60: 2, 27: 19, 14: 3}","[14, 27, 60]",1432719602,Nd2Co19Si3
Co2Si3,mp-1105498,0.0,9.44703842,0.20275063700000118,"{27: 2, 14: 3}","[14, 27]",143272,Co2Si3
Zr3Co2Si3,mp-1188741,0.0,6.46326172,0.007152106875013331,"{40: 3, 27: 2, 14: 3}","[14, 27, 40]",143272403,Zr3Co2Si3
Nb2Co2Si3,mp-1210174,0.0,8.00756862,0.13843346547618918,"{41: 2, 27: 2, 14: 3}","[14, 27, 41]",143272412,Nb2Co2Si3
Sm6Co2Si3,mp-1219279,0.0,4.43610191,0.09473869045454375,"{62: 6, 27: 2, 14: 3}","[14, 27, 62]",143272626,Sm6Co2Si3
Tb3Co2Si3,mp-1208480,0.0,5.55124073,0.035415176875001286,"{65: 3, 27: 2, 14: 3}","[14, 27, 65]",143272653,Tb3Co2Si3
Dy3Co2Si3,mp-1212856,0.0,5.58439408,0.012638951249994257,"{66: 3, 27: 2, 14: 3}","[14, 27, 66]",143272663,Dy3Co2Si3
Ho3Co2Si3,mp-1212311,0.0,5.50389447,0.0074253860416622075,"{67: 3, 27: 2, 14: 3}","[14, 27, 67]",143272673,Ho3Co2Si3
Er3Co2Si3,mp-1212859,0.0,5.67228204,0.0042179923437482,"{68: 3, 27: 2, 14: 3}","[14, 27, 68]",143272683,Er3Co2Si3
Tm3Co2Si3,mp-1207965,0.0,5.5717588,0.0017689909374931645,"{69: 3, 27: 2, 14: 3}","[14, 27, 69]",143272693,Tm3Co2Si3
Lu3Co2Si3,mp-1210815,0.0,5.57770941,0.0,"{71: 3, 27: 2, 14: 3}","[14, 27, 71]",143272713,Lu3Co2Si3
Hf3Co2Si3,mp-1188987,0.0,7.04813775,0.0,"{72: 3, 27: 2, 14: 3}","[14, 27, 72]",143272723,Hf3Co2Si3
Eu2Co4Si3Ge,mp-1225466,0.0,5.83522131,0.009426298999998473,"{63: 2, 27: 4, 14: 3, 32: 1}","[14, 27, 32, 63]",143274321632,Eu2Co4Si3Ge1
ZrCo5Si3,mp-1198615,0.0,7.28261363,0.0,"{40: 1, 27: 5, 14: 3}","[14, 27, 40]",143275401,Zr1Co5Si3
DyCo5Si3,mp-1213253,0.0,9.00038006,0.0014824717592611947,"{66: 1, 27: 5, 14: 3}","[14, 27, 66]",143275661,Dy1Co5Si3
HoCo5Si3,mp-1212707,0.0,9.09195576,0.0,"{67: 1, 27: 5, 14: 3}","[14, 27, 67]",143275671,Ho1Co5Si3
ErCo5Si3,mp-1198238,0.0,6.99774683,0.018984315648149952,"{68: 1, 27: 5, 14: 3}","[14, 27, 68]",143275681,Er1Co5Si3
TmCo5Si3,mp-1208211,0.0,6.81511037,0.0,"{69: 1, 27: 5, 14: 3}","[14, 27, 69]",143275691,Tm1Co5Si3
LuCo5Si3,mp-1211507,0.0,6.85823914,0.0,"{71: 1, 27: 5, 14: 3}","[14, 27, 71]",143275711,Lu1Co5Si3
UCo5Si3,mp-541830,0.0,8.86717755,0.020399716553029634,"{92: 1, 27: 5, 14: 3}","[14, 27, 92]",143275921,U1Co5Si3
ZnSi3,mp-1187941,0.0,7.7871275,0.5185622600000013,"{30: 1, 14: 3}","[14, 30]",143301,Zn1Si3
Sr2Zn5Si3,mp-1218375,0.0,4.09907929,0.0,"{38: 2, 30: 5, 14: 3}","[14, 30, 38]",143305382,Sr2Zn5Si3
GaSi3,mp-1184252,0.0,7.73567732,0.514813873125,"{31: 1, 14: 3}","[14, 31]",143311,Ga1Si3
Sr4GaSi3,mp-1218379,0.0,3.48297322,0.0,"{38: 4, 31: 1, 14: 3}","[14, 31, 38]",143311384,Sr4Ga1Si3
La4GaSi3,mp-1225557,0.0,7.72782762,0.0,"{57: 4, 31: 1, 14: 3}","[14, 31, 57]",143311574,La4Ga1Si3
U3Ga2Si3,mp-1207928,0.0,9.09809107,0.06018195687499883,"{92: 3, 31: 2, 14: 3}","[14, 31, 92]",143312923,U3Ga2Si3
Si3Ge,mp-972751,0.0,8.55869279,0.5808026387500007,"{14: 3, 32: 1}","[14, 32]",143321,Si3Ge1
Sm2Si3Ge,mp-1219185,0.0,6.04596047,0.011901888499999735,"{62: 2, 14: 3, 32: 1}","[14, 32, 62]",143321622,Sm2Si3Ge1
Tb2Si3Ge,mp-1217697,0.0,6.21174089,0.06802012783333211,"{65: 2, 14: 3, 32: 1}","[14, 32, 65]",143321652,Tb2Si3Ge1
Tb4Si3Ge,mp-1217620,0.0,5.26008749,0.006941197812501798,"{65: 4, 14: 3, 32: 1}","[14, 32, 65]",143321654,Tb4Si3Ge1
Ho4Si3Ge,mp-1223829,0.0,5.2487178,0.014124900000000551,"{67: 4, 14: 3, 32: 1}","[14, 32, 67]",143321674,Ho4Si3Ge1
Nd10(SiGe)3,mp-1220457,0.0,3.81758444,0.0014862081249980008,"{60: 10, 14: 3, 32: 3}","[14, 32, 60]",1433236010,Nd10Si3Ge3
U2(SiGe)3,mp-1216613,0.0,10.35573105,0.0262776587499971,"{92: 2, 14: 3, 32: 3}","[14, 32, 92]",143323922,U2Si3Ge3
Si3As,mp-972752,0.0,8.33755335,0.5922698250000007,"{14: 3, 33: 1}","[14, 33]",143331,Si3As1
Si3As4,mp-570744,0.40470000000000006,4.7228402,0.04686194750000183,"{14: 3, 33: 4}","[14, 33]",143334,Si3As4
Si3Se,mp-978501,0.0,8.21117225,0.8382790774999993,"{14: 3, 34: 1}","[14, 34]",143341,Si3Se1
SrSi3Au,mp-1067925,0.0,6.7258875,0.013149417000001051,"{38: 1, 14: 3, 79: 1}","[14, 38, 79]",143381791,Sr1Si3Au1
Sr2Si3,mp-1218710,0.0,3.95845672,0.09172877499999998,"{38: 2, 14: 3}","[14, 38]",143382,Sr2Si3
Sr5Si3,mp-746,0.0,3.06955211,0.0001182899999996323,"{38: 5, 14: 3}","[14, 38]",143385,Sr5Si3
Zr(SiPd)3,mp-1207381,0.0,7.3260636,0.00812153857142306,"{40: 1, 14: 3, 46: 3}","[14, 40, 46]",143401463,Zr1Si3Pd3
Zr4Si3Sb5,mp-1215356,0.0,7.4672456,0.0033200654166662957,"{40: 4, 14: 3, 51: 5}","[14, 40, 51]",143404515,Zr4Si3Sb5
Zr5Si3,mp-568115,0.0,5.79901161,0.02320764999999625,"{40: 5, 14: 3}","[14, 40]",143405,Zr5Si3
Nb5Si3,mp-13686,0.0,6.97602949,0.0,"{41: 5, 14: 3}","[14, 41]",143415,Nb5Si3
Si3Mo,mp-978525,0.0,10.42570738,0.6733048675000006,"{14: 3, 42: 1}","[14, 42]",143421,Si3Mo1
Si3MoPt2,mp-978568,0.0,9.13565464,0.0,"{14: 3, 42: 1, 78: 2}","[14, 42, 78]",143421782,Si3Mo1Pt2
U4Si3Mo,mp-1207901,0.0,11.4246393,0.028094512968756646,"{92: 4, 14: 3, 42: 1}","[14, 42, 92]",143421924,U4Si3Mo1
Ta2(SiMo)3,mp-1217785,0.0,8.77460508,0.00185191437500265,"{73: 2, 14: 3, 42: 3}","[14, 42, 73]",143423732,Ta2Si3Mo3
Si3Mo3W2,mp-1219258,0.0,9.48898781,0.035347832589287975,"{14: 3, 42: 3, 74: 2}","[14, 42, 74]",143423742,Si3Mo3W2
Si3Mo5,mp-1332,0.0,9.71255204,0.0,"{14: 3, 42: 5}","[14, 42]",143425,Si3Mo5
Si3Ru,mp-978509,0.0,10.13370537,0.6180451134374998,"{14: 3, 44: 1}","[14, 44]",143441,Si3Ru1
LaSi3Ru,mp-1069594,0.0,9.0849026,0.0,"{57: 1, 14: 3, 44: 1}","[14, 44, 57]",143441571,La1Si3Ru1
CeSi3Ru,mp-13120,0.0,8.76683102,0.0,"{58: 1, 14: 3, 44: 1}","[14, 44, 58]",143441581,Ce1Si3Ru1
NdSi3Ru,mp-1069041,0.0,7.41073614,0.005464831000001169,"{60: 1, 14: 3, 44: 1}","[14, 44, 60]",143441601,Nd1Si3Ru1
ThSi3Ru,mp-1068732,0.0,9.07807113,0.0,"{90: 1, 14: 3, 44: 1}","[14, 44, 90]",143441901,Th1Si3Ru1
Th2Si3Ru,mp-1217295,0.0,8.05291539,0.0019375937500072382,"{90: 2, 14: 3, 44: 1}","[14, 44, 90]",143441902,Th2Si3Ru1
U2Si3Ru,mp-1216891,0.0,10.16347789,0.02401722444444232,"{92: 2, 14: 3, 44: 1}","[14, 44, 92]",143441922,U2Si3Ru1
Si3Ru2,mp-22192,0.5510999999999999,9.27592626,0.0,"{14: 3, 44: 2}","[14, 44]",143442,Si3Ru2
U4Si3Ru2,mp-1100971,0.0,11.7464153,0.2390011971825423,"{92: 4, 14: 3, 44: 2}","[14, 44, 92]",143442924,U4Si3Ru2
Si3Ru4,mp-510412,0.0,9.65860184,0.010771962142854363,"{14: 3, 44: 4}","[14, 44]",143444,Si3Ru4
Si3Ru5,mp-1105935,0.0,9.20841814,0.037526324999998195,"{14: 3, 44: 5}","[14, 44]",143445,Si3Ru5
LaSi3Rh,mp-1070124,0.0,9.2434034,0.0,"{57: 1, 14: 3, 45: 1}","[14, 45, 57]",143451571,La1Si3Rh1
La2Si3Rh,mp-1191810,0.0,8.1706103,0.0,"{57: 2, 14: 3, 45: 1}","[14, 45, 57]",143451572,La2Si3Rh1
CeSi3Rh,mp-1070394,0.0,8.90021953,0.0,"{58: 1, 14: 3, 45: 1}","[14, 45, 58]",143451581,Ce1Si3Rh1
Ce2Si3Rh,mp-31163,0.0,8.21010062,0.0,"{58: 2, 14: 3, 45: 1}","[14, 45, 58]",143451582,Ce2Si3Rh1
NdSi3Rh,mp-1070321,0.0,7.78184012,0.0,"{60: 1, 14: 3, 45: 1}","[14, 45, 60]",143451601,Nd1Si3Rh1
Nd2Si3Rh,mp-5082,0.0,5.94381743,0.0,"{60: 2, 14: 3, 45: 1}","[14, 45, 60]",143451602,Nd2Si3Rh1
SmSi3Rh,mp-1069765,0.0,7.79322751,0.0,"{62: 1, 14: 3, 45: 1}","[14, 45, 62]",143451621,Sm1Si3Rh1
EuSi3Rh,mp-1068807,0.0,6.98610633,0.0,"{63: 1, 14: 3, 45: 1}","[14, 45, 63]",143451631,Eu1Si3Rh1
TbSi3Rh,mp-1068827,0.0,7.95321248,0.0,"{65: 1, 14: 3, 45: 1}","[14, 45, 65]",143451651,Tb1Si3Rh1
Tb2Si3Rh,mp-17036,0.0,6.15355871,0.0,"{65: 2, 14: 3, 45: 1}","[14, 45, 65]",143451652,Tb2Si3Rh1
Dy2Si3Rh,mp-1191528,0.0,6.14264071,0.0,"{66: 2, 14: 3, 45: 1}","[14, 45, 66]",143451662,Dy2Si3Rh1
Ho2Si3Rh,mp-17485,0.0,6.13759606,0.0,"{67: 2, 14: 3, 45: 1}","[14, 45, 67]",143451672,Ho2Si3Rh1
Er2Si3Rh,mp-4289,0.0,6.19366125,0.0,"{68: 2, 14: 3, 45: 1}","[14, 45, 68]",143451682,Er2Si3Rh1
ThSi3Rh,mp-1070238,0.0,9.13932358,0.0,"{90: 1, 14: 3, 45: 1}","[14, 45, 90]",143451901,Th1Si3Rh1
Th2Si3Rh,mp-1217296,0.0,8.00009037,0.0,"{90: 2, 14: 3, 45: 1}","[14, 45, 90]",143451902,Th2Si3Rh1
U2Si3Rh,mp-1216620,0.0,10.07593243,0.037792577708330555,"{92: 2, 14: 3, 45: 1}","[14, 45, 92]",143451922,U2Si3Rh1
Ce4Si3Rh4,mp-1006390,0.0,8.39078991,0.00398491875000051,"{58: 4, 14: 3, 45: 4}","[14, 45, 58]",143454584,Ce4Si3Rh4
Si3Rh5,mp-21012,0.0,8.54240672,0.04372154125000094,"{14: 3, 45: 5}","[14, 45]",143455,Si3Rh5
SmSi3Rh5,mp-21780,0.0,7.17123326,0.017473880623782634,"{62: 1, 14: 3, 45: 5}","[14, 45, 62]",143455621,Sm1Si3Rh5
TbSi3Rh5,mp-21748,0.0,7.238614,0.0,"{65: 1, 14: 3, 45: 5}","[14, 45, 65]",143455651,Tb1Si3Rh5
DySi3Rh5,mp-22830,0.0,7.21537114,0.0,"{66: 1, 14: 3, 45: 5}","[14, 45, 66]",143455661,Dy1Si3Rh5
HoSi3Rh5,mp-21793,0.0,7.18704442,0.0,"{67: 1, 14: 3, 45: 5}","[14, 45, 67]",143455671,Ho1Si3Rh5
ErSi3Rh5,mp-15307,0.0,7.21495155,0.0,"{68: 1, 14: 3, 45: 5}","[14, 45, 68]",143455681,Er1Si3Rh5
TmSi3Rh5,mp-15308,0.0,7.20288433,0.0,"{69: 1, 14: 3, 45: 5}","[14, 45, 69]",143455691,Tm1Si3Rh5
Pr2Si3Pd,mp-1209411,0.0,6.22703533,0.0,"{59: 2, 14: 3, 46: 1}","[14, 46, 59]",143461592,Pr2Si3Pd1
Nd2Si3Pd,mp-1210018,0.0,6.25916104,0.0,"{60: 2, 14: 3, 46: 1}","[14, 46, 60]",143461602,Nd2Si3Pd1
Sm2Si3Pd,mp-1219181,0.0,5.65739672,0.0,"{62: 2, 14: 3, 46: 1}","[14, 46, 62]",143461622,Sm2Si3Pd1
Eu2Si3Pd,mp-22765,0.0,4.9327129,0.0,"{63: 2, 14: 3, 46: 1}","[14, 46, 63]",143461632,Eu2Si3Pd1