formula,material_id,band_gap,efermi,energy_above_hull,comp_atoms,sorted_keys_comp_atoms,comp_number,new_formula
Na2Ta4Nb4Si9(SO16)3,mp-2714266,2.3320000000000003,0.56848272,0.022524223772121488,"{11: 2, 73: 4, 41: 4, 14: 9, 16: 3, 8: 48}","[8, 11, 14, 16, 41, 73]",848112149163414734,Na2Ta4Nb4Si9S3O48
Na2Nb8Si9(SO16)3,mp-2714227,2.3801,0.32935917,0.026371291455795642,"{11: 2, 41: 8, 14: 9, 16: 3, 8: 48}","[8, 11, 14, 16, 41]",848112149163418,Na2Nb8Si9S3O48
Na2Ta8Si9(SO16)3,mp-2714209,3.1049,0.59556805,0.010826695642858652,"{11: 2, 73: 8, 14: 9, 16: 3, 8: 48}","[8, 11, 14, 16, 73]",848112149163738,Na2Ta8Si9S3O48
Na6MgTi7Si6(SO8)6,mp-2714718,1.6961000000000002,1.4945178,0.07081185373874188,"{11: 6, 12: 1, 22: 7, 14: 6, 16: 6, 8: 48}","[8, 11, 12, 14, 16, 22]",848116121146166227,Na6Mg1Ti7Si6S6O48
Na6MgSi6Ge7(SO8)6,mp-2714893,1.5409,2.26826136,0.16630994168919422,"{11: 6, 12: 1, 14: 6, 32: 7, 16: 6, 8: 48}","[8, 11, 12, 14, 16, 32]",848116121146166327,Na6Mg1Si6Ge7S6O48
Na6MgZr7Si6(SO8)6,mp-2714695,2.9915000000000003,1.06363523,0.07108846934684543,"{11: 6, 12: 1, 40: 7, 14: 6, 16: 6, 8: 48}","[8, 11, 12, 14, 16, 40]",848116121146166407,Na6Mg1Zr7Si6S6O48
Na6MgSi6Sn7(SO8)6,mp-2716360,1.3814000000000002,2.60855576,0.1207142897657727,"{11: 6, 12: 1, 14: 6, 50: 7, 16: 6, 8: 48}","[8, 11, 12, 14, 16, 50]",848116121146166507,Na6Mg1Si6Sn7S6O48
Na6Hf7MgSi6(SO8)6,mp-2714851,3.5687,1.49070831,0.06329509459459359,"{11: 6, 72: 7, 12: 1, 14: 6, 16: 6, 8: 48}","[8, 11, 12, 14, 16, 72]",848116121146166727,Na6Hf7Mg1Si6S6O48
Na6Mg2Ti6Si5S7O48,mp-2715948,1.1182999999999998,1.89551492,0.0905028763127449,"{11: 6, 12: 2, 22: 6, 14: 5, 16: 7, 8: 48}","[8, 11, 12, 14, 16, 22]",848116122145167226,Na6Mg2Ti6Si5S7O48
Na6Mg2Si5Ge6S7O48,mp-2716089,0.5599000000000003,2.59012116,0.1835244897747801,"{11: 6, 12: 2, 14: 5, 32: 6, 16: 7, 8: 48}","[8, 11, 12, 14, 16, 32]",848116122145167326,Na6Mg2Si5Ge6S7O48
Na6Mg2Zr6Si5S7O48,mp-2715878,2.3033,1.58535819,0.09554552664414384,"{11: 6, 12: 2, 40: 6, 14: 5, 16: 7, 8: 48}","[8, 11, 12, 14, 16, 40]",848116122145167406,Na6Mg2Zr6Si5S7O48
Na6Mg2Si5Sn6S7O48,mp-2715842,0.7799999999999998,2.91238851,0.13427740261261523,"{11: 6, 12: 2, 14: 5, 50: 6, 16: 7, 8: 48}","[8, 11, 12, 14, 16, 50]",848116122145167506,Na6Mg2Si5Sn6S7O48
Na6Hf6Mg2Si5S7O48,mp-2716045,2.9544999999999995,1.93505362,0.09362874310810376,"{11: 6, 72: 6, 12: 2, 14: 5, 16: 7, 8: 48}","[8, 11, 12, 14, 16, 72]",848116122145167726,Na6Hf6Mg2Si5S7O48
Na6Mg4Sc4SiS11O48,mp-2713233,3.9060000000000006,1.19245065,0.021438293365007688,"{11: 6, 12: 4, 21: 4, 14: 1, 16: 11, 8: 48}","[8, 11, 12, 14, 16, 21]",8481161241411611214,Na6Mg4Sc4Si1S11O48
Na6Mg4Ga4SiS11O48,mp-2713684,3.1826,1.60369074,0.03561935466966748,"{11: 6, 12: 4, 31: 4, 14: 1, 16: 11, 8: 48}","[8, 11, 12, 14, 16, 31]",8481161241411611314,Na6Mg4Ga4Si1S11O48
Na6Mg4In4SiS11O48,mp-2713606,2.9324,1.8196541,0.02916269754054035,"{11: 6, 12: 4, 49: 4, 14: 1, 16: 11, 8: 48}","[8, 11, 12, 14, 16, 49]",8481161241411611494,Na6Mg4In4Si1S11O48
Na6La4Mg4SiS11O48,mp-2712635,4.3161,1.08169048,0.053196341013515,"{11: 6, 57: 4, 12: 4, 14: 1, 16: 11, 8: 48}","[8, 11, 12, 14, 16, 57]",8481161241411611574,Na6La4Mg4Si1S11O48
Na6Mg4Ti4Si3(S3O16)3,mp-2714002,1.1769,1.76253579,0.06154649676802659,"{11: 6, 12: 4, 22: 4, 14: 3, 16: 9, 8: 48}","[8, 11, 12, 14, 16, 22]",848116124143169224,Na6Mg4Ti4Si3S9O48
Na6Mg4Si3Ge4(S3O16)3,mp-2713855,1.0482,2.44131587,0.12092443346847492,"{11: 6, 12: 4, 14: 3, 32: 4, 16: 9, 8: 48}","[8, 11, 12, 14, 16, 32]",848116124143169324,Na6Mg4Si3Ge4S9O48
Na6Mg4Zr4Si3(S3O16)3,mp-2713997,2.3555,1.78865049,0.06648022112162089,"{11: 6, 12: 4, 40: 4, 14: 3, 16: 9, 8: 48}","[8, 11, 12, 14, 16, 40]",848116124143169404,Na6Mg4Zr4Si3S9O48
Na6Mg4Si3Sn4(S3O16)3,mp-2713833,0.5345999999999997,2.77476795,0.08558666018017647,"{11: 6, 12: 4, 14: 3, 50: 4, 16: 9, 8: 48}","[8, 11, 12, 14, 16, 50]",848116124143169504,Na6Mg4Si3Sn4S9O48
Na6Hf4Mg4Si3(S3O16)3,mp-2713860,3.0387999999999997,1.96890467,0.06171002816667581,"{11: 6, 72: 4, 12: 4, 14: 3, 16: 9, 8: 48}","[8, 11, 12, 14, 16, 72]",848116124143169724,Na6Hf4Mg4Si3S9O48
Na6Mg4Nb4Si5S7O48,mp-2715972,0.7226000000000001,1.9050829,0.11772480710425004,"{11: 6, 12: 4, 41: 4, 14: 5, 16: 7, 8: 48}","[8, 11, 12, 14, 16, 41]",848116124145167414,Na6Mg4Nb4Si5S7O48
Na6Mg4Ta4Si5S7O48,mp-2716062,1.2927,2.01397764,0.11544327693694001,"{11: 6, 12: 4, 73: 4, 14: 5, 16: 7, 8: 48}","[8, 11, 12, 14, 16, 73]",848116124145167734,Na6Mg4Ta4Si5S7O48
Na6Mg6Ti2SiS11O48,mp-2713230,1.5064000000000002,1.61525067,0.023091318231982072,"{11: 6, 12: 6, 22: 2, 14: 1, 16: 11, 8: 48}","[8, 11, 12, 14, 16, 22]",8481161261411611222,Na6Mg6Ti2Si1S11O48
Na6Mg6SiGe2S11O48,mp-2712534,1.1777,2.17418082,0.053221600135140434,"{11: 6, 12: 6, 14: 1, 32: 2, 16: 11, 8: 48}","[8, 11, 12, 14, 16, 32]",8481161261411611322,Na6Mg6Si1Ge2S11O48
Na6Mg6Zr2SiS11O48,mp-2712794,2.6574000000000004,1.82793963,0.024644673436934106,"{11: 6, 12: 6, 40: 2, 14: 1, 16: 11, 8: 48}","[8, 11, 12, 14, 16, 40]",8481161261411611402,Na6Mg6Zr2Si1S11O48
Na6Mg6SiSn2S11O48,mp-2713622,1.6886,2.35367167,0.03314924130629837,"{11: 6, 12: 6, 14: 1, 50: 2, 16: 11, 8: 48}","[8, 11, 12, 14, 16, 50]",8481161261411611502,Na6Mg6Si1Sn2S11O48
Na6Hf2Mg6SiS11O48,mp-2713686,3.3671999999999995,1.90863542,0.023856281040538718,"{11: 6, 72: 2, 12: 6, 14: 1, 16: 11, 8: 48}","[8, 11, 12, 14, 16, 72]",8481161261411611722,Na6Hf2Mg6Si1S11O48
Na6Ta4Nb4Si11SO48,mp-2714560,2.8833,0.93976706,0.026419747657660864,"{11: 6, 73: 4, 41: 4, 14: 11, 16: 1, 8: 48}","[8, 11, 14, 16, 41, 73]",8481161411161414734,Na6Ta4Nb4Si11S1O48
Na6Nb8Si11SO48,mp-2714419,2.858,0.85442753,0.03750423903153255,"{11: 6, 41: 8, 14: 11, 16: 1, 8: 48}","[8, 11, 14, 16, 41]",8481161411161418,Na6Nb8Si11S1O48
Na6Ta8Si11SO48,mp-2714581,3.6358999999999995,1.13049734,0.017377081599084576,"{11: 6, 73: 8, 14: 11, 16: 1, 8: 48}","[8, 11, 14, 16, 73]",8481161411161738,Na6Ta8Si11S1O48
Na6Ca4Sc4SiS11O48,mp-2712814,3.6365999999999996,0.61729452,0.031677007159345294,"{11: 6, 20: 4, 21: 4, 14: 1, 16: 11, 8: 48}","[8, 11, 14, 16, 20, 21]",8481161411611204214,Na6Ca4Sc4Si1S11O48
Na6Ca4Ga4SiS11O48,mp-2712702,2.604,1.1429457,0.06547852195946025,"{11: 6, 20: 4, 31: 4, 14: 1, 16: 11, 8: 48}","[8, 11, 14, 16, 20, 31]",8481161411611204314,Na6Ca4Ga4Si1S11O48
Na6Ca4In4SiS11O48,mp-2713288,2.4857,1.26921022,0.040643137319818834,"{11: 6, 20: 4, 49: 4, 14: 1, 16: 11, 8: 48}","[8, 11, 14, 16, 20, 49]",8481161411611204494,Na6Ca4In4Si1S11O48
Na6Ca4La4SiS11O48,mp-2712739,4.0491,0.75210579,0.04510300231981734,"{11: 6, 20: 4, 57: 4, 14: 1, 16: 11, 8: 48}","[8, 11, 14, 16, 20, 57]",8481161411611204574,Na6Ca4La4Si1S11O48
Na6Ca6Ti2SiS11O48,mp-2713611,1.5087000000000002,0.88169213,0.054553127105850585,"{11: 6, 20: 6, 22: 2, 14: 1, 16: 11, 8: 48}","[8, 11, 14, 16, 20, 22]",8481161411611206222,Na6Ca6Ti2Si1S11O48
Na6Ca6SiGe2S11O48,mp-2712570,0.18079999999999996,0.94301352,0.10906380930179882,"{11: 6, 20: 6, 14: 1, 32: 2, 16: 11, 8: 48}","[8, 11, 14, 16, 20, 32]",8481161411611206322,Na6Ca6Si1Ge2S11O48
Na6Ca6Zr2SiS11O48,mp-2712716,2.8138,0.97519799,0.03976926925675439,"{11: 6, 20: 6, 40: 2, 14: 1, 16: 11, 8: 48}","[8, 11, 14, 16, 20, 40]",8481161411611206402,Na6Ca6Zr2Si1S11O48
Na6Ca6SiSn2S11O48,mp-2713261,0.9956000000000003,1.45991528,0.06477266520270764,"{11: 6, 20: 6, 14: 1, 50: 2, 16: 11, 8: 48}","[8, 11, 14, 16, 20, 50]",8481161411611206502,Na6Ca6Si1Sn2S11O48
Na6Ca6Hf2SiS11O48,mp-2713715,3.5736999999999997,1.136461,0.04243061677927695,"{11: 6, 20: 6, 72: 2, 14: 1, 16: 11, 8: 48}","[8, 11, 14, 16, 20, 72]",8481161411611206722,Na6Ca6Hf2Si1S11O48
Na6Sc4Zn4SiS11O48,mp-2712544,3.8834,0.74714408,0.036430610191438895,"{11: 6, 21: 4, 30: 4, 14: 1, 16: 11, 8: 48}","[8, 11, 14, 16, 21, 30]",8481161411611214304,Na6Sc4Zn4Si1S11O48
Na6Ti2Zn6SiS11O48,mp-2712820,1.5179999999999998,1.27731888,0.03805247467905293,"{11: 6, 22: 2, 30: 6, 14: 1, 16: 11, 8: 48}","[8, 11, 14, 16, 22, 30]",8481161411611222306,Na6Ti2Zn6Si1S11O48
Na6Zn4Ga4SiS11O48,mp-2713570,3.0456999999999996,1.22555941,0.04652948320664496,"{11: 6, 30: 4, 31: 4, 14: 1, 16: 11, 8: 48}","[8, 11, 14, 16, 30, 31]",8481161411611304314,Na6Zn4Ga4Si1S11O48
Na6Zn4In4SiS11O48,mp-2713591,2.8910000000000005,1.45147987,0.04091643996059258,"{11: 6, 30: 4, 49: 4, 14: 1, 16: 11, 8: 48}","[8, 11, 14, 16, 30, 49]",8481161411611304494,Na6Zn4In4Si1S11O48
Na6La4Zn4SiS11O48,mp-2712806,3.8118,0.83704862,0.07868362592342226,"{11: 6, 57: 4, 30: 4, 14: 1, 16: 11, 8: 48}","[8, 11, 14, 16, 30, 57]",8481161411611304574,Na6La4Zn4Si1S11O48
Na6Zn6SiGe2S11O48,mp-2713547,1.3325,1.70484872,0.06740825503940329,"{11: 6, 30: 6, 14: 1, 32: 2, 16: 11, 8: 48}","[8, 11, 14, 16, 30, 32]",8481161411611306322,Na6Zn6Si1Ge2S11O48
Na6Zr2Zn6SiS11O48,mp-2712726,3.2884,0.96851559,0.03221998098536094,"{11: 6, 40: 2, 30: 6, 14: 1, 16: 11, 8: 48}","[8, 11, 14, 16, 30, 40]",8481161411611306402,Na6Zr2Zn6Si1S11O48
Na6Zn6SiSn2S11O48,mp-2712727,1.5652000000000001,1.88430445,0.0448928573367775,"{11: 6, 30: 6, 14: 1, 50: 2, 16: 11, 8: 48}","[8, 11, 14, 16, 30, 50]",8481161411611306502,Na6Zn6Si1Sn2S11O48
Na6Hf2Zn6SiS11O48,mp-2713712,3.1586,1.56661293,0.0368470376520289,"{11: 6, 72: 2, 30: 6, 14: 1, 16: 11, 8: 48}","[8, 11, 14, 16, 30, 72]",8481161411611306722,Na6Hf2Zn6Si1S11O48
Na6Ca4Ti4Si3(S3O16)3,mp-2713886,1.1675,1.44611643,0.0798721534346809,"{11: 6, 20: 4, 22: 4, 14: 3, 16: 9, 8: 48}","[8, 11, 14, 16, 20, 22]",848116143169204224,Na6Ca4Ti4Si3S9O48
Na6Ca4Si3Ge4(S3O16)3,mp-2713992,0.31730000000000014,1.65909643,0.15191698533783526,"{11: 6, 20: 4, 14: 3, 32: 4, 16: 9, 8: 48}","[8, 11, 14, 16, 20, 32]",848116143169204324,Na6Ca4Si3Ge4S9O48
Na6Ca4Zr4Si3(S3O16)3,mp-2714001,2.4783,1.36830881,0.06834726439188987,"{11: 6, 20: 4, 40: 4, 14: 3, 16: 9, 8: 48}","[8, 11, 14, 16, 20, 40]",848116143169204404,Na6Ca4Zr4Si3S9O48
Na6Ca4Si3Sn4(S3O16)3,mp-2713758,1.2485000000000002,2.19376219,0.10525692641891649,"{11: 6, 20: 4, 14: 3, 50: 4, 16: 9, 8: 48}","[8, 11, 14, 16, 20, 50]",848116143169204504,Na6Ca4Si3Sn4S9O48
Na6Ca4Hf4Si3(S3O16)3,mp-2713995,3.2616999999999994,1.54942237,0.069685372274777,"{11: 6, 20: 4, 72: 4, 14: 3, 16: 9, 8: 48}","[8, 11, 14, 16, 20, 72]",848116143169204724,Na6Ca4Hf4Si3S9O48
Na6Sc4Ga4Si3(S3O16)3,mp-2713781,2.9603,1.5630296,0.07918456718468292,"{11: 6, 21: 4, 31: 4, 14: 3, 16: 9, 8: 48}","[8, 11, 14, 16, 21, 31]",848116143169214314,Na6Sc4Ga4Si3S9O48
Na6Sc4In4Si3(S3O16)3,mp-2713823,2.2659000000000002,2.11530509,0.06453736596846849,"{11: 6, 21: 4, 49: 4, 14: 3, 16: 9, 8: 48}","[8, 11, 14, 16, 21, 49]",848116143169214494,Na6Sc4In4Si3S9O48
Na6La4Sc4Si3(S3O16)3,mp-2713763,3.1250000000000004,1.59393722,0.07334787909065188,"{11: 6, 57: 4, 21: 4, 14: 3, 16: 9, 8: 48}","[8, 11, 14, 16, 21, 57]",848116143169214574,Na6La4Sc4Si3S9O48
Na6Sc8Si3(S3O16)3,mp-2714021,3.3800999999999997,1.48343432,0.03345368814470362,"{11: 6, 21: 8, 14: 3, 16: 9, 8: 48}","[8, 11, 14, 16, 21]",848116143169218,Na6Sc8Si3S9O48
Na6Ti4Zn4Si3(S3O16)3,mp-2713926,1.3474999999999997,1.47957219,0.06365673539977745,"{11: 6, 22: 4, 30: 4, 14: 3, 16: 9, 8: 48}","[8, 11, 14, 16, 22, 30]",848116143169224304,Na6Ti4Zn4Si3S9O48
Na6Zn4Si3Ge4(S3O16)3,mp-2713769,1.2903,2.10512561,0.1258938831700398,"{11: 6, 30: 4, 14: 3, 32: 4, 16: 9, 8: 48}","[8, 11, 14, 16, 30, 32]",848116143169304324,Na6Zn4Si3Ge4S9O48
Na6Zr4Zn4Si3(S3O16)3,mp-2713759,2.6595,1.26067375,0.061395984206082055,"{11: 6, 40: 4, 30: 4, 14: 3, 16: 9, 8: 48}","[8, 11, 14, 16, 30, 40]",848116143169304404,Na6Zr4Zn4Si3S9O48
Na6Zn4Si3Sn4(S3O16)3,mp-2713751,1.3955000000000002,2.09597351,0.08266279082776329,"{11: 6, 30: 4, 14: 3, 50: 4, 16: 9, 8: 48}","[8, 11, 14, 16, 30, 50]",848116143169304504,Na6Zn4Si3Sn4S9O48
Na6Hf4Zn4Si3(S3O16)3,mp-2713901,3.2149,1.62012073,0.061370354431301344,"{11: 6, 72: 4, 30: 4, 14: 3, 16: 9, 8: 48}","[8, 11, 14, 16, 30, 72]",848116143169304724,Na6Hf4Zn4Si3S9O48
Na6In4Ga4Si3(S3O16)3,mp-2713772,2.1875000000000004,2.1994093,0.08179236186936656,"{11: 6, 49: 4, 31: 4, 14: 3, 16: 9, 8: 48}","[8, 11, 14, 16, 31, 49]",848116143169314494,Na6In4Ga4Si3S9O48
Na6La4Ga4Si3(S3O16)3,mp-2713944,3.0146,1.52093323,0.12669319529278678,"{11: 6, 57: 4, 31: 4, 14: 3, 16: 9, 8: 48}","[8, 11, 14, 16, 31, 57]",848116143169314574,Na6La4Ga4Si3S9O48
Na6Ga8Si3(S3O16)3,mp-2713789,2.197,2.18932843,0.08489330047297639,"{11: 6, 31: 8, 14: 3, 16: 9, 8: 48}","[8, 11, 14, 16, 31]",848116143169318,Na6Ga8Si3S9O48
Na6La4In4Si3(S3O16)3,mp-2713853,2.3731999999999998,1.95745006,0.097458092409906,"{11: 6, 57: 4, 49: 4, 14: 3, 16: 9, 8: 48}","[8, 11, 14, 16, 49, 57]",848116143169494574,Na6La4In4Si3S9O48
Na6In8Si3(S3O16)3,mp-2713837,1.6844000000000001,2.42133713,0.0651344467342323,"{11: 6, 49: 8, 14: 3, 16: 9, 8: 48}","[8, 11, 14, 16, 49]",848116143169498,Na6In8Si3S9O48
Na6La8Si3(S3O16)3,mp-2713961,3.8557999999999995,1.54396307,0.0659613289301797,"{11: 6, 57: 8, 14: 3, 16: 9, 8: 48}","[8, 11, 14, 16, 57]",848116143169578,Na6La8Si3S9O48
Na6Ca2Ti6Si5S7O48,mp-2716037,0.9530999999999998,1.71677539,0.10994715670044908,"{11: 6, 20: 2, 22: 6, 14: 5, 16: 7, 8: 48}","[8, 11, 14, 16, 20, 22]",848116145167202226,Na6Ca2Ti6Si5S7O48
Na6Ca2Si5Ge6S7O48,mp-2715995,0.6463000000000001,1.92866606,0.20484759137387343,"{11: 6, 20: 2, 14: 5, 32: 6, 16: 7, 8: 48}","[8, 11, 14, 16, 20, 32]",848116145167202326,Na6Ca2Si5Ge6S7O48
Na6Ca2Zr6Si5S7O48,mp-2716004,2.2962,1.46413886,0.09832256038287834,"{11: 6, 20: 2, 40: 6, 14: 5, 16: 7, 8: 48}","[8, 11, 14, 16, 20, 40]",848116145167202406,Na6Ca2Zr6Si5S7O48
Na6Ca2Si5Sn6S7O48,mp-2716084,0.35189999999999966,2.51127463,0.14865648213964366,"{11: 6, 20: 2, 14: 5, 50: 6, 16: 7, 8: 48}","[8, 11, 14, 16, 20, 50]",848116145167202506,Na6Ca2Si5Sn6S7O48
Na6Ca2Hf6Si5S7O48,mp-2716060,2.8149,1.8256232,0.10153057011261524,"{11: 6, 20: 2, 72: 6, 14: 5, 16: 7, 8: 48}","[8, 11, 14, 16, 20, 72]",848116145167202726,Na6Ca2Hf6Si5S7O48
Na6Ca4Nb4Si5S7O48,mp-2715955,0.933,1.3406854,0.14178316883847852,"{11: 6, 20: 4, 41: 4, 14: 5, 16: 7, 8: 48}","[8, 11, 14, 16, 20, 41]",848116145167204414,Na6Ca4Nb4Si5S7O48
Na6Ca4Ta4Si5S7O48,mp-2716046,1.4338,1.61013182,0.14318155222972972,"{11: 6, 20: 4, 73: 4, 14: 5, 16: 7, 8: 48}","[8, 11, 14, 16, 20, 73]",848116145167204734,Na6Ca4Ta4Si5S7O48
Na6Sc4Ti4Si5S7O48,mp-2715949,1.5098,1.52198286,0.07378494373122901,"{11: 6, 21: 4, 22: 4, 14: 5, 16: 7, 8: 48}","[8, 11, 14, 16, 21, 22]",848116145167214224,Na6Sc4Ti4Si5S7O48
Na6Sc4Si5Ge4S7O48,mp-2716048,1.4765,2.12961777,0.13588645296546087,"{11: 6, 21: 4, 14: 5, 32: 4, 16: 7, 8: 48}","[8, 11, 14, 16, 21, 32]",848116145167214324,Na6Sc4Si5Ge4S7O48
Na6Zr4Sc4Si5S7O48,mp-2715894,2.7892,1.62350202,0.07055981249999999,"{11: 6, 40: 4, 21: 4, 14: 5, 16: 7, 8: 48}","[8, 11, 14, 16, 21, 40]",848116145167214404,Na6Zr4Sc4Si5S7O48
Na6Sc4Si5Sn4S7O48,mp-2716035,1.5775000000000001,2.34515778,0.10057756774024096,"{11: 6, 21: 4, 14: 5, 50: 4, 16: 7, 8: 48}","[8, 11, 14, 16, 21, 50]",848116145167214504,Na6Sc4Si5Sn4S7O48
Na6Hf4Sc4Si5S7O48,mp-2716049,2.9142,1.51959381,0.06436996856982002,"{11: 6, 72: 4, 21: 4, 14: 5, 16: 7, 8: 48}","[8, 11, 14, 16, 21, 72]",848116145167214724,Na6Hf4Sc4Si5S7O48
Na6Sc6Nb2Si5S7O48,mp-2715937,0.7667999999999999,1.50123742,0.0804865165690698,"{11: 6, 21: 6, 41: 2, 14: 5, 16: 7, 8: 48}","[8, 11, 14, 16, 21, 41]",848116145167216412,Na6Sc6Nb2Si5S7O48
Na6Sc6Ta2Si5S7O48,mp-2715983,1.6104,1.41541596,0.0848751567492485,"{11: 6, 21: 6, 73: 2, 14: 5, 16: 7, 8: 48}","[8, 11, 14, 16, 21, 73]",848116145167216732,Na6Sc6Ta2Si5S7O48
Na6Ti4Ga4Si5S7O48,mp-2715953,1.4623999999999997,1.84287829,0.07997624750000565,"{11: 6, 22: 4, 31: 4, 14: 5, 16: 7, 8: 48}","[8, 11, 14, 16, 22, 31]",848116145167224314,Na6Ti4Ga4Si5S7O48
Na6Ti4In4Si5S7O48,mp-2715992,1.0921999999999998,2.09665975,0.07703760659910142,"{11: 6, 22: 4, 49: 4, 14: 5, 16: 7, 8: 48}","[8, 11, 14, 16, 22, 49]",848116145167224494,Na6Ti4In4Si5S7O48
Na6La4Ti4Si5S7O48,mp-2715862,1.5276000000000003,1.77215305,0.11052753841592455,"{11: 6, 57: 4, 22: 4, 14: 5, 16: 7, 8: 48}","[8, 11, 14, 16, 22, 57]",848116145167224574,Na6La4Ti4Si5S7O48
Na6Ti6Zn2Si5S7O48,mp-2716011,1.0771,1.79869063,0.09057142364864923,"{11: 6, 22: 6, 30: 2, 14: 5, 16: 7, 8: 48}","[8, 11, 14, 16, 22, 30]",848116145167226302,Na6Ti6Zn2Si5S7O48
Na6Zn2Si5Ge6S7O48,mp-2716013,1.1394000000000002,2.07322633,0.17521449089526353,"{11: 6, 30: 2, 14: 5, 32: 6, 16: 7, 8: 48}","[8, 11, 14, 16, 30, 32]",848116145167302326,Na6Zn2Si5Ge6S7O48
Na6Zr6Zn2Si5S7O48,mp-2716054,2.5051,1.49699496,0.08532856942004496,"{11: 6, 40: 6, 30: 2, 14: 5, 16: 7, 8: 48}","[8, 11, 14, 16, 30, 40]",848116145167302406,Na6Zr6Zn2Si5S7O48
Na6Zn2Si5Sn6S7O48,mp-2716038,0.9946000000000002,2.46613256,0.1276220345890069,"{11: 6, 30: 2, 14: 5, 50: 6, 16: 7, 8: 48}","[8, 11, 14, 16, 30, 50]",848116145167302506,Na6Zn2Si5Sn6S7O48
Na6Hf6Zn2Si5S7O48,mp-2715829,3.1502999999999997,1.65433834,0.0818306250957237,"{11: 6, 72: 6, 30: 2, 14: 5, 16: 7, 8: 48}","[8, 11, 14, 16, 30, 72]",848116145167302726,Na6Hf6Zn2Si5S7O48
Na6Nb4Zn4Si5S7O48,mp-2715976,1.1495,1.32736783,0.11043295661437647,"{11: 6, 41: 4, 30: 4, 14: 5, 16: 7, 8: 48}","[8, 11, 14, 16, 30, 41]",848116145167304414,Na6Nb4Zn4Si5S7O48
Na6Ta4Zn4Si5S7O48,mp-2716067,1.6322999999999999,1.67948735,0.1147144532488733,"{11: 6, 73: 4, 30: 4, 14: 5, 16: 7, 8: 48}","[8, 11, 14, 16, 30, 73]",848116145167304734,Na6Ta4Zn4Si5S7O48
Na6Ga4Si5Ge4S7O48,mp-2715924,1.4771999999999998,2.34654892,0.13727531150901395,"{11: 6, 31: 4, 14: 5, 32: 4, 16: 7, 8: 48}","[8, 11, 14, 16, 31, 32]",848116145167314324,Na6Ga4Si5Ge4S7O48
Na6Zr4Ga4Si5S7O48,mp-2716111,2.5048000000000004,1.55231408,0.08364839340090491,"{11: 6, 40: 4, 31: 4, 14: 5, 16: 7, 8: 48}","[8, 11, 14, 16, 31, 40]",848116145167314404,Na6Zr4Ga4Si5S7O48
Na6Ga4Si5Sn4S7O48,mp-2716103,1.8788,2.41760289,0.1086317843918927,"{11: 6, 31: 4, 14: 5, 50: 4, 16: 7, 8: 48}","[8, 11, 14, 16, 31, 50]",848116145167314504,Na6Ga4Si5Sn4S7O48
Na6Hf4Ga4Si5S7O48,mp-2716028,2.4636,1.79973257,0.07841773132882857,"{11: 6, 72: 4, 31: 4, 14: 5, 16: 7, 8: 48}","[8, 11, 14, 16, 31, 72]",848116145167314724,Na6Hf4Ga4Si5S7O48
Na6Nb2Ga6Si5S7O48,mp-2715987,1.3320999999999998,1.62680615,0.09671240479729715,"{11: 6, 41: 2, 31: 6, 14: 5, 16: 7, 8: 48}","[8, 11, 14, 16, 31, 41]",848116145167316412,Na6Nb2Ga6Si5S7O48
Na6Ta2Ga6Si5S7O48,mp-2716114,2.0891,1.50989242,0.09446023277027127,"{11: 6, 73: 2, 31: 6, 14: 5, 16: 7, 8: 48}","[8, 11, 14, 16, 31, 73]",848116145167316732,Na6Ta2Ga6Si5S7O48
Na6In4Si5Ge4S7O48,mp-2716059,1.283,2.45902243,0.13935128065315627,"{11: 6, 49: 4, 14: 5, 32: 4, 16: 7, 8: 48}","[8, 11, 14, 16, 32, 49]",848116145167324494,Na6In4Si5Ge4S7O48
Na6Zr4In4Si5S7O48,mp-2715956,2.0968,1.98262311,0.0782111669594574,"{11: 6, 40: 4, 49: 4, 14: 5, 16: 7, 8: 48}","[8, 11, 14, 16, 40, 49]",848116145167404494,Na6Zr4In4Si5S7O48
Na6La4Zr4Si5S7O48,mp-2715851,2.9273000000000002,1.54568917,0.10046252051801563,"{11: 6, 57: 4, 40: 4, 14: 5, 16: 7, 8: 48}","[8, 11, 14, 16, 40, 57]",848116145167404574,Na6La4Zr4Si5S7O48
Na6Nb2In6Si5S7O48,mp-2716064,1.0469999999999997,1.85610343,0.09747493250000261,"{11: 6, 41: 2, 49: 6, 14: 5, 16: 7, 8: 48}","[8, 11, 14, 16, 41, 49]",848116145167412496,Na6Nb2In6Si5S7O48
Na6La6Nb2Si5S7O48,mp-2715914,1.0102000000000002,1.50466575,0.13861262972222121,"{11: 6, 57: 6, 41: 2, 14: 5, 16: 7, 8: 48}","[8, 11, 14, 16, 41, 57]",848116145167412576,Na6La6Nb2Si5S7O48
Na6In4Si5Sn4S7O48,mp-2715898,1.4896000000000003,2.62715911,0.10482247664414235,"{11: 6, 49: 4, 14: 5, 50: 4, 16: 7, 8: 48}","[8, 11, 14, 16, 49, 50]",848116145167494504,Na6In4Si5Sn4S7O48
Na6Hf4In4Si5S7O48,mp-2716118,2.0144,2.05740872,0.07522707340089951,"{11: 6, 72: 4, 49: 4, 14: 5, 16: 7, 8: 48}","[8, 11, 14, 16, 49, 72]",848116145167494724,Na6Hf4In4Si5S7O48
Na6Ta2In6Si5S7O48,mp-2715864,1.9131,1.87132476,0.09918947123874133,"{11: 6, 73: 2, 49: 6, 14: 5, 16: 7, 8: 48}","[8, 11, 14, 16, 49, 73]",848116145167496732,Na6Ta2In6Si5S7O48
Na6La4Si5Sn4S7O48,mp-2716094,1.3003000000000002,2.20171534,0.13902553787537553,"{11: 6, 57: 4, 14: 5, 50: 4, 16: 7, 8: 48}","[8, 11, 14, 16, 50, 57]",848116145167504574,Na6La4Si5Sn4S7O48