formula,material_id,band_gap,efermi,energy_above_hull,comp_atoms,sorted_keys_comp_atoms,comp_number,new_formula
PrSiAs3,mp-1202224,0.0,4.57058491,0.03063554674999658,"{59: 1, 14: 1, 33: 3}","[14, 33, 59]",141333591,Pr1Si1As3
Hf2SiAs3,mp-1224317,0.0,6.8132761,0.0,"{72: 2, 14: 1, 33: 3}","[14, 33, 72]",141333722,Hf2Si1As3
Sr4SiAs4,mp-1196120,1.1494999999999997,2.92714578,0.0,"{38: 4, 14: 1, 33: 4}","[14, 33, 38]",141334384,Sr4Si1As4
ZrSiSe,mp-4628,0.0,6.55261372,0.0,"{40: 1, 14: 1, 34: 1}","[14, 34, 40]",141341401,Zr1Si1Se1
HfSiSe,mp-13962,0.0,6.98460327,0.0,"{72: 1, 14: 1, 34: 1}","[14, 34, 72]",141341721,Hf1Si1Se1
SiPtSe,mp-1103261,0.7878999999999996,6.14700685,0.0,"{14: 1, 78: 1, 34: 1}","[14, 34, 78]",141341781,Si1Pt1Se1
ThSiSe,mp-1076936,0.0,6.78054454,0.0,"{90: 1, 14: 1, 34: 1}","[14, 34, 90]",141341901,Th1Si1Se1
USiSe,mp-1025140,0.0,8.820008,0.055679852777775096,"{92: 1, 14: 1, 34: 1}","[14, 34, 92]",141341921,U1Si1Se1
SiSe2,mp-1250007,2.4771,3.26404458,0.0,"{14: 1, 34: 2}","[14, 34]",141342,Si1Se2
Zr2SiSe2,mp-1207471,0.0,3.76973383,1.4719584834999964,"{40: 2, 14: 1, 34: 2}","[14, 34, 40]",141342402,Zr2Si1Se2
Tl2SiSe3,mp-14241,1.6827999999999999,2.42833289,0.0,"{81: 2, 14: 1, 34: 3}","[14, 34, 81]",141343812,Tl2Si1Se3
CsCeSiSe4,mp-573969,0.2913000000000001,3.5039947,0.0,"{55: 1, 58: 1, 14: 1, 34: 4}","[14, 34, 55, 58]",141344551581,Cs1Ce1Si1Se4
Cs2SiSe4,mp-637251,1.9385000000000003,0.85687395,0.0,"{55: 2, 14: 1, 34: 4}","[14, 34, 55]",141344552,Cs2Si1Se4
Cs4SiSe4,mp-29834,2.2150999999999996,0.93656231,0.0,"{55: 4, 14: 1, 34: 4}","[14, 34, 55]",141344554,Cs4Si1Se4
Tl2SiHgSe4,mp-1079426,0.9420999999999999,2.69862584,0.021743403749998613,"{81: 2, 14: 1, 80: 1, 34: 4}","[14, 34, 80, 81]",141344801812,Tl2Si1Hg1Se4
Tl4SiSe4,mp-28334,1.5277000000000003,2.83467945,0.0,"{81: 4, 14: 1, 34: 4}","[14, 34, 81]",141344814,Tl4Si1Se4
Si(PbSe2)2,mp-27532,1.8131000000000004,2.49932984,0.0,"{14: 1, 82: 2, 34: 4}","[14, 34, 82]",141344822,Si1Pb2Se4
Si13Rh20,mp-1219339,0.0,8.28961488,0.05579027204545639,"{14: 13, 45: 20}","[14, 45]",14134520,Si13Rh20
In2Si(AgSe3)2,mp-640614,0.476,2.68591003,0.01053627011363556,"{49: 2, 14: 1, 47: 2, 34: 6}","[14, 34, 47, 49]",141346472492,In2Si1Ag2Se6
SiAg6HgSe6,mp-1219355,0.10210000000000008,1.78017493,0.0,"{14: 1, 47: 6, 80: 1, 34: 6}","[14, 34, 47, 80]",141346476801,Si1Ag6Hg1Se6
Cd4SiSe6,mp-17791,0.8215999999999999,1.24671906,0.013210759545454476,"{48: 4, 14: 1, 34: 6}","[14, 34, 48]",141346484,Cd4Si1Se6
Si(Hg2Se3)2,mp-18230,0.1443000000000001,1.39863504,0.016783711363636655,"{14: 1, 80: 4, 34: 6}","[14, 34, 80]",141346804,Si1Hg4Se6
La3SiAgSe7,mp-6485,1.6531000000000002,4.69568614,0.0,"{57: 3, 14: 1, 47: 1, 34: 7}","[14, 34, 47, 57]",141347471573,La3Si1Ag1Se7
Ce3SiAgSe7,mp-18071,0.0,5.56090766,0.0,"{58: 3, 14: 1, 47: 1, 34: 7}","[14, 34, 47, 58]",141347471583,Ce3Si1Ag1Se7
Pr3SiAgSe7,mp-17389,1.4423000000000004,3.38166338,0.0,"{59: 3, 14: 1, 47: 1, 34: 7}","[14, 34, 47, 59]",141347471593,Pr3Si1Ag1Se7
Nd3SiAgSe7,mp-17827,1.4465,3.40623488,0.0,"{60: 3, 14: 1, 47: 1, 34: 7}","[14, 34, 47, 60]",141347471603,Nd3Si1Ag1Se7
SiBr2,mp-1195825,2.3639,-0.57421882,0.03712901333333285,"{14: 1, 35: 2}","[14, 35]",141352,Si1Br2
SiBr3,mp-1078181,3.8434,-1.32503561,0.0,"{14: 1, 35: 3}","[14, 35]",141353,Si1Br3
La3SiBr3,mp-29995,0.0,5.79770809,0.0,"{57: 3, 14: 1, 35: 3}","[14, 35, 57]",141353573,La3Si1Br3
Gd3SiBr3,mp-1212738,0.0,3.89520187,0.0,"{64: 3, 14: 1, 35: 3}","[14, 35, 64]",141353643,Gd3Si1Br3
Tb3SiBr3,mp-30232,0.0,4.24094043,0.0,"{65: 3, 14: 1, 35: 3}","[14, 35, 65]",141353653,Tb3Si1Br3
SiBr4,mp-570285,4.1057,-2.64325844,0.0,"{14: 1, 35: 4}","[14, 35]",141354,Si1Br4
Tb4SiBr6,mp-30283,0.0,2.35499955,0.0,"{65: 4, 14: 1, 35: 6}","[14, 35, 65]",141356654,Tb4Si1Br6
Ho3Si13Os4,mp-1202418,0.0,7.40824882,0.0784677346785756,"{67: 3, 14: 13, 76: 4}","[14, 67, 76]",1413673764,Ho3Si13Os4
Ho3Si13Ir4,mp-1201803,0.0,8.17050001,0.10344841025000573,"{67: 3, 14: 13, 77: 4}","[14, 67, 77]",1413673774,Ho3Si13Ir4
Er3Si13Os4,mp-1202967,0.0,7.33611585,0.06731513074999906,"{68: 3, 14: 13, 76: 4}","[14, 68, 76]",1413683764,Er3Si13Os4
Er3Si13Ir4,mp-1201402,0.0,8.12172456,0.07847438600000256,"{68: 3, 14: 13, 77: 4}","[14, 68, 77]",1413683774,Er3Si13Ir4
RbSi,mp-1074,1.3487999999999998,1.79153401,0.0,"{37: 1, 14: 1}","[14, 37]",141371,Rb1Si1
Lu3Si13Os4,mp-1202999,0.0,7.38866636,0.06613292475000154,"{71: 3, 14: 13, 76: 4}","[14, 71, 76]",1413713764,Lu3Si13Os4
Lu3Si13Ir4,mp-1202962,0.0,8.14984959,0.0896335564285815,"{71: 3, 14: 13, 77: 4}","[14, 71, 77]",1413713774,Lu3Si13Ir4
Rb3Si,mp-1186867,0.0,1.42318189,0.39126768906249976,"{37: 3, 14: 1}","[14, 37]",141373,Rb3Si1
SrSi,mp-2661,0.0,4.12475233,0.0,"{38: 1, 14: 1}","[14, 38]",141381,Sr1Si1
SrSiPd,mp-8843,0.0,4.38274317,0.0,"{38: 1, 14: 1, 46: 1}","[14, 38, 46]",141381461,Sr1Si1Pd1
SrCdSi,mp-962076,0.0,1.51938479,0.7475825500000011,"{38: 1, 48: 1, 14: 1}","[14, 38, 48]",141381481,Sr1Cd1Si1
SrSiPt,mp-971914,0.0,5.07837957,0.0,"{38: 1, 14: 1, 78: 1}","[14, 38, 78]",141381781,Sr1Si1Pt1
Sr2Si,mp-1106,0.3433999999999999,2.80569404,0.0,"{38: 2, 14: 1}","[14, 38]",141382,Sr2Si1
ZrSi,mp-11322,0.0,7.03939761,0.0,"{40: 1, 14: 1}","[14, 40]",141401,Zr1Si1
ZrNbSi,mp-1215262,0.0,6.0702574,0.29521189296296413,"{40: 1, 41: 1, 14: 1}","[14, 40, 41]",141401411,Zr1Nb1Si1
ZrSiMo,mp-1102520,0.0,7.28296912,0.0,"{40: 1, 14: 1, 42: 1}","[14, 40, 42]",141401421,Zr1Si1Mo1
ZrSiRu,mp-7544,0.0,7.14693476,0.0,"{40: 1, 14: 1, 44: 1}","[14, 40, 44]",141401441,Zr1Si1Ru1
ZrSiRu2,mp-1183042,0.2353000000000005,8.3293224,0.0,"{40: 1, 14: 1, 44: 2}","[14, 40, 44]",141401442,Zr1Si1Ru2
ZrSiPd,mp-1103414,0.0,6.44805704,0.0,"{40: 1, 14: 1, 46: 1}","[14, 40, 46]",141401461,Zr1Si1Pd1
ZrSiTe,mp-19917,0.0,6.49114322,0.0,"{40: 1, 14: 1, 52: 1}","[14, 40, 52]",141401521,Zr1Si1Te1
ZrTaSi,mp-1215255,0.0,6.34050351,0.3293564726388887,"{40: 1, 73: 1, 14: 1}","[14, 40, 73]",141401731,Zr1Ta1Si1
ZrSiW4,mp-1215210,0.0,6.25619098,0.599022829166671,"{40: 1, 14: 1, 74: 4}","[14, 40, 74]",141401744,Zr1Si1W4
ZrReSi,mp-1079238,0.0,7.15360778,0.0,"{40: 1, 75: 1, 14: 1}","[14, 40, 75]",141401751,Zr1Re1Si1
ZrSiOs,mp-1103293,0.0,7.13310906,0.0,"{40: 1, 14: 1, 76: 1}","[14, 40, 76]",141401761,Zr1Si1Os1
ZrSiIr,mp-1102869,0.0,7.79199711,0.0,"{40: 1, 14: 1, 77: 1}","[14, 40, 77]",141401771,Zr1Si1Ir1
ZrSiPt,mp-972187,0.0,7.53602546,0.0,"{40: 1, 14: 1, 78: 1}","[14, 40, 78]",141401781,Zr1Si1Pt1
Zr2Si,mp-1278,0.0,5.65898039,0.0,"{40: 2, 14: 1}","[14, 40]",141402,Zr2Si1
Zr2SiMo3,mp-1215536,0.0,6.76638171,0.05841705916666484,"{40: 2, 14: 1, 42: 3}","[14, 40, 42]",141402423,Zr2Si1Mo3
Zr2SiTe2,mp-1207035,0.0,4.99094547,1.232907492999999,"{40: 2, 14: 1, 52: 2}","[14, 40, 52]",141402522,Zr2Si1Te2
Zr3Si,mp-1200912,0.0,4.98298702,0.020884128124997403,"{40: 3, 14: 1}","[14, 40]",141403,Zr3Si1
Zr3SiMo8,mp-1215399,0.0,6.75636159,0.2638081320833372,"{40: 3, 14: 1, 42: 8}","[14, 40, 42]",141403428,Zr3Si1Mo8
Zr5SiSn3,mp-1106020,0.0,6.71388116,0.0,"{40: 5, 14: 1, 50: 3}","[14, 40, 50]",141405503,Zr5Si1Sn3
Zr5SiSb3,mp-542816,0.0,7.63393546,0.0,"{40: 5, 14: 1, 51: 3}","[14, 40, 51]",141405513,Zr5Si1Sb3
Zr5SiPb3,mp-1188445,0.0,6.28711317,0.0,"{40: 5, 14: 1, 82: 3}","[14, 40, 82]",141405823,Zr5Si1Pb3
Zr6SiI14,mp-1207498,1.084,2.94840601,0.0,"{40: 6, 14: 1, 53: 14}","[14, 40, 53]",1414065314,Zr6Si1I14
SiH4,mp-23739,6.562100000000001,-4.05406389,0.0,"{14: 1, 1: 4}","[1, 14]",14141,Si1H4
NbSiTc2,mp-864672,0.0,8.42809695,0.0,"{41: 1, 14: 1, 43: 2}","[14, 41, 43]",141411432,Nb1Si1Tc2
NbSiRu,mp-1188541,0.0,8.08703419,0.0,"{41: 1, 14: 1, 44: 1}","[14, 41, 44]",141411441,Nb1Si1Ru1
NbSiRu2,mp-1186228,0.0,9.09455844,0.06432627833333449,"{41: 1, 14: 1, 44: 2}","[14, 41, 44]",141411442,Nb1Si1Ru2
NbSiRh,mp-10470,0.0,7.52643173,0.0,"{41: 1, 14: 1, 45: 1}","[14, 41, 45]",141411451,Nb1Si1Rh1
NbSiPd,mp-22722,0.0,7.10556591,0.0,"{41: 1, 14: 1, 46: 1}","[14, 41, 46]",141411461,Nb1Si1Pd1
HfNbSi,mp-1224438,0.0,6.28308166,0.31904568027777813,"{72: 1, 41: 1, 14: 1}","[14, 41, 72]",141411721,Hf1Nb1Si1
NbReSi,mp-1189470,0.0,7.83871819,0.0,"{41: 1, 75: 1, 14: 1}","[14, 41, 75]",141411751,Nb1Re1Si1
NbSiIr,mp-21248,0.0,8.54833235,0.0,"{41: 1, 14: 1, 77: 1}","[14, 41, 77]",141411771,Nb1Si1Ir1
NbSiPt,mp-10469,0.0,8.26304721,0.0,"{41: 1, 14: 1, 78: 1}","[14, 41, 78]",141411781,Nb1Si1Pt1
Nb2SiSb2,mp-1206455,0.0,6.00219244,1.0475156833333337,"{41: 2, 14: 1, 51: 2}","[14, 41, 51]",141412512,Nb2Si1Sb2
Nb2SiTe4,mp-29072,0.0,5.64176766,0.0,"{41: 2, 14: 1, 52: 4}","[14, 41, 52]",141412524,Nb2Si1Te4
Nb3Si,mp-17848,0.0,6.08203106,0.012923379791665468,"{41: 3, 14: 1}","[14, 41]",141413,Nb3Si1
Nb3SiSnMo3,mp-1220572,0.0,7.57166742,0.030922685178573772,"{41: 3, 14: 1, 50: 1, 42: 3}","[14, 41, 42, 50]",141413423501,Nb3Si1Sn1Mo3
Nb3SiTe6,mp-505137,0.0,5.41602866,0.010886681000001452,"{41: 3, 14: 1, 52: 6}","[14, 41, 52]",141413526,Nb3Si1Te6
Nb4SiTe4,mp-1232409,0.16920000000000002,4.22140225,0.0,"{41: 4, 14: 1, 52: 4}","[14, 41, 52]",141414524,Nb4Si1Te4
Nb5SiSn2,mp-7557,0.0,7.50288486,0.0,"{41: 5, 14: 1, 50: 2}","[14, 41, 50]",141415502,Nb5Si1Sn2
Nb6SiSn,mp-1220364,0.0,6.45167668,0.07090126270833608,"{41: 6, 14: 1, 50: 1}","[14, 41, 50]",141416501,Nb6Si1Sn1
K4In9Si14,mp-1225988,0.0,4.73936967,0.20701436119122674,"{19: 4, 49: 9, 14: 14}","[14, 19, 49]",1414194499,K4In9Si14
SiMo,mp-972845,0.0,8.75968265,0.16316324178571762,"{14: 1, 42: 1}","[14, 42]",141421,Si1Mo1
SiTc2Mo,mp-1093599,0.0,-3.23786135,3.8498533624999993,"{14: 1, 43: 2, 42: 1}","[14, 42, 43]",141421432,Si1Tc2Mo1
HfSiMo,mp-22258,0.0,7.72749389,0.0,"{72: 1, 14: 1, 42: 1}","[14, 42, 72]",141421721,Hf1Si1Mo1
SiMo3,mp-1275,0.0,9.33351175,0.0,"{14: 1, 42: 3}","[14, 42]",141423,Si1Mo3
Hf10SiMo3,mp-1194467,0.0,5.34889811,0.03603499928571807,"{72: 10, 14: 1, 42: 3}","[14, 42, 72]",1414237210,Hf10Si1Mo3
Hf2SiMo3,mp-1224372,0.0,6.95430018,0.07790894958333539,"{72: 2, 14: 1, 42: 3}","[14, 42, 72]",141423722,Hf2Si1Mo3
Hf9SiMo4,mp-1194003,0.0,5.57734737,0.004125559285718339,"{72: 9, 14: 1, 42: 4}","[14, 42, 72]",141424729,Hf9Si1Mo4
Ho5(Co2Si7)2,mp-1203317,0.0,7.17340661,0.0,"{67: 5, 27: 4, 14: 14}","[14, 27, 67]",1414274675,Ho5Co4Si14
Er5(Co2Si7)2,mp-1199544,0.0,7.12581502,0.0,"{68: 5, 27: 4, 14: 14}","[14, 27, 68]",1414274685,Er5Co4Si14
Tm5(Co2Si7)2,mp-1196159,0.0,7.17195658,0.0,"{69: 5, 27: 4, 14: 14}","[14, 27, 69]",1414274695,Tm5Co4Si14
Lu5(Co2Si7)2,mp-17460,0.0,7.23816268,0.0,"{71: 5, 27: 4, 14: 14}","[14, 27, 71]",1414274715,Lu5Co4Si14
Hf3SiMo8,mp-1224428,0.0,6.96402666,0.2684848139583309,"{72: 3, 14: 1, 42: 8}","[14, 42, 72]",141428723,Hf3Si1Mo8
SiTc,mp-1079910,0.0,9.71316111,0.0,"{14: 1, 43: 1}","[14, 43]",141431,Si1Tc1
SiTc2Sb,mp-1097140,0.0,-3.27974556,2.8937364656250004,"{14: 1, 43: 2, 51: 1}","[14, 43, 51]",141432511,Si1Tc2Sb1
HfSiTc2,mp-1097298,0.121,-2.96622533,3.846294386874998,"{72: 1, 14: 1, 43: 2}","[14, 43, 72]",141432721,Hf1Si1Tc2
TaSiTc2,mp-1097178,0.14559999999999995,-3.29816768,4.118801984375001,"{73: 1, 14: 1, 43: 2}","[14, 43, 73]",141432731,Ta1Si1Tc2
SiTc2W,mp-972810,0.0,9.54450193,0.0,"{14: 1, 43: 2, 74: 1}","[14, 43, 74]",141432741,Si1Tc2W1
ReSiTc2,mp-1096536,0.0,-3.19819923,4.006940334374999,"{75: 1, 14: 1, 43: 2}","[14, 43, 75]",141432751,Re1Si1Tc2
PaSiTc2,mp-862814,0.0,10.66995931,0.0,"{91: 1, 14: 1, 43: 2}","[14, 43, 91]",141432911,Pa1Si1Tc2
SiTc3,mp-972784,0.0,9.54487304,0.135101341875,"{14: 1, 43: 3}","[14, 43]",141433,Si1Tc3
SiTc4,mp-1219219,0.0,9.0805622,0.3484071784999969,"{14: 1, 43: 4}","[14, 43]",141434,Si1Tc4
SiRu,mp-189,0.22989999999999888,9.86658189,0.0,"{14: 1, 44: 1}","[14, 44]",141441,Si1Ru1
LaSiRu,mp-4579,0.0,8.08482979,0.0,"{57: 1, 14: 1, 44: 1}","[14, 44, 57]",141441571,La1Si1Ru1
CeSiRu,mp-8653,0.0,8.16371658,0.0,"{58: 1, 14: 1, 44: 1}","[14, 44, 58]",141441581,Ce1Si1Ru1
PrSiRu,mp-8654,0.0,5.75050045,0.0,"{59: 1, 14: 1, 44: 1}","[14, 44, 59]",141441591,Pr1Si1Ru1
NdSiRu,mp-5239,0.0,5.75525641,0.0,"{60: 1, 14: 1, 44: 1}","[14, 44, 60]",141441601,Nd1Si1Ru1
SmSiRu,mp-8655,0.0,5.62561605,0.0,"{62: 1, 14: 1, 44: 1}","[14, 44, 62]",141441621,Sm1Si1Ru1
GdSiRu,mp-19875,0.0,5.6213355,0.0,"{64: 1, 14: 1, 44: 1}","[14, 44, 64]",141441641,Gd1Si1Ru1
TbSiRu,mp-20645,0.0,6.27902686,0.0,"{65: 1, 14: 1, 44: 1}","[14, 44, 65]",141441651,Tb1Si1Ru1
DySiRu,mp-19873,0.0,6.26802407,0.0,"{66: 1, 14: 1, 44: 1}","[14, 44, 66]",141441661,Dy1Si1Ru1
HoSiRu,mp-22497,0.0,6.24724426,0.0,"{67: 1, 14: 1, 44: 1}","[14, 44, 67]",141441671,Ho1Si1Ru1
ErSiRu,mp-22247,0.0,6.25376389,0.0,"{68: 1, 14: 1, 44: 1}","[14, 44, 68]",141441681,Er1Si1Ru1
TmSiRu,mp-20308,0.0,6.2344091,0.0,"{69: 1, 14: 1, 44: 1}","[14, 44, 69]",141441691,Tm1Si1Ru1
LuSiRu,mp-754955,0.0,6.23066315,0.0,"{71: 1, 14: 1, 44: 1}","[14, 44, 71]",141441711,Lu1Si1Ru1
HfSiRu,mp-1212161,0.0,7.67053192,0.0,"{72: 1, 14: 1, 44: 1}","[14, 44, 72]",141441721,Hf1Si1Ru1
TaSiRu,mp-1189212,0.0,8.52599028,0.0,"{73: 1, 14: 1, 44: 1}","[14, 44, 73]",141441731,Ta1Si1Ru1
USiRu,mp-1102216,0.0,10.83143037,0.0,"{92: 1, 14: 1, 44: 1}","[14, 44, 92]",141441921,U1Si1Ru1
SiRu2,mp-10025,0.0,9.1108581,0.03698515583333162,"{14: 1, 44: 2}","[14, 44]",141442,Si1Ru2
HfSiRu2,mp-866062,0.16949999999999932,8.76582726,0.0,"{72: 1, 14: 1, 44: 2}","[14, 44, 72]",141442721,Hf1Si1Ru2
TaSiRu2,mp-1187251,0.0,9.38711468,0.03193865020833542,"{73: 1, 14: 1, 44: 2}","[14, 44, 73]",141442731,Ta1Si1Ru2
SiRh,mp-818,0.0,8.41254696,0.0,"{14: 1, 45: 1}","[14, 45]",141451,Si1Rh1
Ce4SiRh12,mp-1190081,0.0,7.67477254,0.0,"{58: 4, 14: 1, 45: 12}","[14, 45, 58]",1414512584,Ce4Si1Rh12
LaSiRh,mp-1103155,0.0,7.8500595,0.0,"{57: 1, 14: 1, 45: 1}","[14, 45, 57]",141451571,La1Si1Rh1
CeSiRh,mp-1213785,0.0,7.5891741,0.06945585041666558,"{58: 1, 14: 1, 45: 1}","[14, 45, 58]",141451581,Ce1Si1Rh1
TbSiRh,mp-1239087,0.0,6.56795023,0.15679320777777672,"{65: 1, 14: 1, 45: 1}","[14, 45, 65]",141451651,Tb1Si1Rh1
DySiRh,mp-1212831,0.0,6.16253853,0.0,"{66: 1, 14: 1, 45: 1}","[14, 45, 66]",141451661,Dy1Si1Rh1
HoSiRh,mp-20675,0.0,6.09885821,0.0,"{67: 1, 14: 1, 45: 1}","[14, 45, 67]",141451671,Ho1Si1Rh1
ErSiRh,mp-22114,0.0,6.12373612,0.0,"{68: 1, 14: 1, 45: 1}","[14, 45, 68]",141451681,Er1Si1Rh1
LuSiRh,mp-22801,0.0,6.11832945,0.0,"{71: 1, 14: 1, 45: 1}","[14, 45, 71]",141451711,Lu1Si1Rh1
HfSiRh,mp-13472,0.0,7.24150803,0.0,"{72: 1, 14: 1, 45: 1}","[14, 45, 72]",141451721,Hf1Si1Rh1
TaSiRh,mp-20436,0.0,8.02028243,0.0,"{73: 1, 14: 1, 45: 1}","[14, 45, 73]",141451731,Ta1Si1Rh1
ThSiRh,mp-1206329,0.0,7.59829689,0.0,"{90: 1, 14: 1, 45: 1}","[14, 45, 90]",141451901,Th1Si1Rh1
USiRh,mp-20184,0.0,10.50808952,0.017434692500003734,"{92: 1, 14: 1, 45: 1}","[14, 45, 92]",141451921,U1Si1Rh1
SiRh2,mp-20418,0.0,8.31015071,0.0,"{14: 1, 45: 2}","[14, 45]",141452,Si1Rh2
CeSiRh2,mp-31078,0.0,7.744796,0.0,"{58: 1, 14: 1, 45: 2}","[14, 45, 58]",141452581,Ce1Si1Rh2
ErSiRh2,mp-1213010,0.0,6.52701179,0.0,"{68: 1, 14: 1, 45: 2}","[14, 45, 68]",141452681,Er1Si1Rh2
SiRh3,mp-978552,0.0,8.13268968,0.1960691618750019,"{14: 1, 45: 3}","[14, 45]",141453,Si1Rh3
Pr2SiRh3,mp-1072391,0.0,6.4354015,0.005918560416667162,"{59: 2, 14: 1, 45: 3}","[14, 45, 59]",141453592,Pr2Si1Rh3
Er2SiRh3,mp-1077251,0.0,6.09824586,0.009062561111112366,"{68: 2, 14: 1, 45: 3}","[14, 45, 68]",141453682,Er2Si1Rh3
SiPd,mp-389,0.0,7.88868945,0.001982122083333593,"{14: 1, 46: 1}","[14, 46]",141461,Si1Pd1
Ce2SiPd14,mp-1203477,0.0,5.68188262,0.0,"{58: 2, 14: 1, 46: 14}","[14, 46, 58]",1414614582,Ce2Si1Pd14
LaSiPd,mp-1211246,0.0,7.67532693,0.0,"{57: 1, 14: 1, 46: 1}","[14, 46, 57]",141461571,La1Si1Pd1
CeSiPd,mp-1213807,0.0,7.55232397,0.0,"{58: 1, 14: 1, 46: 1}","[14, 46, 58]",141461581,Ce1Si1Pd1
PrSiPd,mp-29565,0.0,5.35565378,0.0,"{59: 1, 14: 1, 46: 1}","[14, 46, 59]",141461591,Pr1Si1Pd1
NdSiPd,mp-1210017,0.0,5.49952252,0.0,"{60: 1, 14: 1, 46: 1}","[14, 46, 60]",141461601,Nd1Si1Pd1
Pm2SiPd,mp-865468,0.0,4.82816032,0.0,"{61: 2, 14: 1, 46: 1}","[14, 46, 61]",141461612,Pm2Si1Pd1
SmSiPd,mp-1208992,0.0,5.55801157,0.0,"{62: 1, 14: 1, 46: 1}","[14, 46, 62]",141461621,Sm1Si1Pd1
EuSiPd,mp-1102440,0.0,4.44029041,0.0,"{63: 1, 14: 1, 46: 1}","[14, 46, 63]",141461631,Eu1Si1Pd1
GdSiPd,mp-1224641,0.0,5.55186009,0.0,"{64: 1, 14: 1, 46: 1}","[14, 46, 64]",141461641,Gd1Si1Pd1
TbSiPd,mp-1208374,0.0,5.75420063,0.0,"{65: 1, 14: 1, 46: 1}","[14, 46, 65]",141461651,Tb1Si1Pd1
ErSiPd,mp-17093,0.0,5.86425221,0.0,"{68: 1, 14: 1, 46: 1}","[14, 46, 68]",141461681,Er1Si1Pd1
HfSiPd,mp-10457,0.0,6.87207362,0.0,"{72: 1, 14: 1, 46: 1}","[14, 46, 72]",141461721,Hf1Si1Pd1
Ac2SiPd,mp-865855,0.0,6.92562069,0.0,"{89: 2, 14: 1, 46: 1}","[14, 46, 89]",141461892,Ac2Si1Pd1
USiPd,mp-21191,0.0,9.56171362,0.01679640132352489,"{92: 1, 14: 1, 46: 1}","[14, 46, 92]",141461921,U1Si1Pd1
SiPd2,mp-697068,0.0,6.70724752,0.0,"{14: 1, 46: 2}","[14, 46]",141462,Si1Pd2
CeSiPd2,mp-1181683,0.0,7.56688466,0.015164114583342325,"{58: 1, 14: 1, 46: 2}","[14, 46, 58]",141462581,Ce1Si1Pd2
PrSiPd2,mp-1189045,0.0,5.74382697,0.0,"{59: 1, 14: 1, 46: 2}","[14, 46, 59]",141462591,Pr1Si1Pd2
NdSiPd2,mp-1209845,0.0,5.59639445,0.0,"{60: 1, 14: 1, 46: 2}","[14, 46, 60]",141462601,Nd1Si1Pd2
SmSiPd2,mp-1190170,0.0,5.45594569,0.0,"{62: 1, 14: 1, 46: 2}","[14, 46, 62]",141462621,Sm1Si1Pd2
TbSiPd2,mp-1208310,0.0,5.74436476,0.0,"{65: 1, 14: 1, 46: 2}","[14, 46, 65]",141462651,Tb1Si1Pd2
DySiPd2,mp-1105784,0.0,5.77235918,0.0,"{66: 1, 14: 1, 46: 2}","[14, 46, 66]",141462661,Dy1Si1Pd2
Dy2SiPd2,mp-1225435,0.0,4.42782851,0.12092983800000123,"{66: 2, 14: 1, 46: 2}","[14, 46, 66]",141462662,Dy2Si1Pd2
HoSiPd2,mp-1105686,0.0,5.65671326,0.0,"{67: 1, 14: 1, 46: 2}","[14, 46, 67]",141462671,Ho1Si1Pd2
Ho2SiPd2,mp-1224237,0.0,4.38014184,0.13645789937499941,"{67: 2, 14: 1, 46: 2}","[14, 46, 67]",141462672,Ho2Si1Pd2
ErSiPd2,mp-3352,0.0,5.69010277,0.0,"{68: 1, 14: 1, 46: 2}","[14, 46, 68]",141462681,Er1Si1Pd2
TmSiPd2,mp-1188299,0.0,5.6440108,0.0,"{69: 1, 14: 1, 46: 2}","[14, 46, 69]",141462691,Tm1Si1Pd2
Tm2SiPd2,mp-1216871,0.0,4.4149026,0.1289990965000012,"{69: 2, 14: 1, 46: 2}","[14, 46, 69]",141462692,Tm2Si1Pd2
LuSiPd2,mp-1189950,0.0,5.72102054,0.0,"{71: 1, 14: 1, 46: 2}","[14, 46, 71]",141462711,Lu1Si1Pd2
SiPd3,mp-20622,0.0,5.9769416,0.0,"{14: 1, 46: 3}","[14, 46]",141463,Si1Pd3
SiPd4,mp-1219217,0.0,5.15392665,0.2304081706666672,"{14: 1, 46: 4}","[14, 46]",141464,Si1Pd4
SiSnPd5,mp-1077994,0.0,6.3257879,0.0,"{14: 1, 50: 1, 46: 5}","[14, 46, 50]",141465501,Si1Sn1Pd5
La3SiPd5,mp-571217,0.0,7.32774405,0.0,"{57: 3, 14: 1, 46: 5}","[14, 46, 57]",141465573,La3Si1Pd5
Ce3SiPd5,mp-30155,0.0,6.84424261,0.0,"{58: 3, 14: 1, 46: 5}","[14, 46, 58]",141465583,Ce3Si1Pd5
LaSiAg,mp-1222760,0.0,6.60459545,0.021083785974361113,"{57: 1, 14: 1, 47: 1}","[14, 47, 57]",141471571,La1Si1Ag1
CeSiAg,mp-1226539,0.0,6.34627718,0.03267367472222116,"{58: 1, 14: 1, 47: 1}","[14, 47, 58]",141471581,Ce1Si1Ag1
PrSiAg,mp-1206746,0.0,4.49050203,0.040683570602565666,"{59: 1, 14: 1, 47: 1}","[14, 47, 59]",141471591,Pr1Si1Ag1
NdSiAg,mp-37949,0.0,4.76245225,0.0,"{60: 1, 14: 1, 47: 1}","[14, 47, 60]",141471601,Nd1Si1Ag1
Pm2SiAg,mp-863743,0.0,4.36533474,0.0,"{61: 2, 14: 1, 47: 1}","[14, 47, 61]",141471612,Pm2Si1Ag1
SmSiAg,mp-972524,0.0,4.69688346,0.0,"{62: 1, 14: 1, 47: 1}","[14, 47, 62]",141471621,Sm1Si1Ag1
EuSiAg,mp-1225142,0.0,3.65042872,0.10946758944444213,"{63: 1, 14: 1, 47: 1}","[14, 47, 63]",141471631,Eu1Si1Ag1
GdSiAg,mp-1079690,0.0,4.01204303,0.0,"{64: 1, 14: 1, 47: 1}","[14, 47, 64]",141471641,Gd1Si1Ag1
DySiAg,mp-1095130,0.0,5.10670827,0.0,"{66: 1, 14: 1, 47: 1}","[14, 47, 66]",141471661,Dy1Si1Ag1
ErSiAg,mp-1084844,0.0,5.13912121,0.0,"{68: 1, 14: 1, 47: 1}","[14, 47, 68]",141471681,Er1Si1Ag1
TmSiAg,mp-1079093,0.0,5.13669164,0.0,"{69: 1, 14: 1, 47: 1}","[14, 47, 69]",141471691,Tm1Si1Ag1
LuSiAg,mp-1079794,0.0,5.21166612,0.0,"{71: 1, 14: 1, 47: 1}","[14, 47, 71]",141471711,Lu1Si1Ag1
SiAgPt5,mp-1025220,0.0,6.63156543,0.05828317238094627,"{14: 1, 47: 1, 78: 5}","[14, 47, 78]",141471785,Si1Ag1Pt5
SiAg2,mp-1095654,0.0,3.88423306,0.5365995997222193,"{14: 1, 47: 2}","[14, 47]",141472,Si1Ag2
SiAg3,mp-1219243,0.0,4.78986044,0.18485433999999756,"{14: 1, 47: 3}","[14, 47]",141473,Si1Ag3
Pm2CdSi,mp-863654,0.0,4.26988914,0.0,"{61: 2, 48: 1, 14: 1}","[14, 48, 61]",141481612,Pm2Cd1Si1