formula,material_id,band_gap,efermi,energy_above_hull,comp_atoms,sorted_keys_comp_atoms,comp_number,new_formula
Na6La4Hf4Si5S7O48,mp-2715850,3.4536999999999995,1.62442072,0.09703790969594461,"{11: 6, 57: 4, 72: 4, 14: 5, 16: 7, 8: 48}","[8, 11, 14, 16, 57, 72]",848116145167574724,Na6La4Hf4Si5S7O48
Na6La6Ta2Si5S7O48,mp-2716047,1.7239000000000002,1.71361844,0.13719621893393175,"{11: 6, 57: 6, 73: 2, 14: 5, 16: 7, 8: 48}","[8, 11, 14, 16, 57, 73]",848116145167576732,Na6La6Ta2Si5S7O48
Na6CaTi7Si6(SO8)6,mp-2714789,1.6803,1.32030468,0.07628311389639109,"{11: 6, 20: 1, 22: 7, 14: 6, 16: 6, 8: 48}","[8, 11, 14, 16, 20, 22]",848116146166201227,Na6Ca1Ti7Si6S6O48
Na6CaSi6Ge7(SO8)6,mp-2714629,1.0855000000000001,1.98344359,0.1841389189189231,"{11: 6, 20: 1, 14: 6, 32: 7, 16: 6, 8: 48}","[8, 11, 14, 16, 20, 32]",848116146166201327,Na6Ca1Si6Ge7S6O48
Na6CaZr7Si6(SO8)6,mp-2714675,2.9371,1.11547736,0.0681294622522488,"{11: 6, 20: 1, 40: 7, 14: 6, 16: 6, 8: 48}","[8, 11, 14, 16, 20, 40]",848116146166201407,Na6Ca1Zr7Si6S6O48
Na6CaSi6Sn7(SO8)6,mp-2714871,1.2018,2.43728521,0.12779943943694505,"{11: 6, 20: 1, 14: 6, 50: 7, 16: 6, 8: 48}","[8, 11, 14, 16, 20, 50]",848116146166201507,Na6Ca1Si6Sn7S6O48
Na6CaHf7Si6(SO8)6,mp-2714874,3.5553999999999997,1.33554072,0.06677915797297551,"{11: 6, 20: 1, 72: 7, 14: 6, 16: 6, 8: 48}","[8, 11, 14, 16, 20, 72]",848116146166201727,Na6Ca1Hf7Si6S6O48
Na6Sc5Nb3Si6(SO8)6,mp-2714681,1.5333,1.47790512,0.08052683400900928,"{11: 6, 21: 5, 41: 3, 14: 6, 16: 6, 8: 48}","[8, 11, 14, 16, 21, 41]",848116146166215413,Na6Sc5Nb3Si6S6O48
Na6Sc5Ta3Si6(SO8)6,mp-2714672,2.327,1.60691497,0.08104424657657816,"{11: 6, 21: 5, 73: 3, 14: 6, 16: 6, 8: 48}","[8, 11, 14, 16, 21, 73]",848116146166215733,Na6Sc5Ta3Si6S6O48
Na6Ti7ZnSi6(SO8)6,mp-2714648,1.6999,1.49818991,0.06933812568130282,"{11: 6, 22: 7, 30: 1, 14: 6, 16: 6, 8: 48}","[8, 11, 14, 16, 22, 30]",848116146166227301,Na6Ti7Zn1Si6S6O48
Na6ZnSi6Ge7(SO8)6,mp-2716474,1.4191,2.06947806,0.1705505248479744,"{11: 6, 30: 1, 14: 6, 32: 7, 16: 6, 8: 48}","[8, 11, 14, 16, 30, 32]",848116146166301327,Na6Zn1Si6Ge7S6O48
Na6Zr7ZnSi6(SO8)6,mp-2716295,2.8953,1.1497046,0.06684037234234186,"{11: 6, 40: 7, 30: 1, 14: 6, 16: 6, 8: 48}","[8, 11, 14, 16, 30, 40]",848116146166301407,Na6Zr7Zn1Si6S6O48
Na6ZnSi6Sn7(SO8)6,mp-2714688,1.3171,2.65133782,0.12410201658227571,"{11: 6, 30: 1, 14: 6, 50: 7, 16: 6, 8: 48}","[8, 11, 14, 16, 30, 50]",848116146166301507,Na6Zn1Si6Sn7S6O48
Na6Hf7ZnSi6(SO8)6,mp-2714727,3.6410000000000005,1.37257631,0.05745193590090203,"{11: 6, 72: 7, 30: 1, 14: 6, 16: 6, 8: 48}","[8, 11, 14, 16, 30, 72]",848116146166301727,Na6Hf7Zn1Si6S6O48
Na6Nb3Ga5Si6(SO8)6,mp-2714622,1.5681,1.79610196,0.09904514943693421,"{11: 6, 41: 3, 31: 5, 14: 6, 16: 6, 8: 48}","[8, 11, 14, 16, 31, 41]",848116146166315413,Na6Nb3Ga5Si6S6O48
Na6Ta3Ga5Si6(SO8)6,mp-2714822,2.2882000000000002,1.97681202,0.0914540895495497,"{11: 6, 73: 3, 31: 5, 14: 6, 16: 6, 8: 48}","[8, 11, 14, 16, 31, 73]",848116146166315733,Na6Ta3Ga5Si6S6O48
Na6Nb3In5Si6(SO8)6,mp-2714670,1.4248999999999998,1.86029045,0.09728883322072424,"{11: 6, 41: 3, 49: 5, 14: 6, 16: 6, 8: 48}","[8, 11, 14, 16, 41, 49]",848116146166413495,Na6Nb3In5Si6S6O48
Na6La5Nb3Si6(SO8)6,mp-2714829,1.4906000000000001,1.410187,0.1482113963963947,"{11: 6, 57: 5, 41: 3, 14: 6, 16: 6, 8: 48}","[8, 11, 14, 16, 41, 57]",848116146166413575,Na6La5Nb3Si6S6O48
Na6Ta3In5Si6(SO8)6,mp-2716329,1.9993,2.16617041,0.10088480387387566,"{11: 6, 73: 3, 49: 5, 14: 6, 16: 6, 8: 48}","[8, 11, 14, 16, 49, 73]",848116146166495733,Na6Ta3In5Si6S6O48
Na6Sc4Nb4Si7S5O48,mp-2713062,1.6408,1.48969714,0.07850543432754176,"{11: 6, 21: 4, 41: 4, 14: 7, 16: 5, 8: 48}","[8, 11, 14, 16, 21, 41]",848116147165214414,Na6Sc4Nb4Si7S5O48
Na6Sc4Ta4Si7S5O48,mp-2712911,2.3405000000000005,1.58658163,0.07485958497747447,"{11: 6, 21: 4, 73: 4, 14: 7, 16: 5, 8: 48}","[8, 11, 14, 16, 21, 73]",848116147165214734,Na6Sc4Ta4Si7S5O48
Na6Ti4Si7Ge4S5O48,mp-2713088,1.8306000000000002,1.84549379,0.12639381483107925,"{11: 6, 22: 4, 14: 7, 32: 4, 16: 5, 8: 48}","[8, 11, 14, 16, 22, 32]",848116147165224324,Na6Ti4Si7Ge4S5O48
Na6Zr4Ti4Si7S5O48,mp-2712907,1.404,1.45851264,0.06860596230855798,"{11: 6, 40: 4, 22: 4, 14: 7, 16: 5, 8: 48}","[8, 11, 14, 16, 22, 40]",848116147165224404,Na6Zr4Ti4Si7S5O48
Na6Ti4Si7Sn4S5O48,mp-2712930,1.6596000000000002,2.27036386,0.0965103681193682,"{11: 6, 22: 4, 14: 7, 50: 4, 16: 5, 8: 48}","[8, 11, 14, 16, 22, 50]",848116147165224504,Na6Ti4Si7Sn4S5O48
Na6Hf4Ti4Si7S5O48,mp-2712849,1.7650000000000001,1.46498868,0.06322341175675916,"{11: 6, 72: 4, 22: 4, 14: 7, 16: 5, 8: 48}","[8, 11, 14, 16, 22, 72]",848116147165224724,Na6Hf4Ti4Si7S5O48
Na6Ti8Si7S5O48,mp-2712866,1.5145,1.57455263,0.06949392460585635,"{11: 6, 22: 8, 14: 7, 16: 5, 8: 48}","[8, 11, 14, 16, 22]",848116147165228,Na6Ti8Si7S5O48
Na6Nb4Ga4Si7S5O48,mp-2712952,1.7243,1.62846866,0.0880490959041147,"{11: 6, 41: 4, 31: 4, 14: 7, 16: 5, 8: 48}","[8, 11, 14, 16, 31, 41]",848116147165314414,Na6Nb4Ga4Si7S5O48
Na6Ta4Ga4Si7S5O48,mp-2712966,2.4055,1.90050001,0.08112263763513727,"{11: 6, 73: 4, 31: 4, 14: 7, 16: 5, 8: 48}","[8, 11, 14, 16, 31, 73]",848116147165314734,Na6Ta4Ga4Si7S5O48
Na6Zr4Si7Ge4S5O48,mp-2712912,1.1945000000000001,1.72295858,0.13556664247747552,"{11: 6, 40: 4, 14: 7, 32: 4, 16: 5, 8: 48}","[8, 11, 14, 16, 32, 40]",848116147165324404,Na6Zr4Si7Ge4S5O48
Na6Si7Sn4Ge4S5O48,mp-2712946,1.3640000000000003,2.42372871,0.1488549922297313,"{11: 6, 14: 7, 50: 4, 32: 4, 16: 5, 8: 48}","[8, 11, 14, 16, 32, 50]",848116147165324504,Na6Si7Sn4Ge4S5O48
Na6Hf4Si7Ge4S5O48,mp-2712872,2.1322,1.90183764,0.11701630504504745,"{11: 6, 72: 4, 14: 7, 32: 4, 16: 5, 8: 48}","[8, 11, 14, 16, 32, 72]",848116147165324724,Na6Hf4Si7Ge4S5O48
Na6Si7Ge8S5O48,mp-2713022,1.5779999999999998,2.37253195,0.16829965146396209,"{11: 6, 14: 7, 32: 8, 16: 5, 8: 48}","[8, 11, 14, 16, 32]",848116147165328,Na6Si7Ge8S5O48
Na6Zr4Si7Sn4S5O48,mp-2712859,1.5203999999999998,1.97429663,0.09979796693693821,"{11: 6, 40: 4, 14: 7, 50: 4, 16: 5, 8: 48}","[8, 11, 14, 16, 40, 50]",848116147165404504,Na6Zr4Si7Sn4S5O48
Na6Hf4Zr4Si7S5O48,mp-2713064,3.0495,1.29454179,0.060775964639640634,"{11: 6, 72: 4, 40: 4, 14: 7, 16: 5, 8: 48}","[8, 11, 14, 16, 40, 72]",848116147165404724,Na6Hf4Zr4Si7S5O48
Na6Zr8Si7S5O48,mp-2713014,2.7681,1.14217307,0.062280896036032374,"{11: 6, 40: 8, 14: 7, 16: 5, 8: 48}","[8, 11, 14, 16, 40]",848116147165408,Na6Zr8Si7S5O48
Na6Nb4In4Si7S5O48,mp-2713003,1.6787999999999998,1.60750776,0.07993787216538006,"{11: 6, 41: 4, 49: 4, 14: 7, 16: 5, 8: 48}","[8, 11, 14, 16, 41, 49]",848116147165414494,Na6Nb4In4Si7S5O48
Na6La4Nb4Si7S5O48,mp-2713048,1.9672999999999998,1.41540501,0.11128095185006703,"{11: 6, 57: 4, 41: 4, 14: 7, 16: 5, 8: 48}","[8, 11, 14, 16, 41, 57]",848116147165414574,Na6La4Nb4Si7S5O48
Na6Ta4In4Si7S5O48,mp-2713046,2.3168,1.98311731,0.07945228817567518,"{11: 6, 73: 4, 49: 4, 14: 7, 16: 5, 8: 48}","[8, 11, 14, 16, 49, 73]",848116147165494734,Na6Ta4In4Si7S5O48
Na6Hf4Si7Sn4S5O48,mp-2712864,2.2539000000000002,2.12594402,0.08383753738738609,"{11: 6, 72: 4, 14: 7, 50: 4, 16: 5, 8: 48}","[8, 11, 14, 16, 50, 72]",848116147165504724,Na6Hf4Si7Sn4S5O48
Na6Si7Sn8S5O48,mp-2712888,1.1458,2.74270678,0.12052177520269947,"{11: 6, 14: 7, 50: 8, 16: 5, 8: 48}","[8, 11, 14, 16, 50]",848116147165508,Na6Si7Sn8S5O48
Na6La4Ta4Si7S5O48,mp-2712845,2.7024,1.59978989,0.10559374022522583,"{11: 6, 57: 4, 73: 4, 14: 7, 16: 5, 8: 48}","[8, 11, 14, 16, 57, 73]",848116147165574734,Na6La4Ta4Si7S5O48
Na6Hf8Si7S5O48,mp-2712936,3.4294,1.41688662,0.056363342972971964,"{11: 6, 72: 8, 14: 7, 16: 5, 8: 48}","[8, 11, 14, 16, 72]",848116147165728,Na6Hf8Si7S5O48
Na6Sc2Nb6Si9(SO16)3,mp-2713059,2.1378999999999997,1.27745241,0.07548391618082206,"{11: 6, 21: 2, 41: 6, 14: 9, 16: 3, 8: 48}","[8, 11, 14, 16, 21, 41]",848116149163212416,Na6Sc2Nb6Si9S3O48
Na6Sc2Ta6Si9(SO16)3,mp-2712848,2.8327999999999998,1.47162599,0.06587783840089756,"{11: 6, 21: 2, 73: 6, 14: 9, 16: 3, 8: 48}","[8, 11, 14, 16, 21, 73]",848116149163212736,Na6Sc2Ta6Si9S3O48
Na6Ti4Nb4Si9(SO16)3,mp-2712870,2.0052,1.38382102,0.07158859559523556,"{11: 6, 22: 4, 41: 4, 14: 9, 16: 3, 8: 48}","[8, 11, 14, 16, 22, 41]",848116149163224414,Na6Ti4Nb4Si9S3O48
Na6Ta4Ti4Si9(SO16)3,mp-2713018,2.178,1.4171321,0.06099452979729314,"{11: 6, 73: 4, 22: 4, 14: 9, 16: 3, 8: 48}","[8, 11, 14, 16, 22, 73]",848116149163224734,Na6Ta4Ti4Si9S3O48
Na6Nb6Ga2Si9(SO16)3,mp-2713115,2.1058,1.22886913,0.08382351645108876,"{11: 6, 41: 6, 31: 2, 14: 9, 16: 3, 8: 48}","[8, 11, 14, 16, 31, 41]",848116149163312416,Na6Nb6Ga2Si9S3O48
Na6Ta6Ga2Si9(SO16)3,mp-2713120,2.9429,1.45659537,0.06925957042792419,"{11: 6, 73: 6, 31: 2, 14: 9, 16: 3, 8: 48}","[8, 11, 14, 16, 31, 73]",848116149163312736,Na6Ta6Ga2Si9S3O48
Na6Nb4Si9Ge4(SO16)3,mp-2713114,2.2441000000000004,1.56075443,0.11479335100063626,"{11: 6, 41: 4, 14: 9, 32: 4, 16: 3, 8: 48}","[8, 11, 14, 16, 32, 41]",848116149163324414,Na6Nb4Si9Ge4S3O48
Na6Ta4Si9Ge4(SO16)3,mp-2713049,2.6364,1.56943936,0.10286662970719895,"{11: 6, 73: 4, 14: 9, 32: 4, 16: 3, 8: 48}","[8, 11, 14, 16, 32, 73]",848116149163324734,Na6Ta4Si9Ge4S3O48
Na6Zr4Nb4Si9(SO16)3,mp-2712972,2.3282000000000003,0.97892933,0.06752646861329303,"{11: 6, 40: 4, 41: 4, 14: 9, 16: 3, 8: 48}","[8, 11, 14, 16, 40, 41]",848116149163404414,Na6Zr4Nb4Si9S3O48
Na6Zr4Ta4Si9(SO16)3,mp-2712856,3.1460999999999997,1.20068795,0.05795271002251923,"{11: 6, 40: 4, 73: 4, 14: 9, 16: 3, 8: 48}","[8, 11, 14, 16, 40, 73]",848116149163404734,Na6Zr4Ta4Si9S3O48
Na6Nb4Si9Sn4(SO16)3,mp-2712975,2.2753,1.67120088,0.08343819127090679,"{11: 6, 41: 4, 14: 9, 50: 4, 16: 3, 8: 48}","[8, 11, 14, 16, 41, 50]",848116149163414504,Na6Nb4Si9Sn4S3O48
Na6Hf4Nb4Si9(SO16)3,mp-2713090,2.3064,1.0745641,0.05989544280243919,"{11: 6, 72: 4, 41: 4, 14: 9, 16: 3, 8: 48}","[8, 11, 14, 16, 41, 72]",848116149163414724,Na6Hf4Nb4Si9S3O48
Na6Nb6In2Si9(SO16)3,mp-2712980,2.1679999999999997,1.3374503,0.08196743289253483,"{11: 6, 41: 6, 49: 2, 14: 9, 16: 3, 8: 48}","[8, 11, 14, 16, 41, 49]",848116149163416492,Na6Nb6In2Si9S3O48
Na6La2Nb6Si9(SO16)3,mp-2713082,2.0006999999999997,1.46682711,0.10770087388352412,"{11: 6, 57: 2, 41: 6, 14: 9, 16: 3, 8: 48}","[8, 11, 14, 16, 41, 57]",848116149163416572,Na6La2Nb6Si9S3O48
Na6Ta6In2Si9(SO16)3,mp-2712825,2.8298999999999994,1.4957966,0.07612860074324068,"{11: 6, 73: 6, 49: 2, 14: 9, 16: 3, 8: 48}","[8, 11, 14, 16, 49, 73]",848116149163492736,Na6Ta6In2Si9S3O48
Na6Ta4Si9Sn4(SO16)3,mp-2712900,2.4753999999999996,1.84925803,0.07513479101350473,"{11: 6, 73: 4, 14: 9, 50: 4, 16: 3, 8: 48}","[8, 11, 14, 16, 50, 73]",848116149163504734,Na6Ta4Si9Sn4S3O48
Na6La2Ta6Si9(SO16)3,mp-2713006,2.6828,1.62496846,0.09881051434683918,"{11: 6, 57: 2, 73: 6, 14: 9, 16: 3, 8: 48}","[8, 11, 14, 16, 57, 73]",848116149163572736,Na6La2Ta6Si9S3O48
Na6Hf4Ta4Si9(SO16)3,mp-2713095,2.9975,1.19406118,0.05542658268018208,"{11: 6, 72: 4, 73: 4, 14: 9, 16: 3, 8: 48}","[8, 11, 14, 16, 72, 73]",848116149163724734,Na6Hf4Ta4Si9S3O48
Na9Zr8Si4(PO6)8,mp-720460,0.0,2.50310071,0.35252988793939455,"{11: 9, 40: 8, 14: 4, 15: 8, 8: 48}","[8, 11, 14, 15, 40]",848119144158408,Na9Zr8Si4P8O48
Mg17(SiO3)16,mp-757674,0.0,7.72688328,0.0929118300823033,"{12: 17, 14: 16, 8: 48}","[8, 12, 14]",84812171416,Mg17Si16O48
ErZr11Si11PO48,mp-690951,4.0268,2.92328891,0.008014760833333412,"{68: 1, 40: 11, 14: 11, 15: 1, 8: 48}","[8, 14, 15, 40, 68]",84814111514011681,Er1Zr11Si11P1O48
Ca19Si6S6(ClO24)2,mp-695095,3.9655000000000005,2.35165814,0.04496900058641984,"{20: 19, 14: 6, 16: 6, 17: 2, 8: 48}","[8, 14, 16, 17, 20]",8481461661722019,Ca19Si6S6Cl2O48
Ca18Nd2Si3P9(O16F)3,mp-534782,4.4125,2.30510143,0.010154602911637944,"{20: 18, 60: 2, 14: 3, 15: 9, 8: 48, 9: 3}","[8, 9, 14, 15, 20, 60]",848931431592018602,Ca18Nd2Si3P9O48F3
NaCa2SiO4F,mp-1173770,3.0452,1.71749124,0.19548127027777706,"{11: 1, 20: 2, 14: 1, 8: 4, 9: 1}","[8, 9, 11, 14, 20]",8491111141202,Na1Ca2Si1O4F1
Ca2SiO4F,mp-1201156,0.3509,1.59868908,0.11007730046875075,"{20: 2, 14: 1, 8: 4, 9: 1}","[8, 9, 14, 20]",8491141202,Ca2Si1O4F1
Ca3SiO4F,mp-1214083,0.0,6.73871472,0.1890411179861129,"{20: 3, 14: 1, 8: 4, 9: 1}","[8, 9, 14, 20]",8491141203,Ca3Si1O4F1
Mg8SiW9O49,mp-1198202,0.07499999999999996,-1.69488256,0.4002320354166704,"{12: 8, 14: 1, 74: 9, 8: 49}","[8, 12, 14, 74]",849128141749,Mg8Si1W9O49
Ti6In2Si2P12O49,mp-560564,2.6336999999999997,0.91834455,0.0,"{22: 6, 49: 2, 14: 2, 15: 12, 8: 49}","[8, 14, 15, 22, 49]",8491421512226492,Ti6In2Si2P12O49
Mg3Si(O2F)2,mp-558458,5.0611,2.0754032,0.0,"{12: 3, 14: 1, 8: 4, 9: 2}","[8, 9, 12, 14]",8492123141,Mg3Si1O4F2
Mn3Si(O2F)2,mp-554429,2.6431,2.29080622,0.0,"{25: 3, 14: 1, 8: 4, 9: 2}","[8, 9, 14, 25]",8492141253,Mn3Si1O4F2
SiHg2(O2F3)2,mp-1103920,0.18129999999999996,0.49637669,0.11022919528846664,"{14: 1, 80: 2, 8: 4, 9: 6}","[8, 9, 14, 80]",8496141802,Si1Hg2O4F6
NaCa8SmTi10(SiO5)10,mp-705853,2.9163,2.53342372,0.0018874589062463087,"{11: 1, 20: 8, 62: 1, 22: 10, 14: 10, 8: 50}","[8, 11, 14, 20, 22, 62]",85011114102082210621,Na1Ca8Sm1Ti10Si10O50
NaCa9Ti9Nb(SiO5)10,mp-534850,2.8415999999999997,2.50402417,0.0014906260833384977,"{11: 1, 20: 9, 22: 9, 41: 1, 14: 10, 8: 50}","[8, 11, 14, 20, 22, 41]",8501111410209229411,Na1Ca9Ti9Nb1Si10O50
NaCa9TaTi9(SiO5)10,mp-705502,2.9149,2.44190575,0.00014155642708146843,"{11: 1, 20: 9, 73: 1, 22: 9, 14: 10, 8: 50}","[8, 11, 14, 20, 22, 73]",8501111410209229731,Na1Ca9Ta1Ti9Si10O50
Na2Mg5Mn11Si12(AsO25)2,mp-1202299,0.02190000000000003,3.07306421,0.07692759229843116,"{11: 2, 12: 5, 25: 11, 14: 12, 33: 2, 8: 50}","[8, 11, 12, 14, 25, 33]",85011212514122511332,Na2Mg5Mn11Si12As2O50
Na3Sm17Si12(O25F)2,mp-677015,4.656700000000001,2.46963521,0.0,"{11: 3, 62: 17, 14: 12, 8: 50, 9: 2}","[8, 9, 11, 14, 62]",8509211314126217,Na3Sm17Si12O50F2
NaSiSbO5,mp-14730,2.8726000000000003,1.74006121,0.02590644874999981,"{11: 1, 14: 1, 51: 1, 8: 5}","[8, 11, 14, 51]",85111141511,Na1Si1Sb1O5
NaSi2O5,mp-1210523,0.42300000000000004,0.50889095,0.17709434148437353,"{11: 1, 14: 2, 8: 5}","[8, 11, 14]",85111142,Na1Si2O5
KNaSi2O5,mp-557679,4.0020999999999995,0.49215701,0.002067526458334079,"{19: 1, 11: 1, 14: 2, 8: 5}","[8, 11, 14, 19]",85111142191,K1Na1Si2O5
RbNaSi2O5,mp-557656,4.4435,0.83227294,0.0,"{37: 1, 11: 1, 14: 2, 8: 5}","[8, 11, 14, 37]",85111142371,Rb1Na1Si2O5
CsNaSi2O5,mp-572951,4.4582,0.93557904,0.0,"{55: 1, 11: 1, 14: 2, 8: 5}","[8, 11, 14, 55]",85111142551,Cs1Na1Si2O5
NaSi2W2O5,mp-1212767,0.0,3.13381884,1.2039572211666698,"{11: 1, 14: 2, 74: 2, 8: 5}","[8, 11, 14, 74]",85111142742,Na1Si2W2O5
Na2ScSiO5,mp-1194817,0.0,1.22197923,0.06223634298610481,"{11: 2, 21: 1, 14: 1, 8: 5}","[8, 11, 14, 21]",85112141211,Na2Sc1Si1O5
Na2TiSiO5,mp-6138,2.9703,2.02052296,0.0,"{11: 2, 22: 1, 14: 1, 8: 5}","[8, 11, 14, 22]",85112141221,Na2Ti1Si1O5
Na2ZrSiO5,mp-556709,4.0040000000000004,1.66422011,0.0,"{11: 2, 40: 1, 14: 1, 8: 5}","[8, 11, 14, 40]",85112141401,Na2Zr1Si1O5
Na2InSiO5,mp-1204505,0.4163000000000001,3.07124413,0.20325718208333488,"{11: 2, 49: 1, 14: 1, 8: 5}","[8, 11, 14, 49]",85112141491,Na2In1Si1O5
Na2LaSiO5,mp-724857,0.0,2.6837204,0.04123076956790506,"{11: 2, 57: 1, 14: 1, 8: 5}","[8, 11, 14, 57]",85112141571,Na2La1Si1O5
Na2PrSiO5,mp-1210331,0.5707000000000002,1.67844646,0.02654372840277741,"{11: 2, 59: 1, 14: 1, 8: 5}","[8, 11, 14, 59]",85112141591,Na2Pr1Si1O5
Na2Si2O5,mp-3193,4.4712,0.81822523,0.0,"{11: 2, 14: 2, 8: 5}","[8, 11, 14]",85112142,Na2Si2O5
MgTiSiO5,mp-1256211,2.8925999999999994,2.91172419,0.06879034979166399,"{12: 1, 22: 1, 14: 1, 8: 5}","[8, 12, 14, 22]",85121141221,Mg1Ti1Si1O5
MgVSiO5,mp-1264059,1.3076999999999996,3.83553338,0.06462846072917294,"{12: 1, 23: 1, 14: 1, 8: 5}","[8, 12, 14, 23]",85121141231,Mg1V1Si1O5
MgCrSiO5,mp-1046669,0.44530000000000003,3.03543806,0.10459552329860955,"{12: 1, 24: 1, 14: 1, 8: 5}","[8, 12, 14, 24]",85121141241,Mg1Cr1Si1O5
MgMnSiO5,mp-1308866,1.0222000000000002,4.74019689,0.08977747184027596,"{12: 1, 25: 1, 14: 1, 8: 5}","[8, 12, 14, 25]",85121141251,Mg1Mn1Si1O5
MgCoSiO5,mp-1267366,0.021399999999999864,2.53766849,0.1234841706249945,"{12: 1, 27: 1, 14: 1, 8: 5}","[8, 12, 14, 27]",85121141271,Mg1Co1Si1O5
MgSi2O5,mp-1020114,5.011099999999999,5.77853745,0.16980768874999974,"{12: 1, 14: 2, 8: 5}","[8, 12, 14]",85121142,Mg1Si2O5
Mg2Si2O5,mp-1185778,1.6533999999999995,9.9655117,0.5926424434259223,"{12: 2, 14: 2, 8: 5}","[8, 12, 14]",85122142,Mg2Si2O5
KSiSbO5,mp-14721,2.8079,1.64426218,0.0,"{19: 1, 14: 1, 51: 1, 8: 5}","[8, 14, 19, 51]",85141191511,K1Si1Sb1O5
CaSiO5,mp-1214017,0.11180000000000012,1.28596581,0.36037188940476383,"{20: 1, 14: 1, 8: 5}","[8, 14, 20]",85141201,Ca1Si1O5
CaTiSiO5,mp-6109,2.9854999999999996,2.51225827,0.0,"{20: 1, 22: 1, 14: 1, 8: 5}","[8, 14, 20, 22]",85141201221,Ca1Ti1Si1O5
CaVSiO5,mp-1213869,1.1317000000000004,3.24160798,0.0,"{20: 1, 23: 1, 14: 1, 8: 5}","[8, 14, 20, 23]",85141201231,Ca1V1Si1O5
CaZnSiO5,mp-1105632,0.17810000000000004,0.73912164,0.24493538333333564,"{20: 1, 30: 1, 14: 1, 8: 5}","[8, 14, 20, 30]",85141201301,Ca1Zn1Si1O5
CaSiSnO5,mp-6809,3.2313,3.50854992,0.00842359927083347,"{20: 1, 14: 1, 50: 1, 8: 5}","[8, 14, 20, 50]",85141201501,Ca1Si1Sn1O5
Ca2SiO5,mp-1182405,0.0,0.56011351,0.2088455892187504,"{20: 2, 14: 1, 8: 5}","[8, 14, 20]",85141202,Ca2Si1O5
Ca3SiO5,mp-641754,3.9850999999999996,2.60231433,0.020137263734573807,"{20: 3, 14: 1, 8: 5}","[8, 14, 20]",85141203,Ca3Si1O5
Sc2SiO5,mp-1209079,4.471299999999999,2.31277673,0.016234550234374368,"{21: 2, 14: 1, 8: 5}","[8, 14, 21]",85141212,Sc2Si1O5
TiZnSiO5,mp-1046592,3.0316000000000005,4.38906649,0.06185534729166697,"{22: 1, 30: 1, 14: 1, 8: 5}","[8, 14, 22, 30]",85141221301,Ti1Zn1Si1O5
TiSiAg2O5,mp-1094028,1.334,2.59878148,0.06237548824073702,"{22: 1, 14: 1, 47: 2, 8: 5}","[8, 14, 22, 47]",85141221472,Ti1Si1Ag2O5
VZnSiO5,mp-1046716,1.8206000000000002,2.33751313,0.06644008541666757,"{23: 1, 30: 1, 14: 1, 8: 5}","[8, 14, 23, 30]",85141231301,V1Zn1Si1O5
CrSiO5,mp-1046697,0.5381,0.22420658,0.21807110930952422,"{24: 1, 14: 1, 8: 5}","[8, 14, 24]",85141241,Cr1Si1O5
ZnCrSiO5,mp-1265992,0.5385999999999997,1.97725577,0.08849631725694262,"{30: 1, 24: 1, 14: 1, 8: 5}","[8, 14, 24, 30]",85141241301,Zn1Cr1Si1O5
MnZnSiO5,mp-1252337,0.6890000000000001,2.18474046,0.08676695000000301,"{25: 1, 30: 1, 14: 1, 8: 5}","[8, 14, 25, 30]",85141251301,Mn1Zn1Si1O5
ZnCoSiO5,mp-1046656,0.0,2.07030354,0.14801323685855117,"{30: 1, 27: 1, 14: 1, 8: 5}","[8, 14, 27, 30]",85141271301,Zn1Co1Si1O5
Zn2SiO5,mp-1189355,2.2801,2.85665036,0.42649704453124926,"{30: 2, 14: 1, 8: 5}","[8, 14, 30]",85141302,Zn2Si1O5
RbNbSiO5,mp-557778,3.2067,0.14614838,0.0,"{37: 1, 41: 1, 14: 1, 8: 5}","[8, 14, 37, 41]",85141371411,Rb1Nb1Si1O5
Sr3SiO5,mp-5487,3.7632000000000003,2.43310209,0.006145594444438629,"{38: 3, 14: 1, 8: 5}","[8, 14, 38]",85141383,Sr3Si1O5
Cd3SiO5,mp-13820,0.9679,1.55319435,0.0,"{48: 3, 14: 1, 8: 5}","[8, 14, 48]",85141483,Cd3Si1O5
CsSiSbO5,mp-1226548,2.1916999999999995,4.32598154,0.0,"{55: 1, 14: 1, 51: 1, 8: 5}","[8, 14, 51, 55]",85141511551,Cs1Si1Sb1O5
La2SiO5,mp-5152,4.4804,4.79820381,0.0,"{57: 2, 14: 1, 8: 5}","[8, 14, 57]",85141572,La2Si1O5
Nd2SiO5,mp-560132,4.7758,2.33423288,0.0,"{60: 2, 14: 1, 8: 5}","[8, 14, 60]",85141602,Nd2Si1O5
Sm2SiO5,mp-1208880,4.8314,2.20049394,0.0,"{62: 2, 14: 1, 8: 5}","[8, 14, 62]",85141622,Sm2Si1O5
Eu2SiO5,mp-867966,0.0,1.74707562,0.10756158708333352,"{63: 2, 14: 1, 8: 5}","[8, 14, 63]",85141632,Eu2Si1O5
Gd2SiO5,mp-542831,2.762,2.25857586,0.0,"{64: 2, 14: 1, 8: 5}","[8, 14, 64]",85141642,Gd2Si1O5
Tb2SiO5,mp-1208518,4.847,2.43951711,0.0,"{65: 2, 14: 1, 8: 5}","[8, 14, 65]",85141652,Tb2Si1O5
Dy2SiO5,mp-768317,4.5384,1.65965984,0.0,"{66: 2, 14: 1, 8: 5}","[8, 14, 66]",85141662,Dy2Si1O5
Ho2SiO5,mp-17065,4.702,2.5282322,0.0,"{67: 2, 14: 1, 8: 5}","[8, 14, 67]",85141672,Ho2Si1O5
Er2SiO5,mp-555983,4.7585999999999995,1.77301733,0.0,"{68: 2, 14: 1, 8: 5}","[8, 14, 68]",85141682,Er2Si1O5
Tm2SiO5,mp-17704,4.6073,2.31434742,0.0,"{69: 2, 14: 1, 8: 5}","[8, 14, 69]",85141692,Tm2Si1O5
Lu2SiO5,mp-16969,4.6846,1.75495568,0.0,"{71: 2, 14: 1, 8: 5}","[8, 14, 71]",85141712,Lu2Si1O5