formula,material_id,band_gap,efermi,energy_above_hull,comp_atoms,sorted_keys_comp_atoms,comp_number,new_formula
Ca7NbSi4O17F,mp-542863,3.6724,1.91916202,0.0,"{20: 7, 41: 1, 14: 4, 8: 17, 9: 1}","[8, 9, 14, 20, 41]",81791144207411,Ca7Nb1Si4O17F1
Ca9Si4O17F,mp-1227767,0.7206000000000001,1.25282621,0.015574054838713103,"{20: 9, 14: 4, 8: 17, 9: 1}","[8, 9, 14, 20]",81791144209,Ca9Si4O17F1
NaMg4(SiO3)6,mp-1199476,0.1823999999999999,1.31624295,0.1821261318103451,"{11: 1, 12: 4, 14: 6, 8: 18}","[8, 11, 12, 14]",818111124146,Na1Mg4Si6O18
NaCa6Ti(Si2O9)2,mp-1210346,0.2619,1.64207405,0.31770004399999685,"{11: 1, 20: 6, 22: 1, 14: 4, 8: 18}","[8, 11, 14, 20, 22]",818111144206221,Na1Ca6Ti1Si4O18
NaCa2ScZn2(SiO3)6,mp-534778,4.2934,2.71650567,0.02585148666667525,"{11: 1, 20: 2, 21: 1, 30: 2, 14: 6, 8: 18}","[8, 11, 14, 20, 21, 30]",818111146202211302,Na1Ca2Sc1Zn2Si6O18
Na2CaMn3(SiO3)6,mp-1221526,0.08140000000000036,3.18286095,0.05393903551851942,"{11: 2, 20: 1, 25: 3, 14: 6, 8: 18}","[8, 11, 14, 20, 25]",818112146201253,Na2Ca1Mn3Si6O18
Na2Zr(SiO3)6,mp-1196189,0.45980000000000004,0.64449972,0.4367846737345653,"{11: 2, 40: 1, 14: 6, 8: 18}","[8, 11, 14, 40]",818112146401,Na2Zr1Si6O18
Na3Sr2Ti3(Si2O9)2,mp-1210298,0.09090000000000042,2.03446174,0.04456449925000605,"{11: 3, 38: 2, 22: 3, 14: 4, 8: 18}","[8, 11, 14, 22, 38]",818113144223382,Na3Sr2Ti3Si4O18
Na3Zr(SiO3)6,mp-1210380,0.09610000000000002,-0.22204252,0.2258306991666652,"{11: 3, 40: 1, 14: 6, 8: 18}","[8, 11, 14, 40]",818113146401,Na3Zr1Si6O18
Na4Zr(SiO3)6,mp-728912,0.0,0.71825678,0.1649449837931023,"{11: 4, 40: 1, 14: 6, 8: 18}","[8, 11, 14, 40]",818114146401,Na4Zr1Si6O18
Na5(SiO3)6,mp-945194,0.0,-0.74560306,0.26600112984914404,"{11: 5, 14: 6, 8: 18}","[8, 11, 14]",818115146,Na5Si6O18
Na5Ca4(SiO3)6,mp-1210654,0.0,6.52444168,0.07180929721590612,"{11: 5, 20: 4, 14: 6, 8: 18}","[8, 11, 14, 20]",818115146204,Na5Ca4Si6O18
Na5Mn4(SiO3)6,mp-1210357,0.0,6.5301035,0.08106947487982996,"{11: 5, 25: 4, 14: 6, 8: 18}","[8, 11, 14, 25]",818115146254,Na5Mn4Si6O18
Na6CaZr(SiO3)6,mp-695056,4.314500000000001,1.53680314,0.017124206354171,"{11: 6, 20: 1, 40: 1, 14: 6, 8: 18}","[8, 11, 14, 20, 40]",818116146201401,Na6Ca1Zr1Si6O18
Na6TiMn(SiO3)6,mp-40374,2.5366000000000004,2.0263418,0.038150570807292894,"{11: 6, 22: 1, 25: 1, 14: 6, 8: 18}","[8, 11, 14, 22, 25]",818116146221251,Na6Ti1Mn1Si6O18
Na8Si6SnO18,mp-560597,3.8106,1.83427239,0.0,"{11: 8, 14: 6, 50: 1, 8: 18}","[8, 11, 14, 50]",818118146501,Na8Si6Sn1O18
Na8Si7O18,mp-29176,4.4437,2.2959469,0.05261356249999949,"{11: 8, 14: 7, 8: 18}","[8, 11, 14]",818118147,Na8Si7O18
Mg10(SiO6)3,mp-1180416,0.03310000000000013,3.0536574,0.13241239499999935,"{12: 10, 14: 3, 8: 18}","[8, 12, 14]",8181210143,Mg10Si3O18
MgU2(SiO9)2,mp-1191161,0.03370000000000001,-0.46600054,0.6371139245652149,"{12: 1, 92: 2, 14: 2, 8: 18}","[8, 12, 14, 92]",818121142922,Mg1U2Si2O18
Mg5Cr(Si2O9)2,mp-1211907,0.0,0.68399264,0.20819833833332968,"{12: 5, 24: 1, 14: 4, 8: 18}","[8, 12, 14, 24]",818125144241,Mg5Cr1Si4O18
Mg5(SiO3)6,mp-1198184,0.12829999999999986,1.20864957,0.07244088201149079,"{12: 5, 14: 6, 8: 18}","[8, 12, 14]",818125146,Mg5Si6O18
Ca11Si4SO18,mp-555508,3.5249,2.61433355,0.025030700882355816,"{20: 11, 14: 4, 16: 1, 8: 18}","[8, 14, 16, 20]",8181441612011,Ca11Si4S1O18
Ca11Si4ClO18,mp-1214142,0.0,6.64716767,0.0757495820772025,"{20: 11, 14: 4, 17: 1, 8: 18}","[8, 14, 17, 20]",8181441712011,Ca11Si4Cl1O18
Mn9(Si2O9)2,mp-737304,0.0,3.78817922,0.04641580098567921,"{25: 9, 14: 4, 8: 18}","[8, 14, 25]",818144259,Mn9Si4O18
Ca8Si5O18,mp-1019570,4.545,6.19993352,0.0005519809408607301,"{20: 8, 14: 5, 8: 18}","[8, 14, 20]",818145208,Ca8Si5O18
CaZr(SiO3)6,mp-1214457,0.0,0.13744457,0.59744301108974,"{20: 1, 40: 1, 14: 6, 8: 18}","[8, 14, 20, 40]",818146201401,Ca1Zr1Si6O18
Ca5(SiO3)6,mp-1227183,0.0,1.58050684,0.09001410630747664,"{20: 5, 14: 6, 8: 18}","[8, 14, 20]",818146205,Ca5Si6O18
Na2ZrSi6O19,mp-1210412,0.0,-0.55282638,0.3465186710119026,"{11: 2, 40: 1, 14: 6, 8: 19}","[8, 11, 14, 40]",819112146401,Na2Zr1Si6O19
Na6Si8O19,mp-554033,4.5317,5.20068442,0.004805887045455037,"{11: 6, 14: 8, 8: 19}","[8, 11, 14]",819116148,Na6Si8O19
V3SiP5O19,mp-560988,1.9799000000000002,3.8930525,0.009415200267859802,"{23: 3, 14: 1, 15: 5, 8: 19}","[8, 14, 15, 23]",819141155233,V3Si1P5O19
Ga10Si2O19,mp-768931,2.0816999999999997,1.66127552,0.0732005501612889,"{31: 10, 14: 2, 8: 19}","[8, 14, 31]",8191423110,Ga10Si2O19
Ca4Si6W3O19,mp-1214557,0.032200000000000006,3.29451038,0.3987854953906247,"{20: 4, 14: 6, 74: 3, 8: 19}","[8, 14, 20, 74]",819146204743,Ca4Si6W3O19
Ca6Si6O19,mp-727278,0.0,-1.68516378,0.08018837729838779,"{20: 6, 14: 6, 8: 19}","[8, 14, 20]",819146206,Ca6Si6O19
K2Zn2Si8O19,mp-559127,4.2227,0.9162849,0.008270049784945499,"{19: 2, 30: 2, 14: 8, 8: 19}","[8, 14, 19, 30]",819148192302,K2Zn2Si8O19
K3NaSi6(SnO10)2,mp-1224587,0.26,0.98164664,0.1422230403776048,"{19: 3, 11: 1, 14: 6, 50: 2, 8: 20}","[8, 11, 14, 19, 50]",820111146193502,K3Na1Si6Sn2O20
K2NaCa2TiSi7O20,mp-1202945,0.32800000000000007,1.33624357,0.02210423666666994,"{19: 2, 11: 1, 20: 2, 22: 1, 14: 7, 8: 20}","[8, 11, 14, 19, 20, 22]",820111147192202221,K2Na1Ca2Ti1Si7O20
KNaCaTh(Si2O5)4,mp-1223475,4.908,1.89973755,0.0,"{19: 1, 11: 1, 20: 1, 90: 1, 14: 8, 8: 20}","[8, 11, 14, 19, 20, 90]",820111148191201901,K1Na1Ca1Th1Si8O20
RbNaCaTh(Si2O5)4,mp-1219651,4.934799999999999,1.94161014,0.0012865383463491753,"{37: 1, 11: 1, 20: 1, 90: 1, 14: 8, 8: 20}","[8, 11, 14, 20, 37, 90]",820111148201371901,Rb1Na1Ca1Th1Si8O20
Na5Zr2Si6ClO20,mp-1201520,0.0,0.25536707,0.16093035389707477,"{11: 5, 40: 2, 14: 6, 17: 1, 8: 20}","[8, 11, 14, 17, 40]",820115146171402,Na5Zr2Si6Cl1O20
Mn6Zn3Si(AsO10)2,mp-1212184,0.005999999999999783,2.58888449,0.6208437958072919,"{25: 6, 30: 3, 14: 1, 33: 2, 8: 20}","[8, 14, 25, 30, 33]",820141256303332,Mn6Zn3Si1As2O20
Si(Bi3O5)4,mp-23492,2.3477999999999994,4.43256266,0.006619569949481985,"{14: 1, 83: 12, 8: 20}","[8, 14, 83]",8201418312,Si1Bi12O20
K3Ti4Si3O20,mp-1194354,0.0,-0.4162978,0.3216915850416635,"{19: 3, 22: 4, 14: 3, 8: 20}","[8, 14, 19, 22]",820143193224,K3Ti4Si3O20
Ca4Ti4Si3GeO20,mp-1227317,2.9699999999999998,2.27519854,0.0009648301562510397,"{20: 4, 22: 4, 14: 3, 32: 1, 8: 20}","[8, 14, 20, 22, 32]",820143204224321,Ca4Ti4Si3Ge1O20
Ca4TiSi4Sn3O20,mp-1227137,3.1716,3.14419929,0.008363848828119025,"{20: 4, 22: 1, 14: 4, 50: 3, 8: 20}","[8, 14, 20, 22, 50]",820144204221503,Ca4Ti1Si4Sn3O20
Ca4ZrTi3(SiO5)4,mp-1227178,3.0056,5.3251917,0.009112195911457732,"{20: 4, 40: 1, 22: 3, 14: 4, 8: 20}","[8, 14, 20, 22, 40]",820144204223401,Ca4Zr1Ti3Si4O20
Ca4Ti3Si4SnO20,mp-1227165,2.9791,2.70853664,0.004154559817699521,"{20: 4, 22: 3, 14: 4, 50: 1, 8: 20}","[8, 14, 20, 22, 50]",820144204223501,Ca4Ti3Si4Sn1O20
Ca10Si5(ClO10)2,mp-1203161,0.5481000000000003,1.53513376,0.059932407556308576,"{20: 10, 14: 5, 17: 2, 8: 20}","[8, 14, 17, 20]",8201451722010,Ca10Si5Cl2O20
Cs3KZr2(Si3O10)2,mp-1226678,0.9832999999999998,1.37181764,0.12528823406250034,"{55: 3, 19: 1, 40: 2, 14: 6, 8: 20}","[8, 14, 19, 40, 55]",820146191402553,Cs3K1Zr2Si6O20
CaCr2(Si2O5)4,mp-1329473,1.5577999999999999,1.72734367,0.1326460989247309,"{20: 1, 24: 2, 14: 8, 8: 20}","[8, 14, 20, 24]",820148201242,Ca1Cr2Si8O20
Ca2Th(Si2O5)4,mp-555528,4.986599999999999,1.53454346,0.0020622271505441603,"{20: 2, 90: 1, 14: 8, 8: 20}","[8, 14, 20, 90]",820148202901,Ca2Th1Si8O20
Rb6NaU3Si4O20F,mp-1197419,2.1473999999999998,2.95680153,0.0,"{37: 6, 11: 1, 92: 3, 14: 4, 8: 20, 9: 1}","[8, 9, 11, 14, 37, 92]",82091111144376923,Rb6Na1U3Si4O20F1
Cs4K3U3Si4O20F,mp-1200353,2.1139,3.23220125,0.0,"{55: 4, 19: 3, 92: 3, 14: 4, 8: 20, 9: 1}","[8, 9, 14, 19, 55, 92]",82091144193554923,Cs4K3U3Si4O20F1
Na9U3Si4(O10F)2,mp-1204232,0.0,3.72140362,0.0,"{11: 9, 92: 3, 14: 4, 8: 20, 9: 2}","[8, 9, 11, 14, 92]",82092119144923,Na9U3Si4O20F2
Na2Si(S2O7)3,mp-1020159,5.1302,-1.20864833,0.0,"{11: 2, 14: 1, 16: 6, 8: 21}","[8, 11, 14, 16]",821112141166,Na2Si1S6O21
K2Si(S2O7)3,mp-1019785,5.0725,-0.71292596,0.0,"{19: 2, 14: 1, 16: 6, 8: 21}","[8, 14, 16, 19]",821141166192,K2Si1S6O21
Rb2Si(S2O7)3,mp-1020711,5.0347,-0.96277794,0.0,"{37: 2, 14: 1, 16: 6, 8: 21}","[8, 14, 16, 37]",821141166372,Rb2Si1S6O21
SiAg2(S2O7)3,mp-1198966,3.5310999999999995,0.74643408,0.0,"{14: 1, 47: 2, 16: 6, 8: 21}","[8, 14, 16, 47]",821141166472,Si1Ag2S6O21
Cs2Si(S2O7)3,mp-1182737,5.2785,-0.72060145,0.0,"{55: 2, 14: 1, 16: 6, 8: 21}","[8, 14, 16, 55]",821141166552,Cs2Si1S6O21
Ca4Si6Pb6Cl2O21,mp-558268,3.3861,3.01959843,0.0,"{20: 4, 14: 6, 82: 6, 17: 2, 8: 21}","[8, 14, 17, 20, 82]",821146172204826,Ca4Si6Pb6Cl2O21
MnSi6Pb8O21,mp-699587,3.2441000000000004,3.32418741,0.0,"{25: 1, 14: 6, 82: 8, 8: 21}","[8, 14, 25, 82]",821146251828,Mn1Si6Pb8O21
Sr7Zr(Si2O7)3,mp-555314,4.4323999999999995,1.46736662,0.021092418214291087,"{38: 7, 40: 1, 14: 6, 8: 21}","[8, 14, 38, 40]",821146387401,Sr7Zr1Si6O21
K5In3(SiO3)7,mp-557237,3.8853,1.05946232,0.0,"{19: 5, 49: 3, 14: 7, 8: 21}","[8, 14, 19, 49]",821147195493,K5In3Si7O21
K2Ca4Si8O21,mp-1019746,4.3804,1.27771484,0.0,"{19: 2, 20: 4, 14: 8, 8: 21}","[8, 14, 19, 20]",821148192204,K2Ca4Si8O21
K4In2Si8O21,mp-553982,4.0426,1.02444197,0.0,"{19: 4, 49: 2, 14: 8, 8: 21}","[8, 14, 19, 49]",821148194492,K4In2Si8O21
Rb2V2Si8O21,mp-1219801,2.9132999999999996,4.16540646,0.0,"{37: 2, 23: 2, 14: 8, 8: 21}","[8, 14, 23, 37]",821148232372,Rb2V2Si8O21
CaMg(SiO)2,mp-554198,0.0,5.03178862,0.4680465158333318,"{20: 1, 12: 1, 14: 2, 8: 2}","[8, 12, 14, 20]",82121142201,Ca1Mg1Si2O2
SiO2,mp-7000,5.719,0.8900259,0.0,"{14: 1, 8: 2}","[8, 14]",82141,Si1O2
La2CoSiO2,mp-1147750,0.0,8.01161222,0.7328012097222238,"{57: 2, 27: 1, 14: 1, 8: 2}","[8, 14, 27, 57]",82141271572,La2Co1Si1O2
ZrSiO2,mp-1207403,0.0,6.40228061,1.0847396849999953,"{40: 1, 14: 1, 8: 2}","[8, 14, 40]",82141401,Zr1Si1O2
Zr2SiO2,mp-1207447,0.0,0.93840729,2.237699109999996,"{40: 2, 14: 1, 8: 2}","[8, 14, 40]",82141402,Zr2Si1O2
Si(AgO)2,mp-1209067,0.0,1.33354086,1.1702271571666696,"{14: 1, 47: 2, 8: 2}","[8, 14, 47]",82141472,Si1Ag2O2
Cd2SiO2,mp-1214149,0.008499999999999952,1.1175728,0.9776611795000001,"{48: 2, 14: 1, 8: 2}","[8, 14, 48]",82141482,Cd2Si1O2
Zr(SiO)2,mp-1207496,0.0,0.79122958,1.0195381004999984,"{40: 1, 14: 2, 8: 2}","[8, 14, 40]",82142401,Zr1Si2O2
Hf(SiO)2,mp-1212568,0.0,0.45068312,1.1350655825000011,"{72: 1, 14: 2, 8: 2}","[8, 14, 72]",82142721,Hf1Si2O2
Th(SiO)2,mp-1208594,0.6268,0.11704096,0.9634010140000022,"{90: 1, 14: 2, 8: 2}","[8, 14, 90]",82142901,Th1Si2O2
U(SiO)2,mp-1208158,0.0,3.0421161,1.159063578499996,"{92: 1, 14: 2, 8: 2}","[8, 14, 92]",82142921,U1Si2O2
Si3(Cl4O)2,mp-30224,5.5809,-2.24849485,0.007547369423075878,"{14: 3, 17: 8, 8: 2}","[8, 14, 17]",82143178,Si3Cl8O2
Na2Ti3Mn(Si2O11)2,mp-1238298,0.8174,0.67489512,0.500258642690973,"{11: 2, 22: 3, 25: 1, 14: 4, 8: 22}","[8, 11, 14, 22, 25]",822112144223251,Na2Ti3Mn1Si4O22
Na4Ti4Si3O22,mp-1202866,1.8712,0.70043815,0.4926760845454581,"{11: 4, 22: 4, 14: 3, 8: 22}","[8, 11, 14, 22]",822114143224,Na4Ti4Si3O22
MgMn4(Si4O11)2,mp-1234076,0.6934999999999998,3.00883494,0.06337137387303748,"{12: 1, 25: 4, 14: 8, 8: 22}","[8, 12, 14, 25]",822121148254,Mg1Mn4Si8O22
Nd4Mg2Ti3(Si2O11)2,mp-1173532,2.496,5.40405023,0.026114677750001647,"{60: 4, 12: 2, 22: 3, 14: 4, 8: 22}","[8, 12, 14, 22, 60]",822122144223604,Nd4Mg2Ti3Si4O22
Nd4Ti3Co2(Si2O11)2,mp-1173574,0.0,5.0100661,0.12051470828571809,"{60: 4, 22: 3, 27: 2, 14: 4, 8: 22}","[8, 14, 22, 27, 60]",822144223272604,Nd4Ti3Co2Si4O22
Sr4Ti5(Si2O11)2,mp-558553,1.9364000000000003,2.55088466,0.0014605803571487996,"{38: 4, 22: 5, 14: 4, 8: 22}","[8, 14, 22, 38]",822144225384,Sr4Ti5Si4O22
La4Ti5(Si2O11)2,mp-559176,0.0,7.61567947,0.012665258857161632,"{57: 4, 22: 5, 14: 4, 8: 22}","[8, 14, 22, 57]",822144225574,La4Ti5Si4O22
La4V5(Si2O11)2,mp-19030,0.35579999999999945,6.44080903,0.010666729139868991,"{57: 4, 23: 5, 14: 4, 8: 22}","[8, 14, 23, 57]",822144235574,La4V5Si4O22
Pr4V5(Si2O11)2,mp-17712,0.0,5.15026875,0.02513522481844177,"{59: 4, 23: 5, 14: 4, 8: 22}","[8, 14, 23, 59]",822144235594,Pr4V5Si4O22
Nd4V5(Si2O11)2,mp-16891,0.0,4.47841617,0.005500012872012405,"{60: 4, 23: 5, 14: 4, 8: 22}","[8, 14, 23, 60]",822144235604,Nd4V5Si4O22
La4Mn5(Si2O11)2,mp-541464,1.0118,5.20036347,0.09621792816509434,"{57: 4, 25: 5, 14: 4, 8: 22}","[8, 14, 25, 57]",822144255574,La4Mn5Si4O22
Ca3(Si3O11)2,mp-1182561,0.8393,-0.07325879,0.4366680817338704,"{20: 3, 14: 6, 8: 22}","[8, 14, 20]",822146203,Ca3Si6O22
Ca5(Si3O11)2,mp-1199479,0.2749999999999999,0.78607029,0.5346458075126268,"{20: 5, 14: 6, 8: 22}","[8, 14, 20]",822146205,Ca5Si6O22
KNaCaMg5Si8(O11F)2,mp-1223435,4.6631,2.42427254,0.0,"{19: 1, 11: 1, 20: 1, 12: 5, 14: 8, 8: 22, 9: 2}","[8, 9, 11, 12, 14, 19, 20]",82292111125148191201,K1Na1Ca1Mg5Si8O22F2
Na2CaMg5Si8(O11F)2,mp-1221470,4.5395,2.3884187,0.0,"{11: 2, 20: 1, 12: 5, 14: 8, 8: 22, 9: 2}","[8, 9, 11, 12, 14, 20]",82292112125148201,Na2Ca1Mg5Si8O22F2
Na3Mg4ScSi8(O11F)2,mp-1173812,4.553699999999999,6.87429562,0.0,"{11: 3, 12: 4, 21: 1, 14: 8, 8: 22, 9: 2}","[8, 9, 11, 12, 14, 21]",82292113124148211,Na3Mg4Sc1Si8O22F2
Na3Mg4CrSi8(O11F)2,mp-1173822,3.4494999999999996,5.90752449,0.0,"{11: 3, 12: 4, 24: 1, 14: 8, 8: 22, 9: 2}","[8, 9, 11, 12, 14, 24]",82292113124148241,Na3Mg4Cr1Si8O22F2
Na3Mg4InSi8(O11F)2,mp-1173861,4.0872,2.42976823,0.0,"{11: 3, 12: 4, 49: 1, 14: 8, 8: 22, 9: 2}","[8, 9, 11, 12, 14, 49]",82292113124148491,Na3Mg4In1Si8O22F2
Ca2Mg5Si8(O11F)2,mp-557662,5.0192000000000005,2.1745296,0.0,"{20: 2, 12: 5, 14: 8, 8: 22, 9: 2}","[8, 9, 12, 14, 20]",82292125148202,Ca2Mg5Si8O22F2
Mg7Si8(O11F)2,mp-559177,4.883,1.96028264,0.004241493034189858,"{12: 7, 14: 8, 8: 22, 9: 2}","[8, 9, 12, 14]",82292127148,Mg7Si8O22F2
Na4Ca4Ti4Si4O22F3,mp-1210426,0.0,1.09389367,0.04819697729530503,"{11: 4, 20: 4, 22: 4, 14: 4, 8: 22, 9: 3}","[8, 9, 11, 14, 20, 22]",82293114144204224,Na4Ca4Ti4Si4O22F3
Na4SrSi8O23,mp-1201366,0.1204,0.06626762,0.2342852659722201,"{11: 4, 38: 1, 14: 8, 8: 23}","[8, 11, 14, 38]",823114148381,Na4Sr1Si8O23
Mg4Si6O23,mp-1182691,0.0816,-0.01256828,0.5178492232323215,"{12: 4, 14: 6, 8: 23}","[8, 12, 14]",823124146,Mg4Si6O23
Rb6Si10O23,mp-27376,4.3121,0.63748979,0.0,"{37: 6, 14: 10, 8: 23}","[8, 14, 37]",8231410376,Rb6Si10O23
Si4Mo2P4O23,mp-553934,2.6946,1.22252554,0.004899533602722883,"{14: 4, 42: 2, 15: 4, 8: 23}","[8, 14, 15, 42]",823144154422,Si4Mo2P4O23
K2Ca2Si8O23,mp-1197582,1.1323,0.00687894,0.42715992466666286,"{19: 2, 20: 2, 14: 8, 8: 23}","[8, 14, 19, 20]",823148192202,K2Ca2Si8O23
K4Nb2Si8O23,mp-542100,3.7939999999999996,0.45170933,0.002001138918908296,"{19: 4, 41: 2, 14: 8, 8: 23}","[8, 14, 19, 41]",823148194412,K4Nb2Si8O23
Rb4Nb2Si8O23,mp-542121,3.7154,0.577923,0.0,"{37: 4, 41: 2, 14: 8, 8: 23}","[8, 14, 37, 41]",823148374412,Rb4Nb2Si8O23
Cs4Nb2Si8O23,mp-555696,3.7001999999999997,0.93103251,0.0,"{55: 4, 41: 2, 14: 8, 8: 23}","[8, 14, 41, 55]",823148412554,Cs4Nb2Si8O23
NaMgNb3Si3(SO8)3,mp-2713894,1.0946000000000002,1.23350377,0.06504344186686506,"{11: 1, 12: 1, 41: 3, 14: 3, 16: 3, 8: 24}","[8, 11, 12, 14, 16, 41]",824111121143163413,Na1Mg1Nb3Si3S3O24
NaMgTa3Si3(SO8)3,mp-2713965,1.5693,1.60713644,0.057749873980940336,"{11: 1, 12: 1, 73: 3, 14: 3, 16: 3, 8: 24}","[8, 11, 12, 14, 16, 73]",824111121143163733,Na1Mg1Ta3Si3S3O24
KNaCaMg5(SiO3)8,mp-1223552,0.000700000000000145,2.21815954,0.033738227446881375,"{19: 1, 11: 1, 20: 1, 12: 5, 14: 8, 8: 24}","[8, 11, 12, 14, 19, 20]",824111125148191201,K1Na1Ca1Mg5Si8O24
KNaSrMg5(SiO3)8,mp-1223601,3.3545999999999996,2.75779314,0.1351960447687608,"{19: 1, 11: 1, 38: 1, 12: 5, 14: 8, 8: 24}","[8, 11, 12, 14, 19, 38]",824111125148191381,K1Na1Sr1Mg5Si8O24
NaScNb3SiP5O24,mp-2715608,2.3348,0.6767687,0.00848975185714096,"{11: 1, 21: 1, 41: 3, 14: 1, 15: 5, 8: 24}","[8, 11, 14, 15, 21, 41]",824111141155211413,Na1Sc1Nb3Si1P5O24
NaScTa3SiP5O24,mp-2715814,3.0650999999999997,0.96306986,0.007655251142859143,"{11: 1, 21: 1, 73: 3, 14: 1, 15: 5, 8: 24}","[8, 11, 14, 15, 21, 73]",824111141155211733,Na1Sc1Ta3Si1P5O24
NaTi2Nb2SiP5O24,mp-2715767,2.4433,0.62656044,0.019733231761914993,"{11: 1, 22: 2, 41: 2, 14: 1, 15: 5, 8: 24}","[8, 11, 14, 15, 22, 41]",824111141155222412,Na1Ti2Nb2Si1P5O24
NaTa2Ti2SiP5O24,mp-2715677,2.5576,0.72767286,0.016921475285712972,"{11: 1, 73: 2, 22: 2, 14: 1, 15: 5, 8: 24}","[8, 11, 14, 15, 22, 73]",824111141155222732,Na1Ta2Ti2Si1P5O24
NaNb3GaSiP5O24,mp-2715546,2.317,0.82654288,0.01466726230952986,"{11: 1, 41: 3, 31: 1, 14: 1, 15: 5, 8: 24}","[8, 11, 14, 15, 31, 41]",824111141155311413,Na1Nb3Ga1Si1P5O24
NaTa3GaSiP5O24,mp-2715807,3.1235,1.02529584,0.012142202357141585,"{11: 1, 73: 3, 31: 1, 14: 1, 15: 5, 8: 24}","[8, 11, 14, 15, 31, 73]",824111141155311733,Na1Ta3Ga1Si1P5O24
NaNb2SiGe2P5O24,mp-2715802,2.622,1.02495886,0.02616383923809451,"{11: 1, 41: 2, 14: 1, 32: 2, 15: 5, 8: 24}","[8, 11, 14, 15, 32, 41]",824111141155322412,Na1Nb2Si1Ge2P5O24
NaTa2SiGe2P5O24,mp-2715729,3.2533999999999996,1.16050814,0.025835048571487107,"{11: 1, 73: 2, 14: 1, 32: 2, 15: 5, 8: 24}","[8, 11, 14, 15, 32, 73]",824111141155322732,Na1Ta2Si1Ge2P5O24
NaZr2Nb2SiP5O24,mp-2715770,2.5764,0.23670406,0.02164021419047124,"{11: 1, 40: 2, 41: 2, 14: 1, 15: 5, 8: 24}","[8, 11, 14, 15, 40, 41]",824111141155402412,Na1Zr2Nb2Si1P5O24
NaZr2Ta2SiP5O24,mp-2715704,3.3141000000000003,0.48538189,0.01923393304761767,"{11: 1, 40: 2, 73: 2, 14: 1, 15: 5, 8: 24}","[8, 11, 14, 15, 40, 73]",824111141155402732,Na1Zr2Ta2Si1P5O24
NaNb2SiSn2P5O24,mp-2715645,2.6019,1.00442374,0.018572804999998915,"{11: 1, 41: 2, 14: 1, 50: 2, 15: 5, 8: 24}","[8, 11, 14, 15, 41, 50]",824111141155412502,Na1Nb2Si1Sn2P5O24
NaHf2Nb2SiP5O24,mp-2715748,2.5871,0.346887,0.01924344652381116,"{11: 1, 72: 2, 41: 2, 14: 1, 15: 5, 8: 24}","[8, 11, 14, 15, 41, 72]",824111141155412722,Na1Hf2Nb2Si1P5O24
NaNb3InSiP5O24,mp-2715811,2.3703,0.80193108,0.01055910147619521,"{11: 1, 41: 3, 49: 1, 14: 1, 15: 5, 8: 24}","[8, 11, 14, 15, 41, 49]",824111141155413491,Na1Nb3In1Si1P5O24
NaLaNb3SiP5O24,mp-2715673,2.2412,0.69511731,0.03830850507142536,"{11: 1, 57: 1, 41: 3, 14: 1, 15: 5, 8: 24}","[8, 11, 14, 15, 41, 57]",824111141155413571,Na1La1Nb3Si1P5O24
NaTa3InSiP5O24,mp-2715749,3.1654,0.88584326,0.008232268285711442,"{11: 1, 73: 3, 49: 1, 14: 1, 15: 5, 8: 24}","[8, 11, 14, 15, 49, 73]",824111141155491733,Na1Ta3In1Si1P5O24
NaTa2SiSn2P5O24,mp-2715552,3.3905000000000003,1.24917734,0.018026761952350867,"{11: 1, 73: 2, 14: 1, 50: 2, 15: 5, 8: 24}","[8, 11, 14, 15, 50, 73]",824111141155502732,Na1Ta2Si1Sn2P5O24
NaLaTa3SiP5O24,mp-2715545,3.0177000000000005,0.95981642,0.03901210083333417,"{11: 1, 57: 1, 73: 3, 14: 1, 15: 5, 8: 24}","[8, 11, 14, 15, 57, 73]",824111141155571733,Na1La1Ta3Si1P5O24
NaHf2Ta2SiP5O24,mp-2715642,3.4083,0.49105991,0.018693540999999314,"{11: 1, 72: 2, 73: 2, 14: 1, 15: 5, 8: 24}","[8, 11, 14, 15, 72, 73]",824111141155722732,Na1Hf2Ta2Si1P5O24
NaTa2Nb2Si3(PO8)3,mp-2714262,2.8705,0.55044775,0.017932608761904945,"{11: 1, 73: 2, 41: 2, 14: 3, 15: 3, 8: 24}","[8, 11, 14, 15, 41, 73]",824111143153412732,Na1Ta2Nb2Si3P3O24
NaNb4Si3(PO8)3,mp-2714175,2.4471000000000003,0.41609509,0.019826498952385307,"{11: 1, 41: 4, 14: 3, 15: 3, 8: 24}","[8, 11, 14, 15, 41]",824111143153414,Na1Nb4Si3P3O24
NaTa4Si3(PO8)3,mp-2714161,3.2478,0.6418772,0.010093887857150818,"{11: 1, 73: 4, 14: 3, 15: 3, 8: 24}","[8, 11, 14, 15, 73]",824111143153734,Na1Ta4Si3P3O24
NaCaNb3Si3(SO8)3,mp-2713806,1.0064,1.07119302,0.07410676894897694,"{11: 1, 20: 1, 41: 3, 14: 3, 16: 3, 8: 24}","[8, 11, 14, 16, 20, 41]",824111143163201413,Na1Ca1Nb3Si3S3O24
NaCaTa3Si3(SO8)3,mp-2713867,1.4145999999999999,1.46594416,0.07538104207143981,"{11: 1, 20: 1, 73: 3, 14: 3, 16: 3, 8: 24}","[8, 11, 14, 16, 20, 73]",824111143163201733,Na1Ca1Ta3Si3S3O24
NaTi3NbSi3(SO8)3,mp-2713767,1.7614,0.95884097,0.043728023534858274,"{11: 1, 22: 3, 41: 1, 14: 3, 16: 3, 8: 24}","[8, 11, 14, 16, 22, 41]",824111143163223411,Na1Ti3Nb1Si3S3O24
NaTaTi3Si3(SO8)3,mp-2713825,1.6658000000000002,0.92645543,0.039650995732142036,"{11: 1, 73: 1, 22: 3, 14: 3, 16: 3, 8: 24}","[8, 11, 14, 16, 22, 73]",824111143163223731,Na1Ta1Ti3Si3S3O24