formula,material_id,band_gap,efermi,energy_above_hull,comp_atoms,sorted_keys_comp_atoms,comp_number,new_formula
Na42Nb4Zn20Si15(S7O48)3,mp-2712897,1.466,2.05390511,0.12670454656116892,"{11: 42, 41: 4, 30: 20, 14: 15, 16: 21, 8: 144}","[8, 11, 14, 16, 30, 41]",81441142141516213020414,Na42Nb4Zn20Si15S21O144
Na42Ta4Zn20Si15(S7O48)3,mp-2716015,2.1222000000000003,2.18575118,0.12772705539972762,"{11: 42, 73: 4, 30: 20, 14: 15, 16: 21, 8: 144}","[8, 11, 14, 16, 30, 73]",81441142141516213020734,Na42Ta4Zn20Si15S21O144
Na42Ca16Nb8Si21(S5O48)3,mp-2715670,0.9448999999999999,1.99617182,0.13454580432249408,"{11: 42, 20: 16, 41: 8, 14: 21, 16: 15, 8: 144}","[8, 11, 14, 16, 20, 41]",81441142142116152016418,Na42Ca16Nb8Si21S15O144
Na42Ca16Ta8Si21(S5O48)3,mp-2715815,1.6985,2.1720581,0.13895431497289845,"{11: 42, 20: 16, 73: 8, 14: 21, 16: 15, 8: 144}","[8, 11, 14, 16, 20, 73]",81441142142116152016738,Na42Ca16Ta8Si21S15O144
Na42Nb8Zn16Si21(S5O48)3,mp-2715798,1.0117,2.18806381,0.14290408649050956,"{11: 42, 41: 8, 30: 16, 14: 21, 16: 15, 8: 144}","[8, 11, 14, 16, 30, 41]",81441142142116153016418,Na42Nb8Zn16Si21S15O144
Na42Ta8Zn16Si21(S5O48)3,mp-2715747,1.5532999999999997,2.51743157,0.1461408466531129,"{11: 42, 73: 8, 30: 16, 14: 21, 16: 15, 8: 144}","[8, 11, 14, 16, 30, 73]",81441142142116153016738,Na42Ta8Zn16Si21S15O144
Na42Ca8Nb16Si33(SO48)3,mp-2714459,1.8574,1.86756579,0.08309484181571758,"{11: 42, 20: 8, 41: 16, 14: 33, 16: 3, 8: 144}","[8, 11, 14, 16, 20, 41]",8144114214331632084116,Na42Ca8Nb16Si33S3O144
Na42Ca8Ta16Si33(SO48)3,mp-2714422,2.7536000000000005,2.08419992,0.07458293014905237,"{11: 42, 20: 8, 73: 16, 14: 33, 16: 3, 8: 144}","[8, 11, 14, 16, 20, 73]",8144114214331632087316,Na42Ca8Ta16Si33S3O144
Na42Nb16Zn8Si33(SO48)3,mp-2714509,1.8129000000000002,2.30580106,0.08264162811653541,"{11: 42, 41: 16, 30: 8, 14: 33, 16: 3, 8: 144}","[8, 11, 14, 16, 30, 41]",8144114214331633084116,Na42Nb16Zn8Si33S3O144
Na42Ta16Zn8Si33(SO48)3,mp-2714406,2.689,2.28016438,0.07039307909214543,"{11: 42, 73: 16, 30: 8, 14: 33, 16: 3, 8: 144}","[8, 11, 14, 16, 30, 73]",8144114214331633087316,Na42Ta16Zn8Si33S3O144
Na6Mg16Nb8Si3(S11O48)3,mp-2714265,0.07309999999999994,1.87865483,0.028960045160357772,"{11: 6, 12: 16, 41: 8, 14: 3, 16: 33, 8: 144}","[8, 11, 12, 14, 16, 41]",814411612161431633418,Na6Mg16Nb8Si3S33O144
Na6Mg16Ta8Si3(S11O48)3,mp-2714208,0.5320999999999998,2.47887211,0.02735514163095054,"{11: 6, 12: 16, 73: 8, 14: 3, 16: 33, 8: 144}","[8, 11, 12, 14, 16, 73]",814411612161431633738,Na6Mg16Ta8Si3S33O144
Na6Mg4Nb20Si21(S5O48)3,mp-2715809,1.1467,1.25679265,0.05390416678911869,"{11: 6, 12: 4, 41: 20, 14: 21, 16: 15, 8: 144}","[8, 11, 12, 14, 16, 41]",8144116124142116154120,Na6Mg4Nb20Si21S15O144
Na6Mg4Ta20Si21(S5O48)3,mp-2715797,1.8388999999999998,1.67175142,0.04162792870951826,"{11: 6, 12: 4, 73: 20, 14: 21, 16: 15, 8: 144}","[8, 11, 12, 14, 16, 73]",8144116124142116157320,Na6Mg4Ta20Si21S15O144
Na6Mg8Nb16Si15(S7O48)3,mp-2716224,1.3568000000000002,1.06462815,0.06321351470651582,"{11: 6, 12: 8, 41: 16, 14: 15, 16: 21, 8: 144}","[8, 11, 12, 14, 16, 41]",8144116128141516214116,Na6Mg8Nb16Si15S21O144
Na6Mg8Ta16Si15(S7O48)3,mp-2716218,1.859,1.43527366,0.05765039801430749,"{11: 6, 12: 8, 73: 16, 14: 15, 16: 21, 8: 144}","[8, 11, 12, 14, 16, 73]",8144116128141516217316,Na6Mg8Ta16Si15S21O144
Na6Ca8Nb16Si15(S7O48)3,mp-2716271,1.2413,0.7665626,0.07956221698978982,"{11: 6, 20: 8, 41: 16, 14: 15, 16: 21, 8: 144}","[8, 11, 14, 16, 20, 41]",8144116141516212084116,Na6Ca8Nb16Si15S21O144
Na6Ca8Ta16Si15(S7O48)3,mp-2716145,1.8376,1.08212831,0.08052407888096003,"{11: 6, 20: 8, 73: 16, 14: 15, 16: 21, 8: 144}","[8, 11, 14, 16, 20, 73]",8144116141516212087316,Na6Ca8Ta16Si15S21O144
Na6Nb16Zn8Si15(S7O48)3,mp-2716253,1.4576000000000002,0.91549349,0.05201448704648737,"{11: 6, 41: 16, 30: 8, 14: 15, 16: 21, 8: 144}","[8, 11, 14, 16, 30, 41]",8144116141516213084116,Na6Nb16Zn8Si15S21O144
Na6Ta16Zn8Si15(S7O48)3,mp-2716207,2.1006,1.1750387,0.048686672815472676,"{11: 6, 73: 16, 30: 8, 14: 15, 16: 21, 8: 144}","[8, 11, 14, 16, 30, 73]",8144116141516213087316,Na6Ta16Zn8Si15S21O144
Na6Ca4Nb20Si21(S5O48)3,mp-2715662,1.2511999999999999,1.26041457,0.05709237490816044,"{11: 6, 20: 4, 41: 20, 14: 21, 16: 15, 8: 144}","[8, 11, 14, 16, 20, 41]",8144116142116152044120,Na6Ca4Nb20Si21S15O144
Na6Ca4Ta20Si21(S5O48)3,mp-2715644,1.8781999999999999,1.43046811,0.04992331973810238,"{11: 6, 20: 4, 73: 20, 14: 21, 16: 15, 8: 144}","[8, 11, 14, 16, 20, 73]",8144116142116152047320,Na6Ca4Ta20Si21S15O144
Na6Nb20Zn4Si21(S5O48)3,mp-2715551,1.2931,1.20604799,0.04398911121768734,"{11: 6, 41: 20, 30: 4, 14: 21, 16: 15, 8: 144}","[8, 11, 14, 16, 30, 41]",8144116142116153044120,Na6Nb20Zn4Si21S15O144
Na6Ta20Zn4Si21(S5O48)3,mp-2715737,1.9349999999999998,1.41290056,0.037696307398800144,"{11: 6, 73: 20, 30: 4, 14: 21, 16: 15, 8: 144}","[8, 11, 14, 16, 30, 73]",8144116142116153047320,Na6Ta20Zn4Si21S15O144
Na6Ca16Nb8Si3(S11O48)3,mp-2714081,0.08879999999999999,1.12641573,0.04073337267686661,"{11: 6, 20: 16, 41: 8, 14: 3, 16: 33, 8: 144}","[8, 11, 14, 16, 20, 41]",814411614316332016418,Na6Ca16Nb8Si3S33O144
Na6Ca16Ta8Si3(S11O48)3,mp-2714203,0.6937,1.62513831,0.04198168567380911,"{11: 6, 20: 16, 73: 8, 14: 3, 16: 33, 8: 144}","[8, 11, 14, 16, 20, 73]",814411614316332016738,Na6Ca16Ta8Si3S33O144
Na6Nb8Zn16Si3(S11O48)3,mp-2714117,0.31820000000000004,1.45318972,0.023813144243708173,"{11: 6, 41: 8, 30: 16, 14: 3, 16: 33, 8: 144}","[8, 11, 14, 16, 30, 41]",814411614316333016418,Na6Nb8Zn16Si3S33O144
Na6Ta8Zn16Si3(S11O48)3,mp-2714263,0.9957,1.90839606,0.0257743657678553,"{11: 6, 73: 8, 30: 16, 14: 3, 16: 33, 8: 144}","[8, 11, 14, 16, 30, 73]",814411614316333016738,Na6Ta8Zn16Si3S33O144
Cs2ErSi6O14F,mp-1195142,4.7321,0.76571373,0.004651581597221899,"{55: 2, 68: 1, 14: 6, 8: 14, 9: 1}","[8, 9, 14, 55, 68]",81491146552681,Cs2Er1Si6O14F1
Mg10Si3(O7F2)2,mp-1194872,4.768800000000001,2.54798186,0.04235716145161916,"{12: 10, 14: 3, 8: 14, 9: 4}","[8, 9, 12, 14]",814941210143,Mg10Si3O14F4
NaNd(Si2O5)3,mp-1198222,0.0,-1.35415843,0.12887061054347804,"{11: 1, 60: 1, 14: 6, 8: 15}","[8, 11, 14, 60]",815111146601,Na1Nd1Si6O15
Na2Mg2(Si2O5)3,mp-12187,4.410299999999999,1.54409107,0.00018100229999884476,"{11: 2, 12: 2, 14: 6, 8: 15}","[8, 11, 12, 14]",815112122146,Na2Mg2Si6O15
K4Na2(Si2O5)3,mp-542686,4.1851,4.59480017,0.0,"{19: 4, 11: 2, 14: 6, 8: 15}","[8, 11, 14, 19]",815112146194,K4Na2Si6O15
Na2Zr(Si2O5)3,mp-1221344,4.8774,-0.12490214,0.0031136444097210614,"{11: 2, 40: 1, 14: 6, 8: 15}","[8, 11, 14, 40]",815112146401,Na2Zr1Si6O15
Na3Dy(Si2O5)3,mp-555604,4.507000000000001,0.85526389,0.0,"{11: 3, 66: 1, 14: 6, 8: 15}","[8, 11, 14, 66]",815113146661,Na3Dy1Si6O15
ReSi2(PO5)3,mp-1197149,2.1158,2.38759615,0.0,"{75: 1, 14: 2, 15: 3, 8: 15}","[8, 14, 15, 75]",815142153751,Re1Si2P3O15
Ca3Ti3Si2GeO15,mp-1229240,2.8822,2.25350353,0.002174556562499319,"{20: 3, 22: 3, 14: 2, 32: 1, 8: 15}","[8, 14, 20, 22, 32]",815142203223321,Ca3Ti3Si2Ge1O15
Zn2Si3Pb4SO15,mp-559184,3.4961000000000007,2.7070767,0.0,"{30: 2, 14: 3, 82: 4, 16: 1, 8: 15}","[8, 14, 16, 30, 82]",815143161302824,Zn2Si3Pb4S1O15
K2CaSi4O15,mp-1197427,0.0,1.11635025,0.3915652371590985,"{19: 2, 20: 1, 14: 4, 8: 15}","[8, 14, 19, 20]",815144192201,K2Ca1Si4O15
K2Mn2Zn4Si4O15,mp-554911,0.9687000000000001,2.55396213,0.0038708968981504555,"{19: 2, 25: 2, 30: 4, 14: 4, 8: 15}","[8, 14, 19, 25, 30]",815144192252304,K2Mn2Zn4Si4O15
CaVSi4O15,mp-1200285,0.8708,0.4697609,0.5855181787103199,"{20: 1, 23: 1, 14: 4, 8: 15}","[8, 14, 20, 23]",815144201231,Ca1V1Si4O15
Sr3TiSi4O15,mp-1204561,0.4074,1.62217846,0.17701709387681408,"{38: 3, 22: 1, 14: 4, 8: 15}","[8, 14, 22, 38]",815144221383,Sr3Ti1Si4O15
CaMn3Zn(SiO3)5,mp-1195724,2.8848,3.04217008,0.00682333129999968,"{20: 1, 25: 3, 30: 1, 14: 5, 8: 15}","[8, 14, 20, 25, 30]",815145201253301,Ca1Mn3Zn1Si5O15
CaMn4(SiO3)5,mp-558800,2.9173000000000004,3.28349639,0.0007400332999676351,"{20: 1, 25: 4, 14: 5, 8: 15}","[8, 14, 20, 25]",815145201254,Ca1Mn4Si5O15
Mn4(SiO3)5,mp-1351269,0.39800000000000013,2.74829875,0.07707953630787223,"{25: 4, 14: 5, 8: 15}","[8, 14, 25]",815145254,Mn4Si5O15
K2Ti(Si2O5)3,mp-557301,3.4116,0.99288117,0.0019910500000008824,"{19: 2, 22: 1, 14: 6, 8: 15}","[8, 14, 19, 22]",815146192221,K2Ti1Si6O15
K2Si6GeO15,mp-18460,4.7946,1.11946265,0.0,"{19: 2, 14: 6, 32: 1, 8: 15}","[8, 14, 19, 32]",815146192321,K2Si6Ge1O15
K2Ce(Si2O5)3,mp-557649,1.9442,0.88846588,0.0,"{19: 2, 58: 1, 14: 6, 8: 15}","[8, 14, 19, 58]",815146192581,K2Ce1Si6O15
K2U(Si2O5)3,mp-1195515,0.016000000000000014,5.3397542,0.00833735137152658,"{19: 2, 92: 1, 14: 6, 8: 15}","[8, 14, 19, 92]",815146192921,K2U1Si6O15
K3Nd(Si2O5)3,mp-6453,4.1358,0.10307523,0.0,"{19: 3, 60: 1, 14: 6, 8: 15}","[8, 14, 19, 60]",815146193601,K3Nd1Si6O15
Ca3Si6W7O15,mp-1214353,0.0,4.5114795,1.2120992300806455,"{20: 3, 14: 6, 74: 7, 8: 15}","[8, 14, 20, 74]",815146203747,Ca3Si6W7O15
Rb2Ti(Si2O5)3,mp-18582,3.4852999999999996,0.88850853,0.0,"{37: 2, 22: 1, 14: 6, 8: 15}","[8, 14, 22, 37]",815146221372,Rb2Ti1Si6O15
Cs2Ti(Si2O5)3,mp-6748,3.5085,1.10699477,0.0,"{55: 2, 22: 1, 14: 6, 8: 15}","[8, 14, 22, 55]",815146221552,Cs2Ti1Si6O15
Rb2Th(Si2O5)3,mp-1194623,4.8855,0.57950694,0.0,"{37: 2, 90: 1, 14: 6, 8: 15}","[8, 14, 37, 90]",815146372901,Rb2Th1Si6O15
Rb2U(Si2O5)3,mp-1195621,0.5691999999999995,4.57695856,0.0,"{37: 2, 92: 1, 14: 6, 8: 15}","[8, 14, 37, 92]",815146372921,Rb2U1Si6O15
Cs2Zr(Si2O5)3,mp-581877,4.946899999999999,0.89240884,0.0,"{55: 2, 40: 1, 14: 6, 8: 15}","[8, 14, 40, 55]",815146401552,Cs2Zr1Si6O15
Cs2Th(Si2O5)3,mp-1195679,4.7961,0.35585162,0.0,"{55: 2, 90: 1, 14: 6, 8: 15}","[8, 14, 55, 90]",815146552901,Cs2Th1Si6O15
Cs2U(Si2O5)3,mp-1197866,0.2707999999999995,4.66286788,0.0,"{55: 2, 92: 1, 14: 6, 8: 15}","[8, 14, 55, 92]",815146552921,Cs2U1Si6O15
Cs3Eu(Si2O5)3,mp-1229260,0.6834,1.87865401,0.0,"{55: 3, 63: 1, 14: 6, 8: 15}","[8, 14, 55, 63]",815146553631,Cs3Eu1Si6O15
Na3Ca3Zr2Si4(O5F)3,mp-1248208,3.0164,4.72500059,0.5530185384166622,"{11: 3, 20: 3, 40: 2, 14: 4, 8: 15, 9: 3}","[8, 9, 11, 14, 20, 40]",81593113144203402,Na3Ca3Zr2Si4O15F3
Ca8Si4(O5F)3,mp-1227334,0.15680000000000005,1.5178043,0.029086393041668046,"{20: 8, 14: 4, 8: 15, 9: 3}","[8, 9, 14, 20]",81593144208,Ca8Si4O15F3
NaMg14SiO16,mp-1034646,0.0,8.23923181,0.13366393687499922,"{11: 1, 12: 14, 14: 1, 8: 16}","[8, 11, 12, 14]",8161111214141,Na1Mg14Si1O16
KNaSi5SnO16,mp-1201904,0.0,-0.05860799,0.3902551215798624,"{19: 1, 11: 1, 14: 5, 50: 1, 8: 16}","[8, 11, 14, 19, 50]",816111145191501,K1Na1Si5Sn1O16
Na2Ca3(Si3O8)2,mp-558087,4.3043,1.51799754,0.0019885682098781388,"{11: 2, 20: 3, 14: 6, 8: 16}","[8, 11, 14, 20]",816112146203,Na2Ca3Si6O16
Na3Ga3Si3O16,mp-1221494,0.0,-0.6156701,0.4930144746000016,"{11: 3, 31: 3, 14: 3, 8: 16}","[8, 11, 14, 31]",816113143313,Na3Ga3Si3O16
Na7Zn3Ga(SiO4)4,mp-1173841,2.182,1.78832254,0.10273842440860204,"{11: 7, 30: 3, 31: 1, 14: 4, 8: 16}","[8, 11, 14, 30, 31]",816117144303311,Na7Zn3Ga1Si4O16
MgU2(SiO8)2,mp-1190722,0.0,-1.59526671,0.5260850466666662,"{12: 1, 92: 2, 14: 2, 8: 16}","[8, 12, 14, 92]",816121142922,Mg1U2Si2O16
Ca8MgSi4(ClO8)2,mp-686598,0.746,4.036324,0.41250820750000194,"{20: 8, 12: 1, 14: 4, 17: 2, 8: 16}","[8, 12, 14, 17, 20]",816121144172208,Ca8Mg1Si4Cl2O16
Mg(SiO2)8,mp-1233496,2.322,1.89560901,0.13877890746666743,"{12: 1, 14: 8, 8: 16}","[8, 12, 14]",816121148,Mg1Si8O16
KMg14SiO16,mp-1033928,0.0,8.24664969,0.21971030380859347,"{19: 1, 12: 14, 14: 1, 8: 16}","[8, 12, 14, 19]",8161214141191,K1Mg14Si1O16
CaMg14SiO16,mp-1036298,0.7162000000000006,7.69484622,0.1780997469140626,"{20: 1, 12: 14, 14: 1, 8: 16}","[8, 12, 14, 20]",8161214141201,Ca1Mg14Si1O16
Mg14TiSiO16,mp-1034194,0.0,8.55472939,0.19759425012152843,"{12: 14, 22: 1, 14: 1, 8: 16}","[8, 12, 14, 22]",8161214141221,Mg14Ti1Si1O16
Mg14VSiO16,mp-1034449,0.7560999999999991,7.92989382,0.17093397593749948,"{12: 14, 23: 1, 14: 1, 8: 16}","[8, 12, 14, 23]",8161214141231,Mg14V1Si1O16
Mg14CrSiO16,mp-1034870,0.26940000000000097,7.88479644,0.19142815843749883,"{12: 14, 24: 1, 14: 1, 8: 16}","[8, 12, 14, 24]",8161214141241,Mg14Cr1Si1O16
Mg14MnSiO16,mp-1036087,0.6424999999999992,7.83565246,0.18012915693965414,"{12: 14, 25: 1, 14: 1, 8: 16}","[8, 12, 14, 25]",8161214141251,Mg14Mn1Si1O16
Mg14CoSiO16,mp-1035303,0.0,8.36146448,0.20073634187500033,"{12: 14, 27: 1, 14: 1, 8: 16}","[8, 12, 14, 27]",8161214141271,Mg14Co1Si1O16
Mg14ZnSiO16,mp-1034860,0.5541000000000009,7.86466046,0.19107039312499996,"{12: 14, 30: 1, 14: 1, 8: 16}","[8, 12, 14, 30]",8161214141301,Mg14Zn1Si1O16
RbMg14SiO16,mp-1034675,0.0,8.18571097,0.2798630795052075,"{37: 1, 12: 14, 14: 1, 8: 16}","[8, 12, 14, 37]",8161214141371,Rb1Mg14Si1O16
SrMg14SiO16,mp-1034686,0.6237000000000004,7.39796748,0.23758543667968812,"{38: 1, 12: 14, 14: 1, 8: 16}","[8, 12, 14, 38]",8161214141381,Sr1Mg14Si1O16
Mg14NbSiO16,mp-1034765,0.0,8.70449131,0.26377633870065686,"{12: 14, 41: 1, 14: 1, 8: 16}","[8, 12, 14, 41]",8161214141411,Mg14Nb1Si1O16
Mg14CdSiO16,mp-1034777,0.25899999999999945,7.63659328,0.23983488156250043,"{12: 14, 48: 1, 14: 1, 8: 16}","[8, 12, 14, 48]",8161214141481,Mg14Cd1Si1O16
Mg14SiSnO16,mp-1034282,0.0,8.836703,0.29669957609374986,"{12: 14, 14: 1, 50: 1, 8: 16}","[8, 12, 14, 50]",8161214141501,Mg14Si1Sn1O16
CsMg14SiO16,mp-1034837,0.0,8.02898688,0.370611820488282,"{55: 1, 12: 14, 14: 1, 8: 16}","[8, 12, 14, 55]",8161214141551,Cs1Mg14Si1O16
HfMg14SiO16,mp-1034573,0.0,8.78023323,0.27698621757812614,"{72: 1, 12: 14, 14: 1, 8: 16}","[8, 12, 14, 72]",8161214141721,Hf1Mg14Si1O16
Mg14SiBiO16,mp-1034633,0.0,8.31841359,0.339721742500001,"{12: 14, 14: 1, 83: 1, 8: 16}","[8, 12, 14, 83]",8161214141831,Mg14Si1Bi1O16
Mg7(SiO4)4,mp-1222121,0.0,3.29090102,0.11377085771604634,"{12: 7, 14: 4, 8: 16}","[8, 12, 14]",816127144,Mg7Si4O16
CaU2(SiO8)2,mp-1202413,0.0,0.54070787,0.5928026107539646,"{20: 1, 92: 2, 14: 2, 8: 16}","[8, 14, 20, 92]",816142201922,Ca1U2Si2O16
Si3Ge(PbO2)8,mp-1219641,2.2542999999999997,-1.05782185,0.17809680353980717,"{14: 3, 32: 1, 82: 8, 8: 16}","[8, 14, 32, 82]",816143321828,Si3Ge1Pb8O16
KSr6Sc(SiO4)4,mp-1211967,4.2940000000000005,2.24394699,0.0,"{19: 1, 38: 6, 21: 1, 14: 4, 8: 16}","[8, 14, 19, 21, 38]",816144191211386,K1Sr6Sc1Si4O16
K2Ca4U(SiO4)4,mp-1192578,2.0773,1.69158402,0.002824574386598222,"{19: 2, 20: 4, 92: 1, 14: 4, 8: 16}","[8, 14, 19, 20, 92]",816144192204921,K2Ca4U1Si4O16
Ca5Co3(SiO4)4,mp-1227139,2.7029999999999994,5.21974538,0.0,"{20: 5, 27: 3, 14: 4, 8: 16}","[8, 14, 20, 27]",816144205273,Ca5Co3Si4O16
Ca(SiO2)8,mp-1214355,0.5343,4.95046349,0.19715664073333095,"{20: 1, 14: 8, 8: 16}","[8, 14, 20]",816148201,Ca1Si8O16
Na5Pr4Si4O16F,mp-1192370,4.466,1.78309307,0.0,"{11: 5, 59: 4, 14: 4, 8: 16, 9: 1}","[8, 9, 11, 14, 59]",81691115144594,Na5Pr4Si4O16F1
Na5Nd4Si4O16F,mp-1192521,4.518,1.76037873,0.0,"{11: 5, 60: 4, 14: 4, 8: 16, 9: 1}","[8, 9, 11, 14, 60]",81691115144604,Na5Nd4Si4O16F1
Na5Sm4Si4O16F,mp-1192338,4.6397,1.7944873,0.0,"{11: 5, 62: 4, 14: 4, 8: 16, 9: 1}","[8, 9, 11, 14, 62]",81691115144624,Na5Sm4Si4O16F1
Na5Eu4Si4O16F,mp-1192436,0.0,1.56131897,0.07469521749999508,"{11: 5, 63: 4, 14: 4, 8: 16, 9: 1}","[8, 9, 11, 14, 63]",81691115144634,Na5Eu4Si4O16F1
Na5Gd4Si4O16F,mp-1192390,3.1472,1.98482808,0.0,"{11: 5, 64: 4, 14: 4, 8: 16, 9: 1}","[8, 9, 11, 14, 64]",81691115144644,Na5Gd4Si4O16F1
Na5Tb4Si4O16F,mp-1192492,4.705900000000001,1.95408055,0.0,"{11: 5, 65: 4, 14: 4, 8: 16, 9: 1}","[8, 9, 11, 14, 65]",81691115144654,Na5Tb4Si4O16F1
Na5Dy4Si4O16F,mp-1192543,4.7514,1.99448762,0.0,"{11: 5, 66: 4, 14: 4, 8: 16, 9: 1}","[8, 9, 11, 14, 66]",81691115144664,Na5Dy4Si4O16F1
Na5Ho4Si4O16F,mp-1192403,4.7593,1.92870821,0.0,"{11: 5, 67: 4, 14: 4, 8: 16, 9: 1}","[8, 9, 11, 14, 67]",81691115144674,Na5Ho4Si4O16F1
Na5Er4Si4O16F,mp-1192584,4.7932999999999995,2.02544801,0.0,"{11: 5, 68: 4, 14: 4, 8: 16, 9: 1}","[8, 9, 11, 14, 68]",81691115144684,Na5Er4Si4O16F1
Na5Tm4Si4O16F,mp-1192572,4.800599999999999,2.0591387,0.0,"{11: 5, 69: 4, 14: 4, 8: 16, 9: 1}","[8, 9, 11, 14, 69]",81691115144694,Na5Tm4Si4O16F1
K5La4Si4O16F,mp-866662,4.6591000000000005,3.05301803,0.0,"{19: 5, 57: 4, 14: 4, 8: 16, 9: 1}","[8, 9, 14, 19, 57]",81691144195574,K5La4Si4O16F1
K5Pr4Si4O16F,mp-1192490,5.0432999999999995,1.73140139,0.0,"{19: 5, 59: 4, 14: 4, 8: 16, 9: 1}","[8, 9, 14, 19, 59]",81691144195594,K5Pr4Si4O16F1
Na2Ca4ZrNbSi4(O8F)2,mp-1210786,0.6702000000000004,5.44041131,0.026416137638908488,"{11: 2, 20: 4, 40: 1, 41: 1, 14: 4, 8: 16, 9: 2}","[8, 9, 11, 14, 20, 40, 41]",81692112144204401411,Na2Ca4Zr1Nb1Si4O16F2
Na2Ca5TiSi4(O8F)2,mp-1210589,0.0,1.07074848,0.046628897722218454,"{11: 2, 20: 5, 22: 1, 14: 4, 8: 16, 9: 2}","[8, 9, 11, 14, 20, 22]",81692112144205221,Na2Ca5Ti1Si4O16F2
Na3Ca4TiSi4(O8F)2,mp-1211154,0.0,1.03216885,0.07610514948611069,"{11: 3, 20: 4, 22: 1, 14: 4, 8: 16, 9: 2}","[8, 9, 11, 14, 20, 22]",81692113144204221,Na3Ca4Ti1Si4O16F2
Na3Ti2Mn3Si4(O8F)2,mp-1210891,0.0,2.99153839,0.01749666759259938,"{11: 3, 22: 2, 25: 3, 14: 4, 8: 16, 9: 2}","[8, 9, 11, 14, 22, 25]",81692113144222253,Na3Ti2Mn3Si4O16F2
Na4CaZr2TiSi4(O8F)2,mp-1210416,3.3247,1.45290324,0.0,"{11: 4, 20: 1, 40: 2, 22: 1, 14: 4, 8: 16, 9: 2}","[8, 9, 11, 14, 20, 22, 40]",81692114144201221402,Na4Ca1Zr2Ti1Si4O16F2
Na4Zr2TiMnSi4(O8F)2,mp-1210325,2.4338,4.72006039,0.0,"{11: 4, 40: 2, 22: 1, 25: 1, 14: 4, 8: 16, 9: 2}","[8, 9, 11, 14, 22, 25, 40]",81692114144221251402,Na4Zr2Ti1Mn1Si4O16F2
Na3SrLaZnSi6O17,mp-13726,4.516100000000001,1.78833134,0.0,"{11: 3, 38: 1, 57: 1, 30: 1, 14: 6, 8: 17}","[8, 11, 14, 30, 38, 57]",817113146301381571,Na3Sr1La1Zn1Si6O17
Na4Si5Sn2O17,mp-1221161,0.3552000000000002,2.09294622,0.05657559657738531,"{11: 4, 14: 5, 50: 2, 8: 17}","[8, 11, 14, 50]",817114145502,Na4Si5Sn2O17
Na5Nd4Si4O17,mp-1193130,0.10990000000000011,1.91426986,0.003182660114172897,"{11: 5, 60: 4, 14: 4, 8: 17}","[8, 11, 14, 60]",817115144604,Na5Nd4Si4O17
Na6Zr2Si4O17,mp-1220870,0.0,1.57016283,0.14479225500000226,"{11: 6, 40: 2, 14: 4, 8: 17}","[8, 11, 14, 40]",817116144402,Na6Zr2Si4O17
MgU2Si2O17,mp-1180497,0.0,-1.23444376,0.4372337473863608,"{12: 1, 92: 2, 14: 2, 8: 17}","[8, 12, 14, 92]",817121142922,Mg1U2Si2O17
Rb14Si10O17,mp-680306,1.4386,1.99267113,0.0,"{37: 14, 14: 10, 8: 17}","[8, 14, 37]",81714103714,Rb14Si10O17
CaU2Si2O17,mp-1198547,0.2611,1.01749505,0.5313089151515245,"{20: 1, 92: 2, 14: 2, 8: 17}","[8, 14, 20, 92]",817142201922,Ca1U2Si2O17
Ti4Si2O17,mp-1217602,0.0,-1.61096663,0.4638243255978267,"{22: 4, 14: 2, 8: 17}","[8, 14, 22]",817142224,Ti4Si2O17
Si3Pb11O17,mp-1198381,1.976,5.90286948,0.011679879319601127,"{14: 3, 82: 11, 8: 17}","[8, 14, 82]",8171438211,Si3Pb11O17
Ca2Mn2Si4O17,mp-1191515,0.0,2.04100134,0.30209799930000525,"{20: 2, 25: 2, 14: 4, 8: 17}","[8, 14, 20, 25]",817144202252,Ca2Mn2Si4O17
Cs4U3Si4O17,mp-1192638,0.0235000000000003,4.83328239,0.0,"{55: 4, 92: 3, 14: 4, 8: 17}","[8, 14, 55, 92]",817144554923,Cs4U3Si4O17
SrSc4Si5O17,mp-1198043,4.3818,2.38830873,0.002883634999992779,"{38: 1, 21: 4, 14: 5, 8: 17}","[8, 14, 21, 38]",817145214381,Sr1Sc4Si5O17
CaZrSi6O17,mp-1204163,0.8641,0.88044045,0.18080520483333196,"{20: 1, 40: 1, 14: 6, 8: 17}","[8, 14, 20, 40]",817146201401,Ca1Zr1Si6O17
Ca4Si6W5O17,mp-1214164,0.3426999999999998,4.40875957,0.8450577935156254,"{20: 4, 14: 6, 74: 5, 8: 17}","[8, 14, 20, 74]",817146204745,Ca4Si6W5O17
Ca5Si6W5O17,mp-1214286,0.07840000000000025,4.69641867,0.923737614166666,"{20: 5, 14: 6, 74: 5, 8: 17}","[8, 14, 20, 74]",817146205745,Ca5Si6W5O17
Rb14Si6Ge4O17,mp-680314,1.1925000000000001,3.08979477,0.0,"{37: 14, 14: 6, 32: 4, 8: 17}","[8, 14, 32, 37]",8171463243714,Rb14Si6Ge4O17
Rb10Si6O17,mp-556390,3.4663,4.08350608,0.0005599903282815788,"{37: 10, 14: 6, 8: 17}","[8, 14, 37]",8171463710,Rb10Si6O17
K3NdSi7O17,mp-559608,4.713500000000001,0.7123041,0.0,"{19: 3, 60: 1, 14: 7, 8: 17}","[8, 14, 19, 60]",817147193601,K3Nd1Si7O17
Na2Ca4ZrNbSi4O17F,mp-6903,3.5435000000000003,1.68286406,0.0,"{11: 2, 20: 4, 40: 1, 41: 1, 14: 4, 8: 17, 9: 1}","[8, 9, 11, 14, 20, 40, 41]",81791112144204401411,Na2Ca4Zr1Nb1Si4O17F1
Pr5Si2Se3O17F,mp-1194712,3.9696,2.16322414,0.0,"{59: 5, 14: 2, 34: 3, 8: 17, 9: 1}","[8, 9, 14, 34, 59]",81791142343595,Pr5Si2Se3O17F1