formula,material_id,band_gap,efermi,energy_above_hull,comp_atoms,sorted_keys_comp_atoms,comp_number,new_formula
SiH10(O2F3)2,mp-722246,6.5957,-2.97113968,0.0,"{14: 1, 1: 10, 8: 4, 9: 6}","[1, 8, 9, 14]",1108496141,Si1H10O4F6
Na2Si(H5O4)2,mp-707840,4.6022,-1.13046401,0.001025158690477035,"{11: 2, 14: 1, 1: 10, 8: 8}","[1, 8, 11, 14]",11088112141,Na2Si1H10O8
NaMg14Si,mp-1026712,0.0,3.56679683,0.0911194674137934,"{11: 1, 12: 14, 14: 1}","[11, 12, 14]",1111214141,Na1Mg14Si1
NaMg6Si,mp-1021166,0.0,3.64885108,0.1689542842025864,"{11: 1, 12: 6, 14: 1}","[11, 12, 14]",111126141,Na1Mg6Si1
NaSi,mp-2402,1.1286,2.33663347,0.0,"{11: 1, 14: 1}","[11, 14]",111141,Na1Si1
NaSm3SiS7,mp-12485,2.0169,3.80051384,0.026439844583330263,"{11: 1, 62: 3, 14: 1, 16: 7}","[11, 14, 16, 62]",111141167623,Na1Sm3Si1S7
NaSiAu3,mp-13673,0.0,4.79684638,0.0,"{11: 1, 14: 1, 79: 3}","[11, 14, 79]",111141793,Na1Si1Au3
NaSi2Pd3,mp-4276,0.0,5.15923969,0.0,"{11: 1, 14: 2, 46: 3}","[11, 14, 46]",111142463,Na1Si2Pd3
NaSi34,mp-1220929,0.0,4.98710588,0.11698316981280676,"{11: 1, 14: 34}","[11, 14]",1111434,Na1Si34
NaSi6,mp-1104400,0.0,5.99874661,0.06209945874999789,"{11: 1, 14: 6}","[11, 14]",111146,Na1Si6
NaSi68,mp-1220969,0.043099999999999916,4.92855907,0.12214223309345229,"{11: 1, 14: 68}","[11, 14]",1111468,Na1Si68
Rb7NaSi8,mp-1202504,1.6935,1.28995168,0.0,"{37: 7, 11: 1, 14: 8}","[11, 14, 37]",111148377,Rb7Na1Si8
Cs7NaSi8,mp-1199908,1.5773000000000001,1.96441599,0.0,"{55: 7, 11: 1, 14: 8}","[11, 14, 55]",111148557,Cs7Na1Si8
SiH,mp-29803,2.1634,0.8123729,0.04131177843749967,"{14: 1, 1: 1}","[1, 14]",11141,Si1H1
CaGaSiH,mp-1018090,0.34160000000000057,4.39444856,0.04970547249999946,"{20: 1, 31: 1, 14: 1, 1: 1}","[1, 14, 20, 31]",11141201311,Ca1Ga1Si1H1
SrGaSiH,mp-979137,0.41690000000000005,3.95087231,0.00400534760416571,"{38: 1, 31: 1, 14: 1, 1: 1}","[1, 14, 31, 38]",11141311381,Sr1Ga1Si1H1
CeSiHRu,mp-604496,0.0,7.62361403,0.0,"{58: 1, 14: 1, 1: 1, 44: 1}","[1, 14, 44, 58]",11141441581,Ce1Si1H1Ru1
Hf2SiH,mp-1181094,0.0,6.46886015,0.0,"{72: 2, 14: 1, 1: 1}","[1, 14, 72]",11141722,Hf2Si1H1
Nd2MnSi2H,mp-1210316,0.0,3.42565731,1.4389349183333273,"{60: 2, 25: 1, 14: 2, 1: 1}","[1, 14, 25, 60]",11142251602,Nd2Mn1Si2H1
Ce2Si2HRu,mp-1213995,0.0,7.34577582,1.30638826625,"{58: 2, 14: 2, 1: 1, 44: 1}","[1, 14, 44, 58]",11142441582,Ce2Si2H1Ru1
Si3H,mp-995193,0.8982000000000001,4.24439184,0.03147248546874959,"{14: 3, 1: 1}","[1, 14]",11143,Si3H1
Eu5Si3H,mp-1182046,0.0,3.78257677,0.012924619444444119,"{63: 5, 14: 3, 1: 1}","[1, 14, 63]",11143635,Eu5Si3H1
Na3SiH11O9,mp-707571,4.1941999999999995,3.97641389,0.01133097395834426,"{11: 3, 14: 1, 1: 11, 8: 9}","[1, 8, 11, 14]",11189113141,Na3Si1H11O9
Na2In2SiS6,mp-1190138,2.2375,1.81625948,0.0,"{11: 2, 49: 2, 14: 1, 16: 6}","[11, 14, 16, 49]",112141166492,Na2In2Si1S6
Na2CaSi,mp-1221375,0.14780000000000015,2.43952852,0.19804376297413828,"{11: 2, 20: 1, 14: 1}","[11, 14, 20]",112141201,Na2Ca1Si1
Na2Zn3SiAs4,mp-1221272,0.0,3.0256938,0.049254919499999605,"{11: 2, 30: 3, 14: 1, 33: 4}","[11, 14, 30, 33]",112141303334,Na2Zn3Si1As4
CsNa2Si17,mp-4877,0.0,6.2796714,0.023023519657634495,"{55: 1, 11: 2, 14: 17}","[11, 14, 55]",1121417551,Cs1Na2Si17
Na2Si2S5,mp-18104,3.5318,1.45906198,0.0,"{11: 2, 14: 2, 16: 5}","[11, 14, 16]",112142165,Na2Si2S5
Na2Si2Se5,mp-18562,2.4355,1.10121777,0.0,"{11: 2, 14: 2, 34: 5}","[11, 14, 34]",112142345,Na2Si2Se5
SiH12N2(O2F3)2,mp-1179548,6.159,4.33638999,0.11885257113332681,"{14: 1, 1: 12, 7: 2, 8: 4, 9: 6}","[1, 7, 8, 9, 14]",112728496141,Si1H12N2O4F6
SiH12(NF)4,mp-1195832,5.025399999999999,-2.13028808,0.012002974619047535,"{14: 1, 1: 12, 7: 4, 9: 4}","[1, 7, 9, 14]",1127494141,Si1H12N4F4
CaVSi4H12O11,mp-1214832,0.03570000000000001,0.36653389,0.29817106333333143,"{20: 1, 23: 1, 14: 4, 1: 12, 8: 11}","[1, 8, 14, 20, 23]",112811144201231,Ca1V1Si4H12O11
CaU2Si2H12O17,mp-730691,1.9307,0.52536535,0.01798450112744998,"{20: 1, 92: 2, 14: 2, 1: 12, 8: 17}","[1, 8, 14, 20, 92]",112817142201922,Ca1U2Si2H12O17
Ca13Si10H12(O17F5)2,mp-703370,5.0306999999999995,0.81388765,0.01642807002109503,"{20: 13, 14: 10, 1: 12, 8: 34, 9: 10}","[1, 8, 9, 14, 20]",11283491014102013,Ca13Si10H12O34F10
Ca2Mn7Si10H12O35,mp-1228000,2.7286,2.35506727,0.009628449785352267,"{20: 2, 25: 7, 14: 10, 1: 12, 8: 35}","[1, 8, 14, 20, 25]",1128351410202257,Ca2Mn7Si10H12O35
MgSiH12(OF)6,mp-759312,5.6666,-2.48552748,0.00582176386751776,"{12: 1, 14: 1, 1: 12, 8: 6, 9: 6}","[1, 8, 9, 12, 14]",1128696121141,Mg1Si1H12O6F6
CrSiH12(OF)6,mp-1255651,2.8104,3.17660554,0.008519174615388536,"{24: 1, 14: 1, 1: 12, 8: 6, 9: 6}","[1, 8, 9, 14, 24]",1128696141241,Cr1Si1H12O6F6
MnSiH12(OF)6,mp-1181030,4.1847,-1.595862,0.0014828375854598619,"{25: 1, 14: 1, 1: 12, 8: 6, 9: 6}","[1, 8, 9, 14, 25]",1128696141251,Mn1Si1H12O6F6
CoSiH12(OF)6,mp-24122,0.0,0.39089775,0.02585772771367445,"{27: 1, 14: 1, 1: 12, 8: 6, 9: 6}","[1, 8, 9, 14, 27]",1128696141271,Co1Si1H12O6F6
ZnSiH12(OF)6,mp-40134,5.0995,-2.3068739,0.0,"{30: 1, 14: 1, 1: 12, 8: 6, 9: 6}","[1, 8, 9, 14, 30]",1128696141301,Zn1Si1H12O6F6
Na2Si(H4O3)3,mp-24369,4.6935,-1.04958119,0.01121856833332835,"{11: 2, 14: 1, 1: 12, 8: 9}","[1, 8, 11, 14]",11289112141,Na2Si1H12O9
Na3Si,mp-1186079,0.0,1.89130141,0.1790987975862075,"{11: 3, 14: 1}","[11, 14]",113141,Na3Si1
K2Na3SiP3,mp-541694,0.8900999999999999,1.94149242,0.0,"{19: 2, 11: 3, 14: 1, 15: 3}","[11, 14, 15, 19]",113141153192,K2Na3Si1P3
Na3SiSe4,mp-28303,1.7548000000000001,1.07745785,0.0,"{11: 3, 14: 1, 34: 4}","[11, 14, 34]",113141344,Na3Si1Se4
Na3SiTe3,mp-17291,1.8159,2.31161599,0.0,"{11: 3, 14: 1, 52: 3}","[11, 14, 52]",113141523,Na3Si1Te3
Na3Si17,mp-1180295,0.0,5.86501912,0.022248642687498155,"{11: 3, 14: 17}","[11, 14]",1131417,Na3Si17
Na3Sm2(SiSe3)2,mp-1210213,0.0,3.49636287,0.24265273330528903,"{11: 3, 62: 2, 14: 2, 34: 6}","[11, 14, 34, 62]",113142346622,Na3Sm2Si2Se6
Na3Eu2(SiSe3)2,mp-1210417,0.0,4.38045855,0.12303205326923283,"{11: 3, 63: 2, 14: 2, 34: 6}","[11, 14, 34, 63]",113142346632,Na3Eu2Si2Se6
Na3Eu2(SiTe3)2,mp-1210422,0.0,4.6307338,0.07894698432692504,"{11: 3, 63: 2, 14: 2, 52: 6}","[11, 14, 52, 63]",113142526632,Na3Eu2Si2Te6
Na3Si34,mp-1221235,0.0,5.51959894,0.05178974374999967,"{11: 3, 14: 34}","[11, 14]",1131434,Na3Si34
Na4Mg(SiSe3)2,mp-1103351,2.7632000000000003,1.79424014,0.0,"{11: 4, 12: 1, 14: 2, 34: 6}","[11, 12, 14, 34]",114121142346,Na4Mg1Si2Se6
Na4Ca2SiP4,mp-1221207,1.0094000000000003,3.7875865,0.0,"{11: 4, 20: 2, 14: 1, 15: 4}","[11, 14, 15, 20]",114141154202,Na4Ca2Si1P4
Na4Sr2SiP4,mp-1221153,0.9527000000000001,3.37252655,0.0,"{11: 4, 38: 2, 14: 1, 15: 4}","[11, 14, 15, 38]",114141154382,Na4Sr2Si1P4
Na4Eu2SiP4,mp-1221229,0.0,3.6293822,0.0,"{11: 4, 63: 2, 14: 1, 15: 4}","[11, 14, 15, 63]",114141154632,Na4Eu2Si1P4
Na4Ca2SiAs4,mp-1221206,0.6318999999999999,3.06312385,0.0,"{11: 4, 20: 2, 14: 1, 33: 4}","[11, 14, 20, 33]",114141202334,Na4Ca2Si1As4
Na4Sr2SiAs4,mp-1221154,0.5886,2.67677285,0.0,"{11: 4, 38: 2, 14: 1, 33: 4}","[11, 14, 33, 38]",114141334382,Na4Sr2Si1As4
Na4Eu2SiAs4,mp-1221214,0.0,3.06575139,0.0,"{11: 4, 63: 2, 14: 1, 33: 4}","[11, 14, 33, 63]",114141334632,Na4Eu2Si1As4
Na4SiSe4,mp-30931,2.1322,0.97346008,0.0,"{11: 4, 14: 1, 34: 4}","[11, 14, 34]",114141344,Na4Si1Se4
Na4Ga4Si19,mp-1195858,0.7966999999999995,5.11322289,0.06492820293987656,"{11: 4, 31: 4, 14: 19}","[11, 14, 31]",1141419314,Na4Ga4Si19
Na4SrCaSi2,mp-1221144,0.1322000000000001,2.24424119,0.1986329704741383,"{11: 4, 38: 1, 20: 1, 14: 2}","[11, 14, 20, 38]",114142201381,Na4Sr1Ca1Si2
Na4Si23,mp-186,0.0,6.12101622,0.026209941851851326,"{11: 4, 14: 23}","[11, 14]",1141423,Na4Si23
Na4Eu(SiSe3)2,mp-1221181,0.9075999999999995,4.33246839,0.0,"{11: 4, 63: 1, 14: 2, 34: 6}","[11, 14, 34, 63]",114142346631,Na4Eu1Si2Se6
Na4Si2PbSe6,mp-1221146,2.0895,4.27985779,0.0,"{11: 4, 14: 2, 82: 1, 34: 6}","[11, 14, 34, 82]",114142346821,Na4Si2Pb1Se6
Na4Si2Te5,mp-569337,1.8779000000000003,2.59968701,0.0,"{11: 4, 14: 2, 52: 5}","[11, 14, 52]",114142525,Na4Si2Te5
Na4Eu(SiTe3)2,mp-1221196,0.5257999999999998,4.43708518,0.0,"{11: 4, 63: 1, 14: 2, 52: 6}","[11, 14, 52, 63]",114142526631,Na4Eu1Si2Te6
CeBeSiHO5,mp-1255268,0.0,8.96681703,0.020206833268521684,"{58: 1, 4: 1, 14: 1, 1: 1, 8: 5}","[1, 4, 8, 14, 58]",114185141581,Ce1Be1Si1H1O5
NaBeSi3HO8,mp-556001,5.2827,1.90121543,0.0,"{11: 1, 4: 1, 14: 3, 1: 1, 8: 8}","[1, 4, 8, 11, 14]",114188111143,Na1Be1Si3H1O8
Ca6MnBe4Si6HO24,mp-1203787,0.0,2.84198,0.04211697945766968,"{20: 6, 25: 1, 4: 4, 14: 6, 1: 1, 8: 24}","[1, 4, 8, 14, 20, 25]",1144824146206251,Ca6Mn1Be4Si6H1O24
U2CoSi2(H7O9)2,mp-1208188,1.6392,0.38584408,0.0417469071171066,"{92: 2, 27: 1, 14: 2, 1: 14, 8: 18}","[1, 8, 14, 27, 92]",114818142271922,U2Co1Si2H14O18
SiH14(O2F3)2,mp-1256602,7.287599999999999,3.68901859,0.027296801800003045,"{14: 1, 1: 14, 8: 4, 9: 6}","[1, 8, 9, 14]",1148496141,Si1H14O4F6
SiH14(OF)6,mp-1209032,6.2972,3.38951448,0.0,"{14: 1, 1: 14, 8: 6, 9: 6}","[1, 8, 9, 14]",1148696141,Si1H14O6F6
Na5SiP3,mp-5929,1.1432000000000002,2.80266352,0.0,"{11: 5, 14: 1, 15: 3}","[11, 14, 15]",115141153,Na5Si1P3
Na5SiAs3,mp-18139,1.0276999999999998,2.28241386,0.0,"{11: 5, 14: 1, 33: 3}","[11, 14, 33]",115141333,Na5Si1As3
Na5Si34,mp-1220793,0.0,5.7357059,0.03118311310897326,"{11: 5, 14: 34}","[11, 14]",1151434,Na5Si34
Na5Si51,mp-1220932,0.0,5.51103945,0.08834016254002464,"{11: 5, 14: 51}","[11, 14]",1151451,Na5Si51
CoSiH15N6(OF3)2,mp-1226454,2.7165,1.45188198,0.10352288056004522,"{27: 1, 14: 1, 1: 15, 7: 6, 8: 2, 9: 6}","[1, 7, 8, 9, 14, 27]",115768296141271,Co1Si1H15N6O2F6
Na6Ga5Si7H15O32,mp-1173745,1.426,1.98386071,0.12622844673077083,"{11: 6, 31: 5, 14: 7, 1: 15, 8: 32}","[1, 8, 11, 14, 31]",115832116147315,Na6Ga5Si7H15O32
Ca12Mn8Si7(H5O16)3,mp-746884,1.0723,0.9385728,0.20523580061727742,"{20: 12, 25: 8, 14: 7, 1: 15, 8: 48}","[1, 8, 14, 20, 25]",1158481472012258,Ca12Mn8Si7H15O48
Na6Si2Se7,mp-16961,2.1551,1.01075453,0.0,"{11: 6, 14: 2, 34: 7}","[11, 14, 34]",116142347,Na6Si2Se7
Na2SiH16O11,mp-504605,4.491899999999999,-1.20446555,0.010845258083334919,"{11: 2, 14: 1, 1: 16, 8: 11}","[1, 8, 11, 14]",116811112141,Na2Si1H16O11
NaCa4Si8H16O28F,mp-722188,4.8688,0.229475,0.017201803247114178,"{11: 1, 20: 4, 14: 8, 1: 16, 8: 28, 9: 1}","[1, 8, 9, 11, 14, 20]",11682891111148204,Na1Ca4Si8H16O28F1
KCa4Si8H16O28F,mp-1196532,4.8743,0.37235548,0.00829805112068982,"{19: 1, 20: 4, 14: 8, 1: 16, 8: 28, 9: 1}","[1, 8, 9, 14, 19, 20]",11682891148191204,K1Ca4Si8H16O28F1
KCa4Si8H16O29,mp-708991,0.9972000000000001,1.03165222,0.0258744594827629,"{19: 1, 20: 4, 14: 8, 1: 16, 8: 29}","[1, 8, 14, 19, 20]",116829148191204,K1Ca4Si8H16O29
Na8Zr3Si16Sn(H4O13)4,mp-1221041,4.433,4.91352318,0.0,"{11: 8, 40: 3, 14: 16, 50: 1, 1: 16, 8: 52}","[1, 8, 11, 14, 40, 50]",1168521181416403501,Na8Zr3Si16Sn1H16O52
Na7Si51,mp-1221185,0.0,5.68825555,0.07103930895065247,"{11: 7, 14: 51}","[11, 14]",1171451,Na7Si51
SiH17S3N5,mp-557080,3.344,0.1764319,0.0,"{14: 1, 1: 17, 16: 3, 7: 5}","[1, 7, 14, 16]",11775141163,Si1H17S3N5
Si12HN8,mp-976267,0.06229999999999958,5.88833549,0.36514791089285836,"{14: 12, 1: 1, 7: 8}","[1, 7, 14]",11781412,Si12H1N8
KSr4Si8H17O29,mp-1224714,4.2387,0.56529409,0.01453054014124433,"{19: 1, 38: 4, 14: 8, 1: 17, 8: 29}","[1, 8, 14, 19, 38]",117829148191384,K1Sr4Si8H17O29
NaMg3Si3HO10,mp-1210338,3.5623,3.54828481,0.09039647409060514,"{11: 1, 12: 3, 14: 3, 1: 1, 8: 10}","[1, 8, 11, 12, 14]",11810111123143,Na1Mg3Si3H1O10
K2InSi4HO11,mp-775466,3.7414000000000005,1.07492053,0.0,"{19: 2, 49: 1, 14: 4, 1: 1, 8: 11}","[1, 8, 14, 19, 49]",11811144192491,K2In1Si4H1O11
NaMg3Si4HO12,mp-1221204,4.1913,2.4874881,0.000634167222222537,"{11: 1, 12: 3, 14: 4, 1: 1, 8: 12}","[1, 8, 11, 12, 14]",11812111123144,Na1Mg3Si4H1O12
MgSi3HO12,mp-1211175,0.0,-1.24726109,0.6495867910457447,"{12: 1, 14: 3, 1: 1, 8: 12}","[1, 8, 12, 14]",11812121143,Mg1Si3H1O12
Mn4Si3AsHO13,mp-733680,2.2148000000000003,2.96099964,0.010678370492422928,"{25: 4, 14: 3, 33: 1, 1: 1, 8: 13}","[1, 8, 14, 25, 33]",11813143254331,Mn4Si3As1H1O13
NaCaMn3Si5HO15,mp-1195048,3.1151,3.20114948,0.003155748750003795,"{11: 1, 20: 1, 25: 3, 14: 5, 1: 1, 8: 15}","[1, 8, 11, 14, 20, 25]",11815111145201253,Na1Ca1Mn3Si5H1O15
Mn6VSi5HO19,mp-729576,0.7677000000000005,4.26977654,0.0057127912109073975,"{25: 6, 23: 1, 14: 5, 1: 1, 8: 19}","[1, 8, 14, 23, 25]",11819145231256,Mn6V1Si5H1O19
K2NaCa2TiSi7HO20,mp-720410,3.4517,4.58713428,0.0,"{19: 2, 11: 1, 20: 2, 22: 1, 14: 7, 1: 1, 8: 20}","[1, 8, 11, 14, 19, 20, 22]",11820111147192202221,K2Na1Ca2Ti1Si7H1O20
Na2CaZr2Si10HO26,mp-1212565,1.5226,0.97358263,0.12724629629960305,"{11: 2, 20: 1, 40: 2, 14: 10, 1: 1, 8: 26}","[1, 8, 11, 14, 20, 40]",118261121410201402,Na2Ca1Zr2Si10H1O26
KSiHO3,mp-707195,4.768199999999999,0.14661194,0.0,"{19: 1, 14: 1, 1: 1, 8: 3}","[1, 8, 14, 19]",1183141191,K1Si1H1O3
Mg16Si7HO32,mp-707534,0.0,3.93589003,0.13554212515624808,"{12: 16, 14: 7, 1: 1, 8: 32}","[1, 8, 12, 14]",118321216147,Mg16Si7H1O32
Mg16Si8HO32,mp-1248719,1.9036999999999997,4.22286133,0.049059064539477504,"{12: 16, 14: 8, 1: 1, 8: 32}","[1, 8, 12, 14]",118321216148,Mg16Si8H1O32
NaCaSiHO4,mp-634418,4.4923,1.42958548,0.0,"{11: 1, 20: 1, 14: 1, 1: 1, 8: 4}","[1, 8, 11, 14, 20]",1184111141201,Na1Ca1Si1H1O4
NaZnSiHO4,mp-699219,3.4269,0.67180708,0.0,"{11: 1, 30: 1, 14: 1, 1: 1, 8: 4}","[1, 8, 11, 14, 30]",1184111141301,Na1Zn1Si1H1O4
KCaSiHO4,mp-995190,4.3515,1.25866,0.02002278329241669,"{19: 1, 20: 1, 14: 1, 1: 1, 8: 4}","[1, 8, 14, 19, 20]",1184141191201,K1Ca1Si1H1O4
RbSrSiHO4,mp-995216,4.0584,0.96009017,0.01831621795138627,"{37: 1, 38: 1, 14: 1, 1: 1, 8: 4}","[1, 8, 14, 37, 38]",1184141371381,Rb1Sr1Si1H1O4
CsSrSiHO4,mp-1259697,3.9486,0.89128405,0.03250459822916696,"{55: 1, 38: 1, 14: 1, 1: 1, 8: 4}","[1, 8, 14, 38, 55]",1184141381551,Cs1Sr1Si1H1O4
K3Zr4Si12HO44,mp-1226025,0.0,-0.86683305,0.11596080212239634,"{19: 3, 40: 4, 14: 12, 1: 1, 8: 44}","[1, 8, 14, 19, 40]",118441412193404,K3Zr4Si12H1O44
SiPHO5,mp-1202714,5.373000000000001,3.5260527,0.04938624520833379,"{14: 1, 15: 1, 1: 1, 8: 5}","[1, 8, 14, 15]",1185141151,Si1P1H1O5
CaMnSiHO5,mp-24017,0.0,4.19224207,0.01083597543210324,"{20: 1, 25: 1, 14: 1, 1: 1, 8: 5}","[1, 8, 14, 20, 25]",1185141201251,Ca1Mn1Si1H1O5
Zn2SiHO5,mp-1106222,0.1073,-0.52159055,0.12982552798611025,"{30: 2, 14: 1, 1: 1, 8: 5}","[1, 8, 14, 30]",1185141302,Zn2Si1H1O5
Rb5SiHO5,mp-861513,2.5914,0.76175811,0.0,"{37: 5, 14: 1, 1: 1, 8: 5}","[1, 8, 14, 37]",1185141375,Rb5Si1H1O5
KSi2HO5,mp-1203642,5.0122,-0.01856024,0.0,"{19: 1, 14: 2, 1: 1, 8: 5}","[1, 8, 14, 19]",1185142191,K1Si2H1O5
CsSi2HO5,mp-1226125,4.7013,-0.0286422,0.0,"{55: 1, 14: 2, 1: 1, 8: 5}","[1, 8, 14, 55]",1185142551,Cs1Si2H1O5
KUSiHO6,mp-1211875,2.1687999999999996,2.81841406,0.01415033154166423,"{19: 1, 92: 1, 14: 1, 1: 1, 8: 6}","[1, 8, 14, 19, 92]",1186141191921,K1U1Si1H1O6
CaZn2Si2HO7,mp-1213903,2.064,2.90704565,0.19634596025641304,"{20: 1, 30: 2, 14: 2, 1: 1, 8: 7}","[1, 8, 14, 20, 30]",1187142201302,Ca1Zn2Si2H1O7
CsSi3HO7,mp-758180,4.7963000000000005,0.47716031,0.0037858090972235914,"{55: 1, 14: 3, 1: 1, 8: 7}","[1, 8, 14, 55]",1187143551,Cs1Si3H1O7
Na2Si(H3O2)6,mp-722977,4.7453,-1.47556428,0.012910729090911843,"{11: 2, 14: 1, 1: 18, 8: 12}","[1, 8, 11, 14]",118812112141,Na2Si1H18O12
Na4Si4H18O19,mp-1199706,4.8497,-0.8358247,0.011987793888894593,"{11: 4, 14: 4, 1: 18, 8: 19}","[1, 8, 11, 14]",118819114144,Na4Si4H18O19
NaCa2Si3HO9,mp-23792,4.848599999999999,1.6570081,0.0,"{11: 1, 20: 2, 14: 3, 1: 1, 8: 9}","[1, 8, 11, 14, 20]",1189111143202,Na1Ca2Si3H1O9
CaScSi3HO9,mp-707027,5.101800000000001,1.71378971,0.002639882824077233,"{20: 1, 21: 1, 14: 3, 1: 1, 8: 9}","[1, 8, 14, 20, 21]",1189143201211,Ca1Sc1Si3H1O9
Ca5Si2HO9F,mp-1251187,2.7934,2.96277201,0.8196614408333343,"{20: 5, 14: 2, 1: 1, 8: 9, 9: 1}","[1, 8, 9, 14, 20]",118991142205,Ca5Si2H1O9F1
Na9Sm(SiSe3)4,mp-1220844,2.3998999999999997,1.51316892,0.0,"{11: 9, 62: 1, 14: 4, 34: 12}","[11, 14, 34, 62]",1191443412621,Na9Sm1Si4Se12
MgSi,mp-1073794,0.0,5.08321931,0.09911246166666698,"{12: 1, 14: 1}","[12, 14]",121141,Mg1Si1
MgSiP2,mp-2961,1.3728000000000007,4.14841178,0.0,"{12: 1, 14: 1, 15: 2}","[12, 14, 15]",121141152,Mg1Si1P2
CaMgSi,mp-5473,0.0,4.41301058,0.0,"{20: 1, 12: 1, 14: 1}","[12, 14, 20]",121141201,Ca1Mg1Si1
MgCo2Si,mp-1185849,0.0,7.70715769,0.031928345625000354,"{12: 1, 27: 2, 14: 1}","[12, 14, 27]",121141272,Mg1Co2Si1
MgSiAs2,mp-1016197,1.3031999999999995,3.34683907,0.0,"{12: 1, 14: 1, 33: 2}","[12, 14, 33]",121141332,Mg1Si1As2
SrMgSi,mp-15642,0.03299999999999992,3.96555844,0.0,"{38: 1, 12: 1, 14: 1}","[12, 14, 38]",121141381,Sr1Mg1Si1
MgSiRu2,mp-1096323,0.020399999999999974,-3.33140394,3.0174167945833337,"{12: 1, 14: 1, 44: 2}","[12, 14, 44]",121141442,Mg1Si1Ru2
MgSiRh2,mp-866087,0.0,8.38516166,0.0,"{12: 1, 14: 1, 45: 2}","[12, 14, 45]",121141452,Mg1Si1Rh2
MgSiPd2,mp-1095933,0.9470999999999998,-2.85437537,1.9214522538888898,"{12: 1, 14: 1, 46: 2}","[12, 14, 46]",121141462,Mg1Si1Pd2
MgSiSb2,mp-1078680,1.2745000000000002,5.08588894,0.050932129270834015,"{12: 1, 14: 1, 51: 2}","[12, 14, 51]",121141512,Mg1Si1Sb2
Pm2MgSi,mp-863696,0.0,4.72282169,0.0,"{61: 2, 12: 1, 14: 1}","[12, 14, 61]",121141612,Pm2Mg1Si1
EuMgSi,mp-1102652,0.0,4.12343029,0.0,"{63: 1, 12: 1, 14: 1}","[12, 14, 63]",121141631,Eu1Mg1Si1
MgSiIr2,mp-866086,0.0,10.02761156,0.0,"{12: 1, 14: 1, 77: 2}","[12, 14, 77]",121141772,Mg1Si1Ir2
MgSi2,mp-1073501,0.0,5.57385219,0.14196770000000036,"{12: 1, 14: 2}","[12, 14]",121142,Mg1Si2
La6Mg(SiS7)2,mp-1223141,1.9699,5.29862965,0.0,"{57: 6, 12: 1, 14: 2, 16: 14}","[12, 14, 16, 57]",1211421614576,La6Mg1Si2S14
SrMgSi2,mp-29002,0.0,5.07039545,0.0,"{38: 1, 12: 1, 14: 2}","[12, 14, 38]",121142381,Sr1Mg1Si2
LaMgSi2,mp-568173,0.0,7.40357793,0.0,"{57: 1, 12: 1, 14: 2}","[12, 14, 57]",121142571,La1Mg1Si2
La2MgSi2,mp-1205762,0.0,6.97733786,0.0,"{57: 2, 12: 1, 14: 2}","[12, 14, 57]",121142572,La2Mg1Si2
CeMgSi2,mp-3545,0.0,7.37839927,0.0,"{58: 1, 12: 1, 14: 2}","[12, 14, 58]",121142581,Ce1Mg1Si2
Ce2MgSi2,mp-505296,0.0,7.10789609,0.0,"{58: 2, 12: 1, 14: 2}","[12, 14, 58]",121142582,Ce2Mg1Si2
PrMgSi2,mp-569384,0.0,5.81753863,0.0,"{59: 1, 12: 1, 14: 2}","[12, 14, 59]",121142591,Pr1Mg1Si2
Pr2MgSi2,mp-1205589,0.0,4.67727157,0.0,"{59: 2, 12: 1, 14: 2}","[12, 14, 59]",121142592,Pr2Mg1Si2
NdMgSi2,mp-568049,0.0,5.82711109,0.0,"{60: 1, 12: 1, 14: 2}","[12, 14, 60]",121142601,Nd1Mg1Si2
Nd2MgSi2,mp-1205494,0.0,4.6637032,0.0,"{60: 2, 12: 1, 14: 2}","[12, 14, 60]",121142602,Nd2Mg1Si2
Sm2MgSi2,mp-1208848,0.0,4.65763606,0.0,"{62: 2, 12: 1, 14: 2}","[12, 14, 62]",121142622,Sm2Mg1Si2
Gd2MgSi2,mp-1205813,0.0,4.73513532,0.0,"{64: 2, 12: 1, 14: 2}","[12, 14, 64]",121142642,Gd2Mg1Si2
Tb2MgSi2,mp-1205816,0.0,4.94184728,0.0,"{65: 2, 12: 1, 14: 2}","[12, 14, 65]",121142652,Tb2Mg1Si2
Dy2MgSi2,mp-570561,0.0,4.8030281,0.0,"{66: 2, 12: 1, 14: 2}","[12, 14, 66]",121142662,Dy2Mg1Si2
Ho2MgSi2,mp-1205678,0.0,4.94803956,0.0,"{67: 2, 12: 1, 14: 2}","[12, 14, 67]",121142672,Ho2Mg1Si2
Er2MgSi2,mp-1206813,0.0,4.97391059,0.0,"{68: 2, 12: 1, 14: 2}","[12, 14, 68]",121142682,Er2Mg1Si2
Tm2MgSi2,mp-1206569,0.0,4.9624329,0.0,"{69: 2, 12: 1, 14: 2}","[12, 14, 69]",121142692,Tm2Mg1Si2
MgSi3,mp-1185967,0.0,8.01517547,0.40726580749999997,"{12: 1, 14: 3}","[12, 14]",121143,Mg1Si3
La2MgSi4,mp-1212647,0.0,7.11226739,0.5345235539285715,"{57: 2, 12: 1, 14: 4}","[12, 14, 57]",121144572,La2Mg1Si4
Ce2MgSi4,mp-1214287,0.0,6.83258245,0.5139271996428665,"{58: 2, 12: 1, 14: 4}","[12, 14, 58]",121144582,Ce2Mg1Si4
Pr2MgSi4,mp-1210440,0.0,5.3312075,0.5127127146428547,"{59: 2, 12: 1, 14: 4}","[12, 14, 59]",121144592,Pr2Mg1Si4
MgSi7Ir3,mp-13241,0.0,8.82817808,0.0,"{12: 1, 14: 7, 77: 3}","[12, 14, 77]",121147773,Mg1Si7Ir3
SiH2,mp-1192532,4.0154,-2.09035658,0.04025118283333384,"{14: 1, 1: 2}","[1, 14]",12141,Si1H2
KMg14Si,mp-1099101,0.0,3.19585567,0.17123122954687542,"{19: 1, 12: 14, 14: 1}","[12, 14, 19]",1214141191,K1Mg14Si1
CaMg14Si,mp-1028201,0.0,3.63144645,0.11165740421874992,"{20: 1, 12: 14, 14: 1}","[12, 14, 20]",1214141201,Ca1Mg14Si1
Mg14TiSi,mp-1026490,0.0,3.0028538,0.1679275334375001,"{12: 14, 22: 1, 14: 1}","[12, 14, 22]",1214141221,Mg14Ti1Si1