formula,material_id,band_gap,efermi,energy_above_hull,comp_atoms,sorted_keys_comp_atoms,comp_number,new_formula
Na8Ca2In2Si3(SO8)3,mp-2715207,1.5221,2.62140342,0.10721067462301814,"{11: 8, 20: 2, 49: 2, 14: 3, 16: 3, 8: 24}","[8, 11, 14, 16, 20, 49]",824118143163202492,Na8Ca2In2Si3S3O24
Na8Ca2La2Si3(SO8)3,mp-2715135,3.0244,2.35920799,0.0998066849553565,"{11: 8, 20: 2, 57: 2, 14: 3, 16: 3, 8: 24}","[8, 11, 14, 16, 20, 57]",824118143163202572,Na8Ca2La2Si3S3O24
Na8Ca3TiSi3(SO8)3,mp-2714952,1.5128000000000001,2.12710031,0.10442192654760785,"{11: 8, 20: 3, 22: 1, 14: 3, 16: 3, 8: 24}","[8, 11, 14, 16, 20, 22]",824118143163203221,Na8Ca3Ti1Si3S3O24
Na8Ca3Si3Ge(SO8)3,mp-2715061,1.3888000000000003,2.25908583,0.12624517529761992,"{11: 8, 20: 3, 14: 3, 32: 1, 16: 3, 8: 24}","[8, 11, 14, 16, 20, 32]",824118143163203321,Na8Ca3Si3Ge1S3O24
Na8Ca3ZrSi3(SO8)3,mp-2714944,3.0172,1.94971916,0.09443881952376998,"{11: 8, 20: 3, 40: 1, 14: 3, 16: 3, 8: 24}","[8, 11, 14, 16, 20, 40]",824118143163203401,Na8Ca3Zr1Si3S3O24
Na8Ca3Si3Sn(SO8)3,mp-2715168,1.4794999999999998,2.19300195,0.1076227558333338,"{11: 8, 20: 3, 14: 3, 50: 1, 16: 3, 8: 24}","[8, 11, 14, 16, 20, 50]",824118143163203501,Na8Ca3Si3Sn1S3O24
Na8Ca3HfSi3(SO8)3,mp-2715192,3.1109,2.13643244,0.09718088573411077,"{11: 8, 20: 3, 72: 1, 14: 3, 16: 3, 8: 24}","[8, 11, 14, 16, 20, 72]",824118143163203721,Na8Ca3Hf1Si3S3O24
Na8Sc2Zn2Si3(SO8)3,mp-2715015,2.3996999999999997,2.77246216,0.1090905184424571,"{11: 8, 21: 2, 30: 2, 14: 3, 16: 3, 8: 24}","[8, 11, 14, 16, 21, 30]",824118143163212302,Na8Sc2Zn2Si3S3O24
Na8TiZn3Si3(SO8)3,mp-2715109,1.8542999999999998,2.00118058,0.12026544028770036,"{11: 8, 22: 1, 30: 3, 14: 3, 16: 3, 8: 24}","[8, 11, 14, 16, 22, 30]",824118143163221303,Na8Ti1Zn3Si3S3O24
Na8Zn2Ga2Si3(SO8)3,mp-2715163,2.0752,2.70904308,0.14317285587301676,"{11: 8, 30: 2, 31: 2, 14: 3, 16: 3, 8: 24}","[8, 11, 14, 16, 30, 31]",824118143163302312,Na8Zn2Ga2Si3S3O24
Na8Zn2In2Si3(SO8)3,mp-2714934,2.1314,2.63002615,0.12092897809524139,"{11: 8, 30: 2, 49: 2, 14: 3, 16: 3, 8: 24}","[8, 11, 14, 16, 30, 49]",824118143163302492,Na8Zn2In2Si3S3O24
Na8La2Zn2Si3(SO8)3,mp-2715186,2.8928000000000003,1.97969668,0.142221061507934,"{11: 8, 57: 2, 30: 2, 14: 3, 16: 3, 8: 24}","[8, 11, 14, 16, 30, 57]",824118143163302572,Na8La2Zn2Si3S3O24
Na8Zn3Si3Ge(SO8)3,mp-2714955,1.6145999999999998,2.38419107,0.13955985873015564,"{11: 8, 30: 3, 14: 3, 32: 1, 16: 3, 8: 24}","[8, 11, 14, 16, 30, 32]",824118143163303321,Na8Zn3Si3Ge1S3O24
Na8ZrZn3Si3(SO8)3,mp-2715211,3.0348,1.97602705,0.11703988477512883,"{11: 8, 40: 1, 30: 3, 14: 3, 16: 3, 8: 24}","[8, 11, 14, 16, 30, 40]",824118143163303401,Na8Zr1Zn3Si3S3O24
Na8Zn3Si3Sn(SO8)3,mp-2715050,1.7651,2.62111057,0.12825360896825266,"{11: 8, 30: 3, 14: 3, 50: 1, 16: 3, 8: 24}","[8, 11, 14, 16, 30, 50]",824118143163303501,Na8Zn3Si3Sn1S3O24
Na8HfZn3Si3(SO8)3,mp-2715033,3.1663000000000006,2.01641788,0.12136949376984152,"{11: 8, 72: 1, 30: 3, 14: 3, 16: 3, 8: 24}","[8, 11, 14, 16, 30, 72]",824118143163303721,Na8Hf1Zn3Si3S3O24
Na8CaTi3Si4(PO12)2,mp-2715573,2.2134,2.01010636,0.05429061168650495,"{11: 8, 20: 1, 22: 3, 14: 4, 15: 2, 8: 24}","[8, 11, 14, 15, 20, 22]",824118144152201223,Na8Ca1Ti3Si4P2O24
Na8CaSi4Ge3(PO12)2,mp-2716143,2.0589000000000004,2.4249061,0.10121431815476267,"{11: 8, 20: 1, 14: 4, 32: 3, 15: 2, 8: 24}","[8, 11, 14, 15, 20, 32]",824118144152201323,Na8Ca1Si4Ge3P2O24
Na8CaZr3Si4(PO12)2,mp-2715685,3.7991,1.71139145,0.03372760255952123,"{11: 8, 20: 1, 40: 3, 14: 4, 15: 2, 8: 24}","[8, 11, 14, 15, 20, 40]",824118144152201403,Na8Ca1Zr3Si4P2O24
Na8CaSi4Sn3(PO12)2,mp-2715800,2.2038,2.54906627,0.050030900892857666,"{11: 8, 20: 1, 14: 4, 50: 3, 15: 2, 8: 24}","[8, 11, 14, 15, 20, 50]",824118144152201503,Na8Ca1Si4Sn3P2O24
Na8CaHf3Si4(PO12)2,mp-2715718,4.0731,1.72750867,0.023745070029765003,"{11: 8, 20: 1, 72: 3, 14: 4, 15: 2, 8: 24}","[8, 11, 14, 15, 20, 72]",824118144152201723,Na8Ca1Hf3Si4P2O24
Na8Sc3NbSi4(PO12)2,mp-2715680,2.4011,1.89592512,0.027604485367065834,"{11: 8, 21: 3, 41: 1, 14: 4, 15: 2, 8: 24}","[8, 11, 14, 15, 21, 41]",824118144152213411,Na8Sc3Nb1Si4P2O24
Na8Sc3TaSi4(PO12)2,mp-2715678,3.2908999999999997,2.0477624,0.023869988958332478,"{11: 8, 21: 3, 73: 1, 14: 4, 15: 2, 8: 24}","[8, 11, 14, 15, 21, 73]",824118144152213731,Na8Sc3Ta1Si4P2O24
Na8Ti3ZnSi4(PO12)2,mp-2715700,2.086,2.21184607,0.04867762202382231,"{11: 8, 22: 3, 30: 1, 14: 4, 15: 2, 8: 24}","[8, 11, 14, 15, 22, 30]",824118144152223301,Na8Ti3Zn1Si4P2O24
Na8ZnSi4Ge3(PO12)2,mp-2715549,1.9716999999999998,2.79174702,0.08947674819444629,"{11: 8, 30: 1, 14: 4, 32: 3, 15: 2, 8: 24}","[8, 11, 14, 15, 30, 32]",824118144152301323,Na8Zn1Si4Ge3P2O24
Na8Zr3ZnSi4(PO12)2,mp-2716176,3.5681,1.98853877,0.03510989101190187,"{11: 8, 40: 3, 30: 1, 14: 4, 15: 2, 8: 24}","[8, 11, 14, 15, 30, 40]",824118144152301403,Na8Zr3Zn1Si4P2O24
Na8ZnSi4Sn3(PO12)2,mp-2716155,2.2245000000000004,2.99282916,0.048726108789685085,"{11: 8, 30: 1, 14: 4, 50: 3, 15: 2, 8: 24}","[8, 11, 14, 15, 30, 50]",824118144152301503,Na8Zn1Si4Sn3P2O24
Na8Hf3ZnSi4(PO12)2,mp-2715550,3.7712,1.97060921,0.026510418799595925,"{11: 8, 72: 3, 30: 1, 14: 4, 15: 2, 8: 24}","[8, 11, 14, 15, 30, 72]",824118144152301723,Na8Hf3Zn1Si4P2O24
Na8NbGa3Si4(PO12)2,mp-2716241,2.34,2.22390907,0.06522068283730054,"{11: 8, 41: 1, 31: 3, 14: 4, 15: 2, 8: 24}","[8, 11, 14, 15, 31, 41]",824118144152313411,Na8Nb1Ga3Si4P2O24
Na8TaGa3Si4(PO12)2,mp-2716255,3.0694999999999997,2.32948109,0.06379609436507927,"{11: 8, 73: 1, 31: 3, 14: 4, 15: 2, 8: 24}","[8, 11, 14, 15, 31, 73]",824118144152313731,Na8Ta1Ga3Si4P2O24
Na8NbIn3Si4(PO12)2,mp-2716246,2.4586000000000006,2.43113732,0.03968212531745774,"{11: 8, 41: 1, 49: 3, 14: 4, 15: 2, 8: 24}","[8, 11, 14, 15, 41, 49]",824118144152411493,Na8Nb1In3Si4P2O24
Na8La3NbSi4(PO12)2,mp-2715620,2.4741,2.28036902,0.0793850599999999,"{11: 8, 57: 3, 41: 1, 14: 4, 15: 2, 8: 24}","[8, 11, 14, 15, 41, 57]",824118144152411573,Na8La3Nb1Si4P2O24
Na8TaIn3Si4(PO12)2,mp-2715648,3.3088,2.48935934,0.034980188115076416,"{11: 8, 73: 1, 49: 3, 14: 4, 15: 2, 8: 24}","[8, 11, 14, 15, 49, 73]",824118144152493731,Na8Ta1In3Si4P2O24
Na8La3TaSi4(PO12)2,mp-2716163,3.2673,2.35042157,0.07577561416666612,"{11: 8, 57: 3, 73: 1, 14: 4, 15: 2, 8: 24}","[8, 11, 14, 15, 57, 73]",824118144152573731,Na8La3Ta1Si4P2O24
Na8CaTi3Si5SO24,mp-2716191,2.0307,2.14178478,0.07037860283729636,"{11: 8, 20: 1, 22: 3, 14: 5, 16: 1, 8: 24}","[8, 11, 14, 16, 20, 22]",824118145161201223,Na8Ca1Ti3Si5S1O24
Na8CaSi5Ge3SO24,mp-2716272,1.6863000000000001,2.45126075,0.11170674228174704,"{11: 8, 20: 1, 14: 5, 32: 3, 16: 1, 8: 24}","[8, 11, 14, 16, 20, 32]",824118145161201323,Na8Ca1Si5Ge3S1O24
Na8CaZr3Si5SO24,mp-2716243,3.6301,1.82564508,0.04810603388888346,"{11: 8, 20: 1, 40: 3, 14: 5, 16: 1, 8: 24}","[8, 11, 14, 16, 20, 40]",824118145161201403,Na8Ca1Zr3Si5S1O24
Na8CaSi5Sn3SO24,mp-2715611,1.6616999999999997,2.79690592,0.06656495043650779,"{11: 8, 20: 1, 14: 5, 50: 3, 16: 1, 8: 24}","[8, 11, 14, 16, 20, 50]",824118145161201503,Na8Ca1Si5Sn3S1O24
Na8CaHf3Si5SO24,mp-2716135,3.4449000000000005,2.02653914,0.05009319016533098,"{11: 8, 20: 1, 72: 3, 14: 5, 16: 1, 8: 24}","[8, 11, 14, 16, 20, 72]",824118145161201723,Na8Ca1Hf3Si5S1O24
Na8Ca2Nb2Si5SO24,mp-2716171,1.8602999999999998,1.89093214,0.09866980630952504,"{11: 8, 20: 2, 41: 2, 14: 5, 16: 1, 8: 24}","[8, 11, 14, 16, 20, 41]",824118145161202412,Na8Ca2Nb2Si5S1O24
Na8Ca2Ta2Si5SO24,mp-2715745,2.6038999999999994,2.09544574,0.09393600547619929,"{11: 8, 20: 2, 73: 2, 14: 5, 16: 1, 8: 24}","[8, 11, 14, 16, 20, 73]",824118145161202732,Na8Ca2Ta2Si5S1O24
Na8Sc2Ti2Si5SO24,mp-2715758,2.7832000000000003,2.1296684,0.05080657010168643,"{11: 8, 21: 2, 22: 2, 14: 5, 16: 1, 8: 24}","[8, 11, 14, 16, 21, 22]",824118145161212222,Na8Sc2Ti2Si5S1O24
Na8Sc2Si5Ge2SO24,mp-2716244,2.8175999999999997,2.16787399,0.08121470803571729,"{11: 8, 21: 2, 14: 5, 32: 2, 16: 1, 8: 24}","[8, 11, 14, 16, 21, 32]",824118145161212322,Na8Sc2Si5Ge2S1O24
Na8Zr2Sc2Si5SO24,mp-2716247,3.9711000000000003,1.7116235,0.03968663825889873,"{11: 8, 40: 2, 21: 2, 14: 5, 16: 1, 8: 24}","[8, 11, 14, 16, 21, 40]",824118145161212402,Na8Zr2Sc2Si5S1O24
Na8Sc2Si5Sn2SO24,mp-2715578,2.9377999999999997,2.44235302,0.04952941841269709,"{11: 8, 21: 2, 14: 5, 50: 2, 16: 1, 8: 24}","[8, 11, 14, 16, 21, 50]",824118145161212502,Na8Sc2Si5Sn2S1O24
Na8Hf2Sc2Si5SO24,mp-2715651,4.0386999999999995,1.82642274,0.03371152599703109,"{11: 8, 72: 2, 21: 2, 14: 5, 16: 1, 8: 24}","[8, 11, 14, 16, 21, 72]",824118145161212722,Na8Hf2Sc2Si5S1O24
Na8Sc3NbSi5SO24,mp-2715699,2.2222,2.15747822,0.04878233319692438,"{11: 8, 21: 3, 41: 1, 14: 5, 16: 1, 8: 24}","[8, 11, 14, 16, 21, 41]",824118145161213411,Na8Sc3Nb1Si5S1O24
Na8Sc3TaSi5SO24,mp-2715633,3.0532,2.21255199,0.04193223901042131,"{11: 8, 21: 3, 73: 1, 14: 5, 16: 1, 8: 24}","[8, 11, 14, 16, 21, 73]",824118145161213731,Na8Sc3Ta1Si5S1O24
Na8Ti2Ga2Si5SO24,mp-2716256,2.8145,2.12140043,0.06971106242063208,"{11: 8, 22: 2, 31: 2, 14: 5, 16: 1, 8: 24}","[8, 11, 14, 16, 22, 31]",824118145161222312,Na8Ti2Ga2Si5S1O24
Na8Ti2In2Si5SO24,mp-2715561,2.7442,2.29723385,0.055971271240073506,"{11: 8, 22: 2, 49: 2, 14: 5, 16: 1, 8: 24}","[8, 11, 14, 16, 22, 49]",824118145161222492,Na8Ti2In2Si5S1O24
Na8La2Ti2Si5SO24,mp-2716273,2.3431000000000006,2.26846525,0.0900804196825451,"{11: 8, 57: 2, 22: 2, 14: 5, 16: 1, 8: 24}","[8, 11, 14, 16, 22, 57]",824118145161222572,Na8La2Ti2Si5S1O24
Na8Ti3ZnSi5SO24,mp-2716167,2.1329999999999996,2.27083271,0.0634004987103296,"{11: 8, 22: 3, 30: 1, 14: 5, 16: 1, 8: 24}","[8, 11, 14, 16, 22, 30]",824118145161223301,Na8Ti3Zn1Si5S1O24
Na8ZnSi5Ge3SO24,mp-2715656,1.6480000000000001,2.73919947,0.10640039542659707,"{11: 8, 30: 1, 14: 5, 32: 3, 16: 1, 8: 24}","[8, 11, 14, 16, 30, 32]",824118145161301323,Na8Zn1Si5Ge3S1O24
Na8Zr3ZnSi5SO24,mp-2715771,3.3193,1.98579774,0.05828057682539267,"{11: 8, 40: 3, 30: 1, 14: 5, 16: 1, 8: 24}","[8, 11, 14, 16, 30, 40]",824118145161301403,Na8Zr3Zn1Si5S1O24
Na8ZnSi5Sn3SO24,mp-2715753,1.6475,3.10881321,0.07265906888889173,"{11: 8, 30: 1, 14: 5, 50: 3, 16: 1, 8: 24}","[8, 11, 14, 16, 30, 50]",824118145161301503,Na8Zn1Si5Sn3S1O24
Na8Hf3ZnSi5SO24,mp-2715639,3.4846000000000004,2.05725164,0.05059937805555936,"{11: 8, 72: 3, 30: 1, 14: 5, 16: 1, 8: 24}","[8, 11, 14, 16, 30, 72]",824118145161301723,Na8Hf3Zn1Si5S1O24
Na8Nb2Zn2Si5SO24,mp-2716172,1.6982,2.41271056,0.1013161999603227,"{11: 8, 41: 2, 30: 2, 14: 5, 16: 1, 8: 24}","[8, 11, 14, 16, 30, 41]",824118145161302412,Na8Nb2Zn2Si5S1O24
Na8Ta2Zn2Si5SO24,mp-2715676,2.3669999999999995,2.6859463,0.0982770481746087,"{11: 8, 73: 2, 30: 2, 14: 5, 16: 1, 8: 24}","[8, 11, 14, 16, 30, 73]",824118145161302732,Na8Ta2Zn2Si5S1O24
Na8Ga2Si5Ge2SO24,mp-2715601,2.9669000000000003,2.45224619,0.09534310382141964,"{11: 8, 31: 2, 14: 5, 32: 2, 16: 1, 8: 24}","[8, 11, 14, 16, 31, 32]",824118145161312322,Na8Ga2Si5Ge2S1O24
Na8Zr2Ga2Si5SO24,mp-2715654,3.6376,1.84097749,0.07095466980160126,"{11: 8, 40: 2, 31: 2, 14: 5, 16: 1, 8: 24}","[8, 11, 14, 16, 31, 40]",824118145161312402,Na8Zr2Ga2Si5S1O24
Na8Ga2Si5Sn2SO24,mp-2716225,2.869,2.53175658,0.07195902115079011,"{11: 8, 31: 2, 14: 5, 50: 2, 16: 1, 8: 24}","[8, 11, 14, 16, 31, 50]",824118145161312502,Na8Ga2Si5Sn2S1O24
Na8Hf2Ga2Si5SO24,mp-2716148,3.6063,1.96680192,0.06800328373016029,"{11: 8, 72: 2, 31: 2, 14: 5, 16: 1, 8: 24}","[8, 11, 14, 16, 31, 72]",824118145161312722,Na8Hf2Ga2Si5S1O24
Na8NbGa3Si5SO24,mp-2715730,2.2073,2.39533538,0.08843240740079672,"{11: 8, 41: 1, 31: 3, 14: 5, 16: 1, 8: 24}","[8, 11, 14, 16, 31, 41]",824118145161313411,Na8Nb1Ga3Si5S1O24
Na8TaGa3Si5SO24,mp-2715663,3.1956,2.37374992,0.08106686829365728,"{11: 8, 73: 1, 31: 3, 14: 5, 16: 1, 8: 24}","[8, 11, 14, 16, 31, 73]",824118145161313731,Na8Ta1Ga3Si5S1O24
Na8In2Si5Ge2SO24,mp-2715779,2.6191000000000004,2.58215142,0.08697360568452073,"{11: 8, 49: 2, 14: 5, 32: 2, 16: 1, 8: 24}","[8, 11, 14, 16, 32, 49]",824118145161322492,Na8In2Si5Ge2S1O24
Na8Zr2In2Si5SO24,mp-2716195,3.3846,1.99634386,0.04915815765872278,"{11: 8, 40: 2, 49: 2, 14: 5, 16: 1, 8: 24}","[8, 11, 14, 16, 40, 49]",824118145161402492,Na8Zr2In2Si5S1O24
Na8La2Zr2Si5SO24,mp-2715581,3.6707,2.07006203,0.06284840238095768,"{11: 8, 57: 2, 40: 2, 14: 5, 16: 1, 8: 24}","[8, 11, 14, 16, 40, 57]",824118145161402572,Na8La2Zr2Si5S1O24
Na8NbIn3Si5SO24,mp-2716177,2.3179999999999996,2.46534681,0.06293830703372194,"{11: 8, 41: 1, 49: 3, 14: 5, 16: 1, 8: 24}","[8, 11, 14, 16, 41, 49]",824118145161411493,Na8Nb1In3Si5S1O24
Na8La3NbSi5SO24,mp-2715637,2.524,2.26381339,0.09228537047618435,"{11: 8, 57: 3, 41: 1, 14: 5, 16: 1, 8: 24}","[8, 11, 14, 16, 41, 57]",824118145161411573,Na8La3Nb1Si5S1O24
Na8In2Si5Sn2SO24,mp-2716178,2.7307,2.57880564,0.05641130450394094,"{11: 8, 49: 2, 14: 5, 50: 2, 16: 1, 8: 24}","[8, 11, 14, 16, 49, 50]",824118145161492502,Na8In2Si5Sn2S1O24
Na8Hf2In2Si5SO24,mp-2716252,3.3283999999999994,2.23664129,0.04348657565475644,"{11: 8, 72: 2, 49: 2, 14: 5, 16: 1, 8: 24}","[8, 11, 14, 16, 49, 72]",824118145161492722,Na8Hf2In2Si5S1O24
Na8TaIn3Si5SO24,mp-2716134,2.9529,2.55942303,0.05842198792657882,"{11: 8, 73: 1, 49: 3, 14: 5, 16: 1, 8: 24}","[8, 11, 14, 16, 49, 73]",824118145161493731,Na8Ta1In3Si5S1O24
Na8La2Si5Sn2SO24,mp-2715726,2.2508999999999997,2.67132651,0.08660065468254086,"{11: 8, 57: 2, 14: 5, 50: 2, 16: 1, 8: 24}","[8, 11, 14, 16, 50, 57]",824118145161502572,Na8La2Si5Sn2S1O24
Na8La2Hf2Si5SO24,mp-2715572,3.6145000000000005,2.18450317,0.06382634369047313,"{11: 8, 57: 2, 72: 2, 14: 5, 16: 1, 8: 24}","[8, 11, 14, 16, 57, 72]",824118145161572722,Na8La2Hf2Si5S1O24
MgTi3SiS5O24,mp-2712827,1.6418000000000001,0.73065765,0.014300674093132848,"{12: 1, 22: 3, 14: 1, 16: 5, 8: 24}","[8, 12, 14, 16, 22]",824121141165223,Mg1Ti3Si1S5O24
MgSiGe3S5O24,mp-2712838,0.9175,1.85078785,0.06635860068626709,"{12: 1, 14: 1, 32: 3, 16: 5, 8: 24}","[8, 12, 14, 16, 32]",824121141165323,Mg1Si1Ge3S5O24
MgZr3SiS5O24,mp-2713085,2.7393,0.61296565,0.005927580637255403,"{12: 1, 40: 3, 14: 1, 16: 5, 8: 24}","[8, 12, 14, 16, 40]",824121141165403,Mg1Zr3Si1S5O24
MgSiSn3S5O24,mp-2712920,0.5127000000000002,1.92030103,0.045382713370079486,"{12: 1, 14: 1, 50: 3, 16: 5, 8: 24}","[8, 12, 14, 16, 50]",824121141165503,Mg1Si1Sn3S5O24
Hf3MgSiS5O24,mp-2713002,3.2251000000000003,0.94743909,0.005291912450981151,"{72: 3, 12: 1, 14: 1, 16: 5, 8: 24}","[8, 12, 14, 16, 72]",824121141165723,Hf3Mg1Si1S5O24
K8Mg(SiO3)8,mp-1234313,0.010299999999999976,-0.35481143,0.13248073407520167,"{19: 8, 12: 1, 14: 8, 8: 24}","[8, 12, 14, 19]",824121148198,K8Mg1Si8O24
Mg14Si5O24,mp-28663,4.677800000000001,3.72797459,0.020725268837208155,"{12: 14, 14: 5, 8: 24}","[8, 12, 14]",8241214145,Mg14Si5O24
Mg2Nb2SiS5O24,mp-2713053,0.7504,1.35170336,0.04751801063726635,"{12: 2, 41: 2, 14: 1, 16: 5, 8: 24}","[8, 12, 14, 16, 41]",824122141165412,Mg2Nb2Si1S5O24
Mg2Ta2SiS5O24,mp-2713083,1.3346,1.66290651,0.05107594188726772,"{12: 2, 73: 2, 14: 1, 16: 5, 8: 24}","[8, 12, 14, 16, 73]",824122141165732,Mg2Ta2Si1S5O24
SrCa3Mg4(SiO3)8,mp-1218570,4.9247000000000005,2.87236004,0.004990559343746703,"{38: 1, 20: 3, 12: 4, 14: 8, 8: 24}","[8, 12, 14, 20, 38]",824124148203381,Sr1Ca3Mg4Si8O24
Mg4Sc3(SiO3)8,mp-773046,0.0,7.35921378,0.07452533280983253,"{12: 4, 21: 3, 14: 8, 8: 24}","[8, 12, 14, 21]",824124148213,Mg4Sc3Si8O24
Mg5Mn3Zn4(SiO6)4,mp-1222211,0.0,1.93122611,0.11764613670833324,"{12: 5, 25: 3, 30: 4, 14: 4, 8: 24}","[8, 12, 14, 25, 30]",824125144253304,Mg5Mn3Zn4Si4O24
Ca2Mg5(SiO3)8,mp-1129406,0.017300000000000093,1.95688161,0.04481390286326015,"{20: 2, 12: 5, 14: 8, 8: 24}","[8, 12, 14, 20]",824125148202,Ca2Mg5Si8O24
Ca3Mg5(SiO3)8,mp-1227744,4.7643,2.60536899,0.00991857841666377,"{20: 3, 12: 5, 14: 8, 8: 24}","[8, 12, 14, 20]",824125148203,Ca3Mg5Si8O24
Mg7(SiO3)8,mp-729062,0.2745000000000002,2.14528343,0.05623344999999347,"{12: 7, 14: 8, 8: 24}","[8, 12, 14]",824127148,Mg7Si8O24
CaMg7(SiO3)8,mp-1227274,4.6611,2.90853924,0.015469288250006485,"{20: 1, 12: 7, 14: 8, 8: 24}","[8, 12, 14, 20]",824127148201,Ca1Mg7Si8O24
CaTi3SiS5O24,mp-2713108,1.6636,0.50692396,0.020490000612784165,"{20: 1, 22: 3, 14: 1, 16: 5, 8: 24}","[8, 14, 16, 20, 22]",824141165201223,Ca1Ti3Si1S5O24
CaSiGe3S5O24,mp-2712880,0.6953,1.18922861,0.10089538051469038,"{20: 1, 14: 1, 32: 3, 16: 5, 8: 24}","[8, 14, 16, 20, 32]",824141165201323,Ca1Si1Ge3S5O24
CaZr3SiS5O24,mp-2712857,2.5626,0.44828208,0.001595398529413039,"{20: 1, 40: 3, 14: 1, 16: 5, 8: 24}","[8, 14, 16, 20, 40]",824141165201403,Ca1Zr3Si1S5O24
CaSiSn3S5O24,mp-2712876,0.7087000000000001,1.5179859,0.04619179827203812,"{20: 1, 14: 1, 50: 3, 16: 5, 8: 24}","[8, 14, 16, 20, 50]",824141165201503,Ca1Si1Sn3S5O24
CaHf3SiS5O24,mp-2713012,3.1729000000000003,0.70796662,0.004013159607843875,"{20: 1, 72: 3, 14: 1, 16: 5, 8: 24}","[8, 14, 16, 20, 72]",824141165201723,Ca1Hf3Si1S5O24
Ca2Nb2SiS5O24,mp-2713035,0.9383,0.5834486,0.05326190718138335,"{20: 2, 41: 2, 14: 1, 16: 5, 8: 24}","[8, 14, 16, 20, 41]",824141165202412,Ca2Nb2Si1S5O24
Ca2Ta2SiS5O24,mp-2713091,1.4457,0.91061514,0.05955901992647572,"{20: 2, 73: 2, 14: 1, 16: 5, 8: 24}","[8, 14, 16, 20, 73]",824141165202732,Ca2Ta2Si1S5O24
Sc2Ti2SiS5O24,mp-2713119,2.3365,0.00870933,0.028747170808824052,"{21: 2, 22: 2, 14: 1, 16: 5, 8: 24}","[8, 14, 16, 21, 22]",824141165212222,Sc2Ti2Si1S5O24
Sc2SiGe2S5O24,mp-2713011,1.7067,0.52103264,0.0677784290196124,"{21: 2, 14: 1, 32: 2, 16: 5, 8: 24}","[8, 14, 16, 21, 32]",824141165212322,Sc2Si1Ge2S5O24
Zr2Sc2SiS5O24,mp-2712940,3.7533000000000003,-0.09702599,0.010537775833333818,"{40: 2, 21: 2, 14: 1, 16: 5, 8: 24}","[8, 14, 16, 21, 40]",824141165212402,Zr2Sc2Si1S5O24
Sc2SiSn2S5O24,mp-2712844,2.0557999999999996,0.86292228,0.04286302724262825,"{21: 2, 14: 1, 50: 2, 16: 5, 8: 24}","[8, 14, 16, 21, 50]",824141165212502,Sc2Si1Sn2S5O24
Hf2Sc2SiS5O24,mp-2712847,3.9145,0.17214811,0.008434889068627882,"{72: 2, 21: 2, 14: 1, 16: 5, 8: 24}","[8, 14, 16, 21, 72]",824141165212722,Hf2Sc2Si1S5O24
Sc3NbSiS5O24,mp-2712901,1.6135000000000002,0.53861439,0.036734334583344186,"{21: 3, 41: 1, 14: 1, 16: 5, 8: 24}","[8, 14, 16, 21, 41]",824141165213411,Sc3Nb1Si1S5O24
Sc3TaSiS5O24,mp-2713041,2.3464,0.68570548,0.04152187392157458,"{21: 3, 73: 1, 14: 1, 16: 5, 8: 24}","[8, 14, 16, 21, 73]",824141165213731,Sc3Ta1Si1S5O24
Ti2Ga2SiS5O24,mp-2713020,2.1879,0.57833555,0.03243135213234183,"{22: 2, 31: 2, 14: 1, 16: 5, 8: 24}","[8, 14, 16, 22, 31]",824141165222312,Ti2Ga2Si1S5O24
Ti2In2SiS5O24,mp-2712950,2.0061,0.55634719,0.03630832497549186,"{22: 2, 49: 2, 14: 1, 16: 5, 8: 24}","[8, 14, 16, 22, 49]",824141165222492,Ti2In2Si1S5O24
La2Ti2SiS5O24,mp-2712851,2.1201999999999996,0.23537158,0.05912324977942429,"{57: 2, 22: 2, 14: 1, 16: 5, 8: 24}","[8, 14, 16, 22, 57]",824141165222572,La2Ti2Si1S5O24
Ti3ZnSiS5O24,mp-2713008,1.6408,0.51591238,0.012338804583334806,"{22: 3, 30: 1, 14: 1, 16: 5, 8: 24}","[8, 14, 16, 22, 30]",824141165223301,Ti3Zn1Si1S5O24
ZnSiGe3S5O24,mp-2713000,0.4788000000000001,1.5028053,0.05023548757354224,"{30: 1, 14: 1, 32: 3, 16: 5, 8: 24}","[8, 14, 16, 30, 32]",824141165301323,Zn1Si1Ge3S5O24
Zr3ZnSiS5O24,mp-2712995,2.7460999999999998,0.44099084,0.004134068333333296,"{40: 3, 30: 1, 14: 1, 16: 5, 8: 24}","[8, 14, 16, 30, 40]",824141165301403,Zr3Zn1Si1S5O24
ZnSiSn3S5O24,mp-2713001,0.4468000000000001,1.72945495,0.044625198713215575,"{30: 1, 14: 1, 50: 3, 16: 5, 8: 24}","[8, 14, 16, 30, 50]",824141165301503,Zn1Si1Sn3S5O24
Hf3ZnSiS5O24,mp-2713116,3.2822,0.78213439,0.00396751637254944,"{72: 3, 30: 1, 14: 1, 16: 5, 8: 24}","[8, 14, 16, 30, 72]",824141165301723,Hf3Zn1Si1S5O24
Nb2Zn2SiS5O24,mp-2713017,1.1399000000000001,0.7893721,0.03917069156862851,"{41: 2, 30: 2, 14: 1, 16: 5, 8: 24}","[8, 14, 16, 30, 41]",824141165302412,Nb2Zn2Si1S5O24
Ta2Zn2SiS5O24,mp-2713051,1.5603000000000002,1.1501543,0.04503210075980402,"{73: 2, 30: 2, 14: 1, 16: 5, 8: 24}","[8, 14, 16, 30, 73]",824141165302732,Ta2Zn2Si1S5O24
Ga2SiGe2S5O24,mp-2713118,1.8950999999999998,1.24033397,0.06276873455882992,"{31: 2, 14: 1, 32: 2, 16: 5, 8: 24}","[8, 14, 16, 31, 32]",824141165312322,Ga2Si1Ge2S5O24
Zr2Ga2SiS5O24,mp-2712895,2.8252,0.4337944,0.025954368823529528,"{40: 2, 31: 2, 14: 1, 16: 5, 8: 24}","[8, 14, 16, 31, 40]",824141165312402,Zr2Ga2Si1S5O24