formula,material_id,band_gap,efermi,energy_above_hull,comp_atoms,sorted_keys_comp_atoms,comp_number,new_formula
CrSiRu2,mp-865791,0.0,9.07246722,0.0,"{24: 1, 14: 1, 44: 2}","[14, 24, 44]",141241442,Cr1Si1Ru2
CrSiTe3,mp-3779,0.0,4.38992867,0.0,"{24: 1, 14: 1, 52: 3}","[14, 24, 52]",141241523,Cr1Si1Te3
HfCrSi,mp-1102342,0.0,7.17659882,0.002417843333340386,"{72: 1, 24: 1, 14: 1}","[14, 24, 72]",141241721,Hf1Cr1Si1
CrSiW,mp-1226253,0.0,8.97109445,0.15037997583333151,"{24: 1, 14: 1, 74: 1}","[14, 24, 74]",141241741,Cr1Si1W1
CrSiOs2,mp-1097121,0.0,-3.87537967,3.9073618251388886,"{24: 1, 14: 1, 76: 2}","[14, 24, 76]",141241762,Cr1Si1Os2
Cr3Si,mp-729,0.0,8.58081601,0.0,"{24: 3, 14: 1}","[14, 24]",141243,Cr3Si1
Zr2Cr3Si,mp-1215601,0.0,6.17484193,0.0809251291666655,"{40: 2, 24: 3, 14: 1}","[14, 24, 40]",141243402,Zr2Cr3Si1
Hf2Cr3Si,mp-1223823,0.0,6.41615961,0.02988906333333219,"{72: 2, 24: 3, 14: 1}","[14, 24, 72]",141243722,Hf2Cr3Si1
Ta2Cr3Si,mp-1218008,0.0,7.24325551,0.024322066666666586,"{73: 2, 24: 3, 14: 1}","[14, 24, 73]",141243732,Ta2Cr3Si1
U2Cr3Si,mp-9394,0.0,10.71802487,0.13611088166666718,"{92: 2, 24: 3, 14: 1}","[14, 24, 92]",141243922,U2Cr3Si1
NbCr4Si,mp-1220471,0.0,7.21546787,0.3150680596666682,"{41: 1, 24: 4, 14: 1}","[14, 24, 41]",141244411,Nb1Cr4Si1
Tb3(Si3Ru)4,mp-1197099,0.0,8.26925293,0.0009447337719290516,"{65: 3, 14: 12, 44: 4}","[14, 44, 65]",1412444653,Tb3Si12Ru4
Dy3(Si3Ru)4,mp-1202318,0.0,8.25699478,0.002141567300853353,"{66: 3, 14: 12, 44: 4}","[14, 44, 66]",1412444663,Dy3Si12Ru4
Ho3(Si3Ru)4,mp-1199895,0.0,8.23890897,0.0012126502255673799,"{67: 3, 14: 12, 44: 4}","[14, 44, 67]",1412444673,Ho3Si12Ru4
Er3(Si3Ru)4,mp-5354,0.0,8.22829934,0.001241522280698959,"{68: 3, 14: 12, 44: 4}","[14, 44, 68]",1412444683,Er3Si12Ru4
Th3(Si3Ru)4,mp-1208274,0.0,9.33888184,0.12696901677628958,"{90: 3, 14: 12, 44: 4}","[14, 44, 90]",1412444903,Th3Si12Ru4
TaCr4Si,mp-1217999,0.0,7.39521019,0.3127910999999983,"{73: 1, 24: 4, 14: 1}","[14, 24, 73]",141244731,Ta1Cr4Si1
U4Cr7Si,mp-1216710,0.0,10.52555344,0.20651100874999884,"{92: 4, 24: 7, 14: 1}","[14, 24, 92]",141247924,U4Cr7Si1
Nb3Cr8Si,mp-1220673,0.0,6.68082185,0.1348245843055551,"{41: 3, 24: 8, 14: 1}","[14, 24, 41]",141248413,Nb3Cr8Si1
Ta3Cr8Si,mp-1218071,0.0,6.90561419,0.1429783675000067,"{73: 3, 24: 8, 14: 1}","[14, 24, 73]",141248733,Ta3Cr8Si1
MnSi,mp-1431,0.0,9.23793987,0.015901920380436252,"{25: 1, 14: 1}","[14, 25]",141251,Mn1Si1
MnCoSi,mp-19809,0.0,7.2101589,0.012301861249999213,"{25: 1, 27: 1, 14: 1}","[14, 25, 27]",141251271,Mn1Co1Si1
MnCo2Si,mp-4492,0.0,7.54046291,0.0,"{25: 1, 27: 2, 14: 1}","[14, 25, 27]",141251272,Mn1Co2Si1
MnSiAs2,mp-1206238,0.0,3.62323576,0.2539858268749997,"{25: 1, 14: 1, 33: 2}","[14, 25, 33]",141251332,Mn1Si1As2
MnSi(AgSe2)2,mp-1210646,0.6252,2.93966608,0.0,"{25: 1, 14: 1, 47: 2, 34: 4}","[14, 25, 34, 47]",141251344472,Mn1Si1Ag2Se4
ZrMnSi,mp-22227,0.0,6.3609513,0.0,"{40: 1, 25: 1, 14: 1}","[14, 25, 40]",141251401,Zr1Mn1Si1
MnNbSi,mp-7829,0.0,7.45112484,0.0,"{25: 1, 41: 1, 14: 1}","[14, 25, 41]",141251411,Mn1Nb1Si1
MnSiTc2,mp-864970,0.0,8.89088507,0.0,"{25: 1, 14: 1, 43: 2}","[14, 25, 43]",141251432,Mn1Si1Tc2
MnSiRu2,mp-864966,0.0,8.75133278,0.0,"{25: 1, 14: 1, 44: 2}","[14, 25, 44]",141251442,Mn1Si1Ru2
MnSiRh,mp-22565,0.0,7.15874726,0.036856208611112606,"{25: 1, 14: 1, 45: 1}","[14, 25, 45]",141251451,Mn1Si1Rh1
MnSiRh2,mp-865015,0.0,8.12665064,0.0,"{25: 1, 14: 1, 45: 2}","[14, 25, 45]",141251452,Mn1Si1Rh2
MnSi(AgTe2)2,mp-1210667,0.29720000000000013,3.89582611,0.025482757031255687,"{25: 1, 14: 1, 47: 2, 52: 4}","[14, 25, 47, 52]",141251472524,Mn1Si1Ag2Te4
LaMnSi,mp-19737,0.0,7.79123264,0.0,"{57: 1, 25: 1, 14: 1}","[14, 25, 57]",141251571,La1Mn1Si1
CeMnSi,mp-505331,0.0,7.80055932,0.009635902931037776,"{58: 1, 25: 1, 14: 1}","[14, 25, 58]",141251581,Ce1Mn1Si1
PrMnSi,mp-20333,0.0,5.34360957,0.007088736522988803,"{59: 1, 25: 1, 14: 1}","[14, 25, 59]",141251591,Pr1Mn1Si1
NdMnSi,mp-22256,0.0,5.33095344,0.005205855689656147,"{60: 1, 25: 1, 14: 1}","[14, 25, 60]",141251601,Nd1Mn1Si1
SmMnSi,mp-1019102,0.0,5.14808597,0.0,"{62: 1, 25: 1, 14: 1}","[14, 25, 62]",141251621,Sm1Mn1Si1
GdMnSi,mp-20553,0.0,5.13232148,0.0,"{64: 1, 25: 1, 14: 1}","[14, 25, 64]",141251641,Gd1Mn1Si1
TbMnSi,mp-20822,0.0,5.42976292,0.0,"{65: 1, 25: 1, 14: 1}","[14, 25, 65]",141251651,Tb1Mn1Si1
DyMnSi,mp-22101,0.0,5.56714066,0.04825933529556181,"{66: 1, 25: 1, 14: 1}","[14, 25, 66]",141251661,Dy1Mn1Si1
HoMnSi,mp-20380,0.0,5.20047184,0.04323838196222951,"{67: 1, 25: 1, 14: 1}","[14, 25, 67]",141251671,Ho1Mn1Si1
ErMnSi,mp-19738,0.0,5.2409614,0.036654389581279645,"{68: 1, 25: 1, 14: 1}","[14, 25, 68]",141251681,Er1Mn1Si1
TmMnSi,mp-1207683,0.0,5.2720389,0.030606036944445414,"{69: 1, 25: 1, 14: 1}","[14, 25, 69]",141251691,Tm1Mn1Si1
LuMnSi,mp-19967,0.0,5.52165216,0.016248343747946592,"{71: 1, 25: 1, 14: 1}","[14, 25, 71]",141251711,Lu1Mn1Si1
HfMnSi,mp-20192,0.0,6.81924173,0.0,"{72: 1, 25: 1, 14: 1}","[14, 25, 72]",141251721,Hf1Mn1Si1
TaMnSi,mp-1105570,0.0,7.76404363,0.0,"{73: 1, 25: 1, 14: 1}","[14, 25, 73]",141251731,Ta1Mn1Si1
MnSiOs2,mp-1093724,0.19300000000000006,-3.60612733,3.840456742222223,"{25: 1, 14: 1, 76: 2}","[14, 25, 76]",141251762,Mn1Si1Os2
MnSiIr,mp-21851,0.0,7.94817586,0.0,"{25: 1, 14: 1, 77: 1}","[14, 25, 77]",141251771,Mn1Si1Ir1
Mn2CoSi,mp-13082,0.0,8.12336178,0.02406287125000084,"{25: 2, 27: 1, 14: 1}","[14, 25, 27]",141252271,Mn2Co1Si1
Mn2Co2SiGe,mp-1222109,0.0,6.86103364,0.0054187233333351514,"{25: 2, 27: 2, 14: 1, 32: 1}","[14, 25, 27, 32]",141252272321,Mn2Co2Si1Ge1
PrMn2SiGe,mp-1219965,0.0,5.99605784,0.040468902749998925,"{59: 1, 25: 2, 14: 1, 32: 1}","[14, 25, 32, 59]",141252321591,Pr1Mn2Si1Ge1
DyMn2SiGe,mp-1225693,0.0,6.10266005,0.0015723132500014003,"{66: 1, 25: 2, 14: 1, 32: 1}","[14, 25, 32, 66]",141252321661,Dy1Mn2Si1Ge1
Mn2SiSe4,mp-17367,0.0,3.46451866,0.0,"{25: 2, 14: 1, 34: 4}","[14, 25, 34]",141252344,Mn2Si1Se4
SrMn2Si,mp-631376,0.0,3.99604912,0.8228455961111116,"{38: 1, 25: 2, 14: 1}","[14, 25, 38]",141252381,Sr1Mn2Si1
Mn2SiMo,mp-1221757,0.0,8.68374758,0.1234781812500021,"{25: 2, 14: 1, 42: 1}","[14, 25, 42]",141252421,Mn2Si1Mo1
Mn2SiRu,mp-999576,0.0,8.52887439,0.004972400711206859,"{25: 2, 14: 1, 44: 1}","[14, 25, 44]",141252441,Mn2Si1Ru1
Mn2SiRh,mp-1014005,0.0,7.24680279,0.3316169275000007,"{25: 2, 14: 1, 45: 1}","[14, 25, 45]",141252451,Mn2Si1Rh1
TaMn2Si,mp-1097620,0.2309000000000001,-2.90499204,3.521176707656255,"{73: 1, 25: 2, 14: 1}","[14, 25, 73]",141252731,Ta1Mn2Si1
Mn2SiW,mp-1093872,0.0,-2.93350336,3.792246654062499,"{25: 2, 14: 1, 74: 1}","[14, 25, 74]",141252741,Mn2Si1W1
Mn3Si,mp-20211,0.0,7.94000281,0.011287056422414565,"{25: 3, 14: 1}","[14, 25]",141253,Mn3Si1
Gd3Mn3Ga2Si,mp-1225060,0.0,4.13838234,0.14458815490421628,"{64: 3, 25: 3, 31: 2, 14: 1}","[14, 25, 31, 64]",141253312643,Gd3Mn3Ga2Si1
Tb3Mn3Ga2Si,mp-1217644,0.0,3.92226991,0.13379356545975796,"{65: 3, 25: 3, 31: 2, 14: 1}","[14, 25, 31, 65]",141253312653,Tb3Mn3Ga2Si1
Dy3Mn3Ga2Si,mp-21038,0.0,4.04493894,0.12190287555829116,"{66: 3, 25: 3, 31: 2, 14: 1}","[14, 25, 31, 66]",141253312663,Dy3Mn3Ga2Si1
Ho3Mn3Ga2Si,mp-567416,0.0,3.99946131,0.11159276778051375,"{67: 3, 25: 3, 31: 2, 14: 1}","[14, 25, 31, 67]",141253312673,Ho3Mn3Ga2Si1
Er3Mn3Ga2Si,mp-570867,0.0,4.07113342,0.10140438920908679,"{68: 3, 25: 3, 31: 2, 14: 1}","[14, 25, 31, 68]",141253312683,Er3Mn3Ga2Si1
Tm3Mn3Ga2Si,mp-570450,0.0,4.13418209,0.08982731265431987,"{69: 3, 25: 3, 31: 2, 14: 1}","[14, 25, 31, 69]",141253312693,Tm3Mn3Ga2Si1
Lu3Mn3Ga2Si,mp-568631,0.0,4.19125325,0.07182728087643664,"{71: 3, 25: 3, 31: 2, 14: 1}","[14, 25, 31, 71]",141253312713,Lu3Mn3Ga2Si1
Mn3SiW2,mp-1221815,0.0,7.77681064,0.02006315678160675,"{25: 3, 14: 1, 74: 2}","[14, 25, 74]",141253742,Mn3Si1W2
Mn3SiIr,mp-20330,0.0,7.56391878,0.12090502509999901,"{25: 3, 14: 1, 77: 1}","[14, 25, 77]",141253771,Mn3Si1Ir1
U2Mn3Si,mp-1207954,0.0,10.62027378,0.0,"{92: 2, 25: 3, 14: 1}","[14, 25, 92]",141253922,U2Mn3Si1
Zr3Mn8Si,mp-1215733,0.0,6.16081597,0.09528173760057435,"{40: 3, 25: 8, 14: 1}","[14, 25, 40]",141258403,Zr3Mn8Si1
Mn8Nb3Si,mp-1221787,0.0,6.67375061,0.058921651788192975,"{25: 8, 41: 3, 14: 1}","[14, 25, 41]",141258413,Mn8Nb3Si1
Ta3Mn8Si,mp-1218073,0.0,6.95692793,0.06901958668403374,"{73: 3, 25: 8, 14: 1}","[14, 25, 73]",141258733,Ta3Mn8Si1
CoSi,mp-7577,0.0,9.63997474,0.0,"{27: 1, 14: 1}","[14, 27]",141271,Co1Si1
Sm4Co10Si,mp-1212222,0.0,3.27228719,0.8344104261666709,"{62: 4, 27: 10, 14: 1}","[14, 27, 62]",1412710624,Sm4Co10Si1
Th4Co10Si,mp-1210543,0.0,6.52596938,0.3755056181333316,"{90: 4, 27: 10, 14: 1}","[14, 27, 90]",1412710904,Th4Co10Si1
ZrCoSi,mp-1102565,0.0,6.49591581,0.0,"{40: 1, 27: 1, 14: 1}","[14, 27, 40]",141271401,Zr1Co1Si1
NbCoSi,mp-1095573,0.0,7.22888561,0.0,"{41: 1, 27: 1, 14: 1}","[14, 27, 41]",141271411,Nb1Co1Si1
Nb4CoSi,mp-10003,0.0,5.79495023,0.012775998749997797,"{41: 4, 27: 1, 14: 1}","[14, 27, 41]",141271414,Nb4Co1Si1
CoSiMo,mp-1226108,0.0,9.37270996,0.092312985520838,"{27: 1, 14: 1, 42: 1}","[14, 27, 42]",141271421,Co1Si1Mo1
LaCoSi,mp-1018740,0.0,7.9722276,0.0,"{57: 1, 27: 1, 14: 1}","[14, 27, 57]",141271571,La1Co1Si1
CeCoSi,mp-1018660,0.0,8.0625001,0.0,"{58: 1, 27: 1, 14: 1}","[14, 27, 58]",141271581,Ce1Co1Si1
PrCoSi,mp-1018892,0.0,5.66774009,0.0,"{59: 1, 27: 1, 14: 1}","[14, 27, 59]",141271591,Pr1Co1Si1
NdCoSi,mp-21890,0.0,5.57903629,0.0,"{60: 1, 27: 1, 14: 1}","[14, 27, 60]",141271601,Nd1Co1Si1
SmCoSi,mp-1019108,0.0,5.65182592,0.0,"{62: 1, 27: 1, 14: 1}","[14, 27, 62]",141271621,Sm1Co1Si1
GdCoSi,mp-1077133,0.0,5.3723973,0.0,"{64: 1, 27: 1, 14: 1}","[14, 27, 64]",141271641,Gd1Co1Si1
TbCoSi,mp-21203,0.0,5.70194472,0.0,"{65: 1, 27: 1, 14: 1}","[14, 27, 65]",141271651,Tb1Co1Si1
DyCoSi,mp-19767,0.0,5.87310479,0.0,"{66: 1, 27: 1, 14: 1}","[14, 27, 66]",141271661,Dy1Co1Si1
HoCoSi,mp-510688,0.0,5.79464495,0.0,"{67: 1, 27: 1, 14: 1}","[14, 27, 67]",141271671,Ho1Co1Si1
ErCoSi,mp-1102621,0.0,5.87125874,0.0,"{68: 1, 27: 1, 14: 1}","[14, 27, 68]",141271681,Er1Co1Si1
TmCoSi,mp-1102633,0.0,5.78405468,0.0,"{69: 1, 27: 1, 14: 1}","[14, 27, 69]",141271691,Tm1Co1Si1
LuCoSi,mp-1102787,0.0,5.80034922,0.0,"{71: 1, 27: 1, 14: 1}","[14, 27, 71]",141271711,Lu1Co1Si1
HfCoSi,mp-1103227,0.0,6.93673541,0.0,"{72: 1, 27: 1, 14: 1}","[14, 27, 72]",141271721,Hf1Co1Si1
TaCoSi,mp-1102650,0.0,7.80598584,0.0,"{73: 1, 27: 1, 14: 1}","[14, 27, 73]",141271731,Ta1Co1Si1
CoSiW,mp-1226107,0.0,9.05126286,0.10276480499999963,"{27: 1, 14: 1, 74: 1}","[14, 27, 74]",141271741,Co1Si1W1
ThCoSi,mp-1025025,0.0,7.38743854,0.02276927937500517,"{90: 1, 27: 1, 14: 1}","[14, 27, 90]",141271901,Th1Co1Si1
UCoSi,mp-907952,0.0,9.87084748,0.06426677634615352,"{92: 1, 27: 1, 14: 1}","[14, 27, 92]",141271921,U1Co1Si1
Co2Si,mp-19905,0.0,8.31134351,0.0,"{27: 2, 14: 1}","[14, 27]",141272,Co2Si1
Co2SiGe,mp-1226449,0.0,8.76679059,0.02843328625000119,"{27: 2, 14: 1, 32: 1}","[14, 27, 32]",141272321,Co2Si1Ge1
EuCo2SiGe,mp-1225172,0.0,5.71071066,0.0,"{63: 1, 27: 2, 14: 1, 32: 1}","[14, 27, 32, 63]",141272321631,Eu1Co2Si1Ge1
Nb3Co2Si,mp-505627,0.0,6.2347052,0.052182121527778236,"{41: 3, 27: 2, 14: 1}","[14, 27, 41]",141272413,Nb3Co2Si1
La2Co2Si,mp-1206782,0.0,7.81311269,0.18336173014285606,"{57: 2, 27: 2, 14: 1}","[14, 27, 57]",141272572,La2Co2Si1
Co3Si,mp-1079393,0.0,7.62811055,0.06883505937499912,"{27: 3, 14: 1}","[14, 27]",141273,Co3Si1
Co3SiGe2,mp-1226179,0.0,7.23979137,0.013358060416669204,"{27: 3, 14: 1, 32: 2}","[14, 27, 32]",141273322,Co3Si1Ge2
Nb2Co3Si,mp-10366,0.0,6.71168609,0.0,"{41: 2, 27: 3, 14: 1}","[14, 27, 41]",141273412,Nb2Co3Si1
Co3SiMo2,mp-1226069,0.0,8.02796825,0.012031845972220623,"{27: 3, 14: 1, 42: 2}","[14, 27, 42]",141273422,Co3Si1Mo2
Ta2Co3Si,mp-1217775,0.0,7.06216099,0.0,"{73: 2, 27: 3, 14: 1}","[14, 27, 73]",141273732,Ta2Co3Si1
U2Co3Si,mp-1102105,0.0,10.9332697,0.0,"{92: 2, 27: 3, 14: 1}","[14, 27, 92]",141273922,U2Co3Si1
ZrCo4Si,mp-1215253,0.0,6.54081932,0.28356331924602873,"{40: 1, 27: 4, 14: 1}","[14, 27, 40]",141274401,Zr1Co4Si1
PrCo4Si,mp-1219690,0.0,5.91588113,0.0951971408333323,"{59: 1, 27: 4, 14: 1}","[14, 27, 59]",141274591,Pr1Co4Si1
GdCo4Si,mp-1225881,0.0,5.6304835,0.0634884469117587,"{64: 1, 27: 4, 14: 1}","[14, 27, 64]",141274641,Gd1Co4Si1
TaCo4Si,mp-1218046,0.0,6.99226758,0.31076402742063536,"{73: 1, 27: 4, 14: 1}","[14, 27, 73]",141274731,Ta1Co4Si1
Zr3Co8Si,mp-1216086,0.0,5.86621018,0.13110500116341406,"{40: 3, 27: 8, 14: 1}","[14, 27, 40]",141278403,Zr3Co8Si1
Nb3Co8Si,mp-1220724,0.0,6.31271964,0.15335160175346463,"{41: 3, 27: 8, 14: 1}","[14, 27, 41]",141278413,Nb3Co8Si1
Ce3Co8Si,mp-1191126,0.0,8.00693736,0.00836890166666393,"{58: 3, 27: 8, 14: 1}","[14, 27, 58]",141278583,Ce3Co8Si1
Ta3Co8Si,mp-1218133,0.0,6.50102534,0.1843906747685118,"{73: 3, 27: 8, 14: 1}","[14, 27, 73]",141278733,Ta3Co8Si1
ZnSiAs2,mp-3595,0.8866,3.55741743,0.0,"{30: 1, 14: 1, 33: 2}","[14, 30, 33]",141301332,Zn1Si1As2
SrZnSi,mp-9556,0.0,3.66077743,0.0,"{38: 1, 30: 1, 14: 1}","[14, 30, 38]",141301381,Sr1Zn1Si1
ZnSiTc2,mp-1097179,0.39469999999999983,-3.06072811,3.0753994890178546,"{30: 1, 14: 1, 43: 2}","[14, 30, 43]",141301432,Zn1Si1Tc2
ZnSiRu2,mp-1095749,0.0,-3.26471522,2.944495948958334,"{30: 1, 14: 1, 44: 2}","[14, 30, 44]",141301442,Zn1Si1Ru2
ZnSiRh2,mp-977384,0.0,7.74963152,0.0,"{30: 1, 14: 1, 45: 2}","[14, 30, 45]",141301452,Zn1Si1Rh2
CeZnSi,mp-1226464,0.0,6.31233616,0.0,"{58: 1, 30: 1, 14: 1}","[14, 30, 58]",141301581,Ce1Zn1Si1
Pm2ZnSi,mp-862733,0.0,4.35057601,0.0,"{61: 2, 30: 1, 14: 1}","[14, 30, 61]",141301612,Pm2Zn1Si1
SmZnSi,mp-1218957,0.0,4.27283174,0.0,"{62: 1, 30: 1, 14: 1}","[14, 30, 62]",141301621,Sm1Zn1Si1
EuZnSi,mp-21234,0.0,3.80990709,0.0,"{63: 1, 30: 1, 14: 1}","[14, 30, 63]",141301631,Eu1Zn1Si1
GdZnSi,mp-1224549,0.0,4.02076601,0.0,"{64: 1, 30: 1, 14: 1}","[14, 30, 64]",141301641,Gd1Zn1Si1
TbZnSi,mp-1217402,0.0,4.59162875,0.0,"{65: 1, 30: 1, 14: 1}","[14, 30, 65]",141301651,Tb1Zn1Si1
DyZnSi,mp-1225041,0.0,4.58890228,0.0,"{66: 1, 30: 1, 14: 1}","[14, 30, 66]",141301661,Dy1Zn1Si1
HoZnSi,mp-1223786,0.0,4.59365493,0.0,"{67: 1, 30: 1, 14: 1}","[14, 30, 67]",141301671,Ho1Zn1Si1
ZnSiIr2,mp-1097171,0.21229999999999993,-4.08078305,2.764744675625,"{30: 1, 14: 1, 77: 2}","[14, 30, 77]",141301772,Zn1Si1Ir2
Ac2ZnSi,mp-866289,0.0,6.23920525,0.0,"{89: 2, 30: 1, 14: 1}","[14, 30, 89]",141301892,Ac2Zn1Si1
Zr6Zn23Si,mp-1207426,0.0,3.89496073,0.0,"{40: 6, 30: 23, 14: 1}","[14, 30, 40]",1413023406,Zr6Zn23Si1
Zn3Si,mp-1187936,0.0,4.6507624,0.19656549749999996,"{30: 3, 14: 1}","[14, 30]",141303,Zn3Si1
La14Zn45Si,mp-1224593,0.0,4.78202048,0.0010555741666689045,"{57: 14, 30: 45, 14: 1}","[14, 30, 57]",14130455714,La14Zn45Si1
SrGaSi,mp-1218262,0.0,3.98132361,0.0,"{38: 1, 31: 1, 14: 1}","[14, 31, 38]",141311381,Sr1Ga1Si1
Sr2GaSi,mp-1218812,0.0,2.90939434,0.0,"{38: 2, 31: 1, 14: 1}","[14, 31, 38]",141311382,Sr2Ga1Si1
Nb6GaSi,mp-1220366,0.0,5.54912694,0.09183016989583592,"{41: 6, 31: 1, 14: 1}","[14, 31, 41]",141311416,Nb6Ga1Si1
GaSiTc2,mp-1096427,0.3658000000000001,-2.97442088,3.083810439375,"{31: 1, 14: 1, 43: 2}","[14, 31, 43]",141311432,Ga1Si1Tc2
GaSiRu2,mp-865615,0.0,8.46281273,0.0,"{31: 1, 14: 1, 44: 2}","[14, 31, 44]",141311442,Ga1Si1Ru2
LaGaSi,mp-1222823,0.0,7.3693827,0.0,"{57: 1, 31: 1, 14: 1}","[14, 31, 57]",141311571,La1Ga1Si1
PrGaSi,mp-1219972,0.0,5.3736514,0.0,"{59: 1, 31: 1, 14: 1}","[14, 31, 59]",141311591,Pr1Ga1Si1
NdGaSi,mp-1220152,0.0,5.37548867,0.0,"{60: 1, 31: 1, 14: 1}","[14, 31, 60]",141311601,Nd1Ga1Si1
SmGaSi,mp-1218980,0.0,5.31391755,0.0,"{62: 1, 31: 1, 14: 1}","[14, 31, 62]",141311621,Sm1Ga1Si1
EuGaSi,mp-1225124,0.0,4.20203397,0.0,"{63: 1, 31: 1, 14: 1}","[14, 31, 63]",141311631,Eu1Ga1Si1
Ac2GaSi,mp-1183054,0.0,6.20967477,0.0,"{89: 2, 31: 1, 14: 1}","[14, 31, 89]",141311892,Ac2Ga1Si1
Ga3Si,mp-1183982,0.0,4.51153235,0.21037969437499981,"{31: 3, 14: 1}","[14, 31]",141313,Ga3Si1
SiGe,mp-1219182,0.6059999999999999,5.20513401,0.016203427499998924,"{14: 1, 32: 1}","[14, 32]",141321,Si1Ge1
SrSiGe,mp-1217979,0.0,4.52511685,0.09439750166666805,"{38: 1, 14: 1, 32: 1}","[14, 32, 38]",141321381,Sr1Si1Ge1
NbSiGe,mp-1220385,0.0,8.19015797,0.02487613722222637,"{41: 1, 14: 1, 32: 1}","[14, 32, 41]",141321411,Nb1Si1Ge1
Nb6SiGe,mp-1220284,0.0,6.08168832,0.08301204416666508,"{41: 6, 14: 1, 32: 1}","[14, 32, 41]",141321416,Nb6Si1Ge1
SiTc2Ge,mp-1096625,0.11670000000000025,-3.22747212,3.035894679374998,"{14: 1, 43: 2, 32: 1}","[14, 32, 43]",141321432,Si1Tc2Ge1
CeSiGeRh2,mp-1226517,0.0,8.09899074,0.0,"{58: 1, 14: 1, 32: 1, 45: 2}","[14, 32, 45, 58]",141321452581,Ce1Si1Ge1Rh2
CeSiGePd2,mp-1226545,0.0,7.12922555,0.0,"{58: 1, 14: 1, 32: 1, 46: 2}","[14, 32, 46, 58]",141321462581,Ce1Si1Ge1Pd2
CeSiGe,mp-1206173,0.0,8.11956106,0.04968574142856763,"{58: 1, 14: 1, 32: 1}","[14, 32, 58]",141321581,Ce1Si1Ge1
Ce2SiGe,mp-1226899,0.0,7.75327609,0.0,"{58: 2, 14: 1, 32: 1}","[14, 32, 58]",141321582,Ce2Si1Ge1
PrSiGe,mp-1077510,0.0,5.91822734,0.034773140476187514,"{59: 1, 14: 1, 32: 1}","[14, 32, 59]",141321591,Pr1Si1Ge1
NdSiGe,mp-1077182,0.0,6.03246658,0.04527270833332864,"{60: 1, 14: 1, 32: 1}","[14, 32, 60]",141321601,Nd1Si1Ge1
Tb2SiGe,mp-1217674,0.0,5.18757496,0.00890326437500022,"{65: 2, 14: 1, 32: 1}","[14, 32, 65]",141321652,Tb2Si1Ge1
Ho2SiGe,mp-1223968,0.0,5.16450096,0.0,"{67: 2, 14: 1, 32: 1}","[14, 32, 67]",141321672,Ho2Si1Ge1
Er2SiGe,mp-1225524,0.0,5.21121719,0.0,"{68: 2, 14: 1, 32: 1}","[14, 32, 68]",141321682,Er2Si1Ge1
TaSiGe,mp-1217900,0.0,8.64550635,0.0479649926190433,"{73: 1, 14: 1, 32: 1}","[14, 32, 73]",141321731,Ta1Si1Ge1
ThSiGe,mp-1206260,0.0,8.14422013,0.06610875750000389,"{90: 1, 14: 1, 32: 1}","[14, 32, 90]",141321901,Th1Si1Ge1
Th2SiGe,mp-1217344,0.0,7.46965603,0.003725067499999568,"{90: 2, 14: 1, 32: 1}","[14, 32, 90]",141321902,Th2Si1Ge1
Th3SiGe,mp-1217353,0.0,7.18278954,0.0008827769999939505,"{90: 3, 14: 1, 32: 1}","[14, 32, 90]",141321903,Th3Si1Ge1
Th4SiGe,mp-1217280,0.0,7.39605137,0.016348163333333332,"{90: 4, 14: 1, 32: 1}","[14, 32, 90]",141321904,Th4Si1Ge1
Pr5SiGe2,mp-1219851,0.0,3.79138563,0.027732159895834663,"{59: 5, 14: 1, 32: 2}","[14, 32, 59]",141322595,Pr5Si1Ge2
SiGe3,mp-1187004,0.0,6.94775858,0.4211281137500009,"{14: 1, 32: 3}","[14, 32]",141323,Si1Ge3
Ho4SiGe3,mp-1223846,0.0,5.03342568,0.0033675762499996154,"{67: 4, 14: 1, 32: 3}","[14, 32, 67]",141323674,Ho4Si1Ge3
SiAs,mp-1863,1.4518999999999997,3.05538631,0.0,"{14: 1, 33: 1}","[14, 33]",141331,Si1As1
ZrSiAs,mp-1207382,0.0,6.3226914,0.0612468991666697,"{40: 1, 14: 1, 33: 1}","[14, 33, 40]",141331401,Zr1Si1As1
Zr2SiTe2As,mp-1215465,0.0,6.25987064,0.0,"{40: 2, 14: 1, 52: 2, 33: 1}","[14, 33, 40, 52]",141331402522,Zr2Si1Te2As1
NbSiAs,mp-21907,0.0,7.69099816,0.0,"{41: 1, 14: 1, 33: 1}","[14, 33, 41]",141331411,Nb1Si1As1
SiTc2As,mp-1097640,0.0,-3.24538329,2.9710684777083323,"{14: 1, 43: 2, 33: 1}","[14, 33, 43]",141331432,Si1Tc2As1
TaSiAs,mp-5031,0.0,8.05618878,0.0,"{73: 1, 14: 1, 33: 1}","[14, 33, 73]",141331731,Ta1Si1As1
SiAs2,mp-978553,0.8890999999999996,3.90331174,0.0,"{14: 1, 33: 2}","[14, 33]",141332,Si1As2
Rb2SiAs2,mp-6960,0.9554999999999998,2.18882499,0.0,"{37: 2, 14: 1, 33: 2}","[14, 33, 37]",141332372,Rb2Si1As2
Nb2SiAs2,mp-1210105,0.0,5.42438187,1.0918108859999958,"{41: 2, 14: 1, 33: 2}","[14, 33, 41]",141332412,Nb2Si1As2
CdSiAs2,mp-3078,0.4001999999999999,3.06561178,0.0,"{48: 1, 14: 1, 33: 2}","[14, 33, 48]",141332481,Cd1Si1As2
Cs2SiAs2,mp-573721,1.0347,2.77797397,0.0,"{55: 2, 14: 1, 33: 2}","[14, 33, 55]",141332552,Cs2Si1As2
Ta2SiAs2,mp-1208434,0.0,5.58904242,1.072811944999998,"{73: 2, 14: 1, 33: 2}","[14, 33, 73]",141332732,Ta2Si1As2
SiAs3,mp-1172435,0.0,2.47057578,0.3989356700000002,"{14: 1, 33: 3}","[14, 33]",141333,Si1As3
Rb5SiAs3,mp-17490,0.3756999999999999,1.76508853,0.0,"{37: 5, 14: 1, 33: 3}","[14, 33, 37]",141333375,Rb5Si1As3
Cs5SiAs3,mp-616140,0.6071999999999997,2.82762907,0.0,"{55: 5, 14: 1, 33: 3}","[14, 33, 55]",141333555,Cs5Si1As3
LaSiAs3,mp-541249,0.0,5.60459596,0.011344864999998094,"{57: 1, 14: 1, 33: 3}","[14, 33, 57]",141333571,La1Si1As3
CeSiAs3,mp-1204796,0.0,5.96702131,0.023310004000002493,"{58: 1, 14: 1, 33: 3}","[14, 33, 58]",141333581,Ce1Si1As3