formula,material_id,band_gap,efermi,energy_above_hull,comp_atoms,sorted_keys_comp_atoms,comp_number,new_formula
Na10Mg6Si3Ge2(S3O16)3,mp-2714861,1.2511,2.68646559,0.1086746586324816,"{11: 10, 12: 6, 14: 3, 32: 2, 16: 9, 8: 48}","[8, 11, 12, 14, 16, 32]",8481110126143169322,Na10Mg6Si3Ge2S9O48
Na10Mg6Zr2Si3(S3O16)3,mp-2714884,2.2157999999999998,2.561434,0.07723849822649509,"{11: 10, 12: 6, 40: 2, 14: 3, 16: 9, 8: 48}","[8, 11, 12, 14, 16, 40]",8481110126143169402,Na10Mg6Zr2Si3S9O48
Na10Mg6Si3Sn2(S3O16)3,mp-2714896,1.5264000000000002,2.66560974,0.08754633929487188,"{11: 10, 12: 6, 14: 3, 50: 2, 16: 9, 8: 48}","[8, 11, 12, 14, 16, 50]",8481110126143169502,Na10Mg6Si3Sn2S9O48
Na10Hf2Mg6Si3(S3O16)3,mp-2714914,2.8590999999999998,2.71105728,0.07544413126068239,"{11: 10, 72: 2, 12: 6, 14: 3, 16: 9, 8: 48}","[8, 11, 12, 14, 16, 72]",8481110126143169722,Na10Hf2Mg6Si3S9O48
Na10Mg8SiS11O48,mp-2713287,4.2356,2.12069814,0.027067646559830294,"{11: 10, 12: 8, 14: 1, 16: 11, 8: 48}","[8, 11, 12, 14, 16]",84811101281411611,Na10Mg8Si1S11O48
Na10Sc2Nb6Si11SO48,mp-2716318,2.1436,1.57746734,0.061738219081194146,"{11: 10, 21: 2, 41: 6, 14: 11, 16: 1, 8: 48}","[8, 11, 14, 16, 21, 41]",84811101411161212416,Na10Sc2Nb6Si11S1O48
Na10Sc2Ta6Si11SO48,mp-2716419,3.1064000000000003,1.75475893,0.04646034448717984,"{11: 10, 21: 2, 73: 6, 14: 11, 16: 1, 8: 48}","[8, 11, 14, 16, 21, 73]",84811101411161212736,Na10Sc2Ta6Si11S1O48
Na10Ti4Nb4Si11SO48,mp-2716391,2.5206,1.64703221,0.0503670873076878,"{11: 10, 22: 4, 41: 4, 14: 11, 16: 1, 8: 48}","[8, 11, 14, 16, 22, 41]",84811101411161224414,Na10Ti4Nb4Si11S1O48
Na10Ta4Ti4Si11SO48,mp-2716492,2.4718,1.70165285,0.041916040128201715,"{11: 10, 73: 4, 22: 4, 14: 11, 16: 1, 8: 48}","[8, 11, 14, 16, 22, 73]",84811101411161224734,Na10Ta4Ti4Si11S1O48
Na10Nb6Ga2Si11SO48,mp-2716383,2.2807000000000004,1.68380348,0.06903861284188562,"{11: 10, 41: 6, 31: 2, 14: 11, 16: 1, 8: 48}","[8, 11, 14, 16, 31, 41]",84811101411161312416,Na10Nb6Ga2Si11S1O48
Na10Ta6Ga2Si11SO48,mp-2716479,3.1536,1.7713642,0.05376451452992015,"{11: 10, 73: 6, 31: 2, 14: 11, 16: 1, 8: 48}","[8, 11, 14, 16, 31, 73]",84811101411161312736,Na10Ta6Ga2Si11S1O48
Na10Nb4Si11Ge4SO48,mp-2716411,2.5098999999999996,1.86852702,0.08038670465812014,"{11: 10, 41: 4, 14: 11, 32: 4, 16: 1, 8: 48}","[8, 11, 14, 16, 32, 41]",84811101411161324414,Na10Nb4Si11Ge4S1O48
Na10Ta4Si11Ge4SO48,mp-2716515,3.1879999999999997,1.92304941,0.07240694025640959,"{11: 10, 73: 4, 14: 11, 32: 4, 16: 1, 8: 48}","[8, 11, 14, 16, 32, 73]",84811101411161324734,Na10Ta4Si11Ge4S1O48
Na10Zr4Nb4Si11SO48,mp-2716306,2.8375,1.17018671,0.041645024978613776,"{11: 10, 40: 4, 41: 4, 14: 11, 16: 1, 8: 48}","[8, 11, 14, 16, 40, 41]",84811101411161404414,Na10Zr4Nb4Si11S1O48
Na10Zr4Ta4Si11SO48,mp-2716400,3.5982000000000003,1.31167426,0.030979197499991784,"{11: 10, 40: 4, 73: 4, 14: 11, 16: 1, 8: 48}","[8, 11, 14, 16, 40, 73]",84811101411161404734,Na10Zr4Ta4Si11S1O48
Na10Nb4Si11Sn4SO48,mp-2716553,2.6935000000000002,1.88946294,0.05266665799145187,"{11: 10, 41: 4, 14: 11, 50: 4, 16: 1, 8: 48}","[8, 11, 14, 16, 41, 50]",84811101411161414504,Na10Nb4Si11Sn4S1O48
Na10Hf4Nb4Si11SO48,mp-2716299,2.7375,1.3256399,0.034199973162394315,"{11: 10, 72: 4, 41: 4, 14: 11, 16: 1, 8: 48}","[8, 11, 14, 16, 41, 72]",84811101411161414724,Na10Hf4Nb4Si11S1O48
Na10Nb6In2Si11SO48,mp-2716477,2.1713,1.7902387,0.05985455818374774,"{11: 10, 41: 6, 49: 2, 14: 11, 16: 1, 8: 48}","[8, 11, 14, 16, 41, 49]",84811101411161416492,Na10Nb6In2Si11S1O48
Na10La2Nb6Si11SO48,mp-2716313,2.1982,1.65518153,0.08357802458333108,"{11: 10, 57: 2, 41: 6, 14: 11, 16: 1, 8: 48}","[8, 11, 14, 16, 41, 57]",84811101411161416572,Na10La2Nb6Si11S1O48
Na10Ta6In2Si11SO48,mp-2716408,3.1335,1.8972726,0.04706636423076915,"{11: 10, 73: 6, 49: 2, 14: 11, 16: 1, 8: 48}","[8, 11, 14, 16, 49, 73]",84811101411161492736,Na10Ta6In2Si11S1O48
Na10Ta4Si11Sn4SO48,mp-2716493,3.2934,2.03617097,0.04226635269230883,"{11: 10, 73: 4, 14: 11, 50: 4, 16: 1, 8: 48}","[8, 11, 14, 16, 50, 73]",84811101411161504734,Na10Ta4Si11Sn4S1O48
Na10La2Ta6Si11SO48,mp-2716512,3.0832,1.8265455,0.0698413666987161,"{11: 10, 57: 2, 73: 6, 14: 11, 16: 1, 8: 48}","[8, 11, 14, 16, 57, 73]",84811101411161572736,Na10La2Ta6Si11S1O48
Na10Hf4Ta4Si11SO48,mp-2716531,3.6238,1.47302649,0.022513567948715618,"{11: 10, 72: 4, 73: 4, 14: 11, 16: 1, 8: 48}","[8, 11, 14, 16, 72, 73]",84811101411161724734,Na10Hf4Ta4Si11S1O48
Na10Ca4Zn4SiS11O48,mp-2713613,3.2327999999999997,1.33890139,0.077847002275643,"{11: 10, 20: 4, 30: 4, 14: 1, 16: 11, 8: 48}","[8, 11, 14, 16, 20, 30]",84811101411611204304,Na10Ca4Zn4Si1S11O48
Na10Ca8SiS11O48,mp-2713600,3.9065000000000003,1.2163978,0.043207141869663346,"{11: 10, 20: 8, 14: 1, 16: 11, 8: 48}","[8, 11, 14, 16, 20]",84811101411611208,Na10Ca8Si1S11O48
Na10Zn8SiS11O48,mp-2713568,3.5281,1.45230603,0.06334902952991595,"{11: 10, 30: 8, 14: 1, 16: 11, 8: 48}","[8, 11, 14, 16, 30]",84811101411611308,Na10Zn8Si1S11O48
Na10ScNb7(SiO4)12,mp-2713359,2.7687,1.27841581,0.03309662686965531,"{11: 10, 21: 1, 41: 7, 14: 12, 8: 48}","[8, 11, 14, 21, 41]",84811101412211417,Na10Sc1Nb7Si12O48
Na10ScTa7(SiO4)12,mp-2713178,3.6398,1.48816316,0.014586725619663454,"{11: 10, 21: 1, 73: 7, 14: 12, 8: 48}","[8, 11, 14, 21, 73]",84811101412211737,Na10Sc1Ta7Si12O48
Na10Nb7Ga(SiO4)12,mp-2713337,2.7338,1.27396539,0.0377979195619611,"{11: 10, 41: 7, 31: 1, 14: 12, 8: 48}","[8, 11, 14, 31, 41]",84811101412311417,Na10Nb7Ga1Si12O48
Na10Ta7Ga(SiO4)12,mp-2713458,3.5439000000000003,1.56528183,0.019218342542734135,"{11: 10, 73: 7, 31: 1, 14: 12, 8: 48}","[8, 11, 14, 31, 73]",84811101412311737,Na10Ta7Ga1Si12O48
Na10Nb7In(SiO4)12,mp-2713494,2.7723,1.33107162,0.03535979088675134,"{11: 10, 41: 7, 49: 1, 14: 12, 8: 48}","[8, 11, 14, 41, 49]",84811101412417491,Na10Nb7In1Si12O48
Na10LaNb7(SiO4)12,mp-2713533,2.6944,1.34989681,0.04538674823184152,"{11: 10, 57: 1, 41: 7, 14: 12, 8: 48}","[8, 11, 14, 41, 57]",84811101412417571,Na10La1Nb7Si12O48
Na10Ta7In(SiO4)12,mp-2713206,3.6052,1.57016086,0.018560084081196138,"{11: 10, 73: 7, 49: 1, 14: 12, 8: 48}","[8, 11, 14, 49, 73]",84811101412491737,Na10Ta7In1Si12O48
Na10LaTa7(SiO4)12,mp-2713335,3.5725999999999996,1.55673663,0.027982416896373152,"{11: 10, 57: 1, 73: 7, 14: 12, 8: 48}","[8, 11, 14, 57, 73]",84811101412571737,Na10La1Ta7Si12O48
Na10Ca4Sc4Si3(S3O16)3,mp-2714676,2.7011000000000003,1.682021,0.099020692513351,"{11: 10, 20: 4, 21: 4, 14: 3, 16: 9, 8: 48}","[8, 11, 14, 16, 20, 21]",8481110143169204214,Na10Ca4Sc4Si3S9O48
Na10Ca4Ga4Si3(S3O16)3,mp-2714784,1.3030000000000002,1.85139089,0.16246635933760611,"{11: 10, 20: 4, 31: 4, 14: 3, 16: 9, 8: 48}","[8, 11, 14, 16, 20, 31]",8481110143169204314,Na10Ca4Ga4Si3S9O48
Na10Ca4In4Si3(S3O16)3,mp-2714913,1.5812999999999997,2.03066726,0.11336669335470173,"{11: 10, 20: 4, 49: 4, 14: 3, 16: 9, 8: 48}","[8, 11, 14, 16, 20, 49]",8481110143169204494,Na10Ca4In4Si3S9O48
Na10Ca4La4Si3(S3O16)3,mp-2714832,3.5122,1.75101592,0.09100455764956639,"{11: 10, 20: 4, 57: 4, 14: 3, 16: 9, 8: 48}","[8, 11, 14, 16, 20, 57]",8481110143169204574,Na10Ca4La4Si3S9O48
Na10Ca6Ti2Si3(S3O16)3,mp-2714702,0.8151999999999999,1.90609742,0.09830014032051526,"{11: 10, 20: 6, 22: 2, 14: 3, 16: 9, 8: 48}","[8, 11, 14, 16, 20, 22]",8481110143169206222,Na10Ca6Ti2Si3S9O48
Na10Ca6Si3Ge2(S3O16)3,mp-2714620,0.32699999999999996,1.22359135,0.13930994175213396,"{11: 10, 20: 6, 14: 3, 32: 2, 16: 9, 8: 48}","[8, 11, 14, 16, 20, 32]",8481110143169206322,Na10Ca6Si3Ge2S9O48
Na10Ca6Zr2Si3(S3O16)3,mp-2714901,2.2675,1.89854762,0.08675981888888362,"{11: 10, 20: 6, 40: 2, 14: 3, 16: 9, 8: 48}","[8, 11, 14, 16, 20, 40]",8481110143169206402,Na10Ca6Zr2Si3S9O48
Na10Ca6Si3Sn2(S3O16)3,mp-2714785,1.2314000000000003,2.10492056,0.10978225128205565,"{11: 10, 20: 6, 14: 3, 50: 2, 16: 9, 8: 48}","[8, 11, 14, 16, 20, 50]",8481110143169206502,Na10Ca6Si3Sn2S9O48
Na10Ca6Hf2Si3(S3O16)3,mp-2714880,3.0393999999999997,1.95722383,0.08720707022435725,"{11: 10, 20: 6, 72: 2, 14: 3, 16: 9, 8: 48}","[8, 11, 14, 16, 20, 72]",8481110143169206722,Na10Ca6Hf2Si3S9O48
Na10Sc4Zn4Si3(S3O16)3,mp-2714808,3.205,1.70911375,0.0865573495699774,"{11: 10, 21: 4, 30: 4, 14: 3, 16: 9, 8: 48}","[8, 11, 14, 16, 21, 30]",8481110143169214304,Na10Sc4Zn4Si3S9O48
Na10Ti2Zn6Si3(S3O16)3,mp-2714664,1.2963999999999998,1.84219672,0.0952681656410288,"{11: 10, 22: 2, 30: 6, 14: 3, 16: 9, 8: 48}","[8, 11, 14, 16, 22, 30]",8481110143169222306,Na10Ti2Zn6Si3S9O48
Na10Zn4Ga4Si3(S3O16)3,mp-2714680,2.2409999999999997,2.02151318,0.12068873863247731,"{11: 10, 30: 4, 31: 4, 14: 3, 16: 9, 8: 48}","[8, 11, 14, 16, 30, 31]",8481110143169304314,Na10Zn4Ga4Si3S9O48
Na10Zn4In4Si3(S3O16)3,mp-2714881,2.4524,1.84342888,0.09885392914530655,"{11: 10, 30: 4, 49: 4, 14: 3, 16: 9, 8: 48}","[8, 11, 14, 16, 30, 49]",8481110143169304494,Na10Zn4In4Si3S9O48
Na10La4Zn4Si3(S3O16)3,mp-2714667,2.9396000000000004,1.32237005,0.12805324183760458,"{11: 10, 57: 4, 30: 4, 14: 3, 16: 9, 8: 48}","[8, 11, 14, 16, 30, 57]",8481110143169304574,Na10La4Zn4Si3S9O48
Na10Zn6Si3Ge2(S3O16)3,mp-2714903,1.8349999999999997,1.89396653,0.12680652119658564,"{11: 10, 30: 6, 14: 3, 32: 2, 16: 9, 8: 48}","[8, 11, 14, 16, 30, 32]",8481110143169306322,Na10Zn6Si3Ge2S9O48
Na10Zr2Zn6Si3(S3O16)3,mp-2714824,2.6361,1.76272513,0.09695164767093623,"{11: 10, 40: 2, 30: 6, 14: 3, 16: 9, 8: 48}","[8, 11, 14, 16, 30, 40]",8481110143169306402,Na10Zr2Zn6Si3S9O48
Na10Zn6Si3Sn2(S3O16)3,mp-2714866,1.7384,2.1300274,0.11271851425214052,"{11: 10, 30: 6, 14: 3, 50: 2, 16: 9, 8: 48}","[8, 11, 14, 16, 30, 50]",8481110143169306502,Na10Zn6Si3Sn2S9O48
Na10Hf2Zn6Si3(S3O16)3,mp-2714760,3.0974000000000004,1.8942826,0.09330509938034659,"{11: 10, 72: 2, 30: 6, 14: 3, 16: 9, 8: 48}","[8, 11, 14, 16, 30, 72]",8481110143169306722,Na10Hf2Zn6Si3S9O48
Na10Ca4Ti4Si5S7O48,mp-2714964,1.2112999999999998,1.59099171,0.16105359910255945,"{11: 10, 20: 4, 22: 4, 14: 5, 16: 7, 8: 48}","[8, 11, 14, 16, 20, 22]",8481110145167204224,Na10Ca4Ti4Si5S7O48
Na10Ca4Si5Ge4S7O48,mp-2715014,0.21609999999999996,1.07550517,0.24218407076922954,"{11: 10, 20: 4, 14: 5, 32: 4, 16: 7, 8: 48}","[8, 11, 14, 16, 20, 32]",8481110145167204324,Na10Ca4Si5Ge4S7O48
Na10Ca4Zr4Si5S7O48,mp-2714997,2.6517,1.55493657,0.13176322102564253,"{11: 10, 20: 4, 40: 4, 14: 5, 16: 7, 8: 48}","[8, 11, 14, 16, 20, 40]",8481110145167204404,Na10Ca4Zr4Si5S7O48
Na10Ca4Si5Sn4S7O48,mp-2715136,0.36630000000000007,2.09848632,0.16793070589742953,"{11: 10, 20: 4, 14: 5, 50: 4, 16: 7, 8: 48}","[8, 11, 14, 16, 20, 50]",8481110145167204504,Na10Ca4Si5Sn4S7O48
Na10Ca4Hf4Si5S7O48,mp-2715085,3.3466000000000005,1.87538734,0.13633606479700688,"{11: 10, 20: 4, 72: 4, 14: 5, 16: 7, 8: 48}","[8, 11, 14, 16, 20, 72]",8481110145167204724,Na10Ca4Hf4Si5S7O48
Na10Sc4Ga4Si5S7O48,mp-2715000,3.2891999999999997,1.83469954,0.10445726205840078,"{11: 10, 21: 4, 31: 4, 14: 5, 16: 7, 8: 48}","[8, 11, 14, 16, 21, 31]",8481110145167214314,Na10Sc4Ga4Si5S7O48
Na10Sc4In4Si5S7O48,mp-2715003,2.8331,2.05126394,0.08678881603276256,"{11: 10, 21: 4, 49: 4, 14: 5, 16: 7, 8: 48}","[8, 11, 14, 16, 21, 49]",8481110145167214494,Na10Sc4In4Si5S7O48
Na10La4Sc4Si5S7O48,mp-2715184,3.6623,1.64735054,0.09921191255075534,"{11: 10, 57: 4, 21: 4, 14: 5, 16: 7, 8: 48}","[8, 11, 14, 16, 21, 57]",8481110145167214574,Na10La4Sc4Si5S7O48
Na10Sc8Si5S7O48,mp-2714993,3.651,1.7027562,0.07030397370459252,"{11: 10, 21: 8, 14: 5, 16: 7, 8: 48}","[8, 11, 14, 16, 21]",8481110145167218,Na10Sc8Si5S7O48
Na10Ti4Zn4Si5S7O48,mp-2715076,1.3297999999999999,1.83099469,0.12921357154914315,"{11: 10, 22: 4, 30: 4, 14: 5, 16: 7, 8: 48}","[8, 11, 14, 16, 22, 30]",8481110145167224304,Na10Ti4Zn4Si5S7O48
Na10Zn4Si5Ge4S7O48,mp-2715087,0.4565999999999999,2.1617342,0.2019648369124072,"{11: 10, 30: 4, 14: 5, 32: 4, 16: 7, 8: 48}","[8, 11, 14, 16, 30, 32]",8481110145167304324,Na10Zn4Si5Ge4S7O48
Na10Zr4Zn4Si5S7O48,mp-2715045,2.9353,1.65801528,0.12313728026709203,"{11: 10, 40: 4, 30: 4, 14: 5, 16: 7, 8: 48}","[8, 11, 14, 16, 30, 40]",8481110145167304404,Na10Zr4Zn4Si5S7O48
Na10Zn4Si5Sn4S7O48,mp-2714924,1.2280000000000002,2.27976237,0.15072727885685122,"{11: 10, 30: 4, 14: 5, 50: 4, 16: 7, 8: 48}","[8, 11, 14, 16, 30, 50]",8481110145167304504,Na10Zn4Si5Sn4S7O48
Na10Hf4Zn4Si5S7O48,mp-2715049,3.5682000000000005,1.71542344,0.11642334223290352,"{11: 10, 72: 4, 30: 4, 14: 5, 16: 7, 8: 48}","[8, 11, 14, 16, 30, 72]",8481110145167304724,Na10Hf4Zn4Si5S7O48
Na10In4Ga4Si5S7O48,mp-2715129,2.6580999999999997,2.02038781,0.11729673536324636,"{11: 10, 49: 4, 31: 4, 14: 5, 16: 7, 8: 48}","[8, 11, 14, 16, 31, 49]",8481110145167314494,Na10In4Ga4Si5S7O48
Na10La4Ga4Si5S7O48,mp-2715206,2.82,1.7456767,0.14095334376779878,"{11: 10, 57: 4, 31: 4, 14: 5, 16: 7, 8: 48}","[8, 11, 14, 16, 31, 57]",8481110145167314574,Na10La4Ga4Si5S7O48
Na10Ga8Si5S7O48,mp-2715069,2.9755000000000003,2.00633097,0.12296379694445214,"{11: 10, 31: 8, 14: 5, 16: 7, 8: 48}","[8, 11, 14, 16, 31]",8481110145167318,Na10Ga8Si5S7O48
Na10La4In4Si5S7O48,mp-2715011,2.6476000000000006,1.99949463,0.1163291903062671,"{11: 10, 57: 4, 49: 4, 14: 5, 16: 7, 8: 48}","[8, 11, 14, 16, 49, 57]",8481110145167494574,Na10La4In4Si5S7O48
Na10In8Si5S7O48,mp-2714947,2.4369,2.27351926,0.09857612181623931,"{11: 10, 49: 8, 14: 5, 16: 7, 8: 48}","[8, 11, 14, 16, 49]",8481110145167498,Na10In8Si5S7O48
Na10La8Si5S7O48,mp-2715068,3.5532,1.75330393,0.11045208742520707,"{11: 10, 57: 8, 14: 5, 16: 7, 8: 48}","[8, 11, 14, 16, 57]",8481110145167578,Na10La8Si5S7O48
Na10Ca3Ti5Si6(SO8)6,mp-2713148,1.0146000000000002,2.01563517,0.13403886169871537,"{11: 10, 20: 3, 22: 5, 14: 6, 16: 6, 8: 48}","[8, 11, 14, 16, 20, 22]",8481110146166203225,Na10Ca3Ti5Si6S6O48
Na10Ca3Si6Ge5(SO8)6,mp-2713125,0.6678999999999999,1.9280972,0.21223921903846055,"{11: 10, 20: 3, 14: 6, 32: 5, 16: 6, 8: 48}","[8, 11, 14, 16, 20, 32]",8481110146166203325,Na10Ca3Si6Ge5S6O48
Na10Ca3Zr5Si6(SO8)6,mp-2713375,2.3236,1.96965882,0.11579985750000876,"{11: 10, 20: 3, 40: 5, 14: 6, 16: 6, 8: 48}","[8, 11, 14, 16, 20, 40]",8481110146166203405,Na10Ca3Zr5Si6S6O48
Na10Ca3Si6Sn5(SO8)6,mp-2716554,0.9023000000000003,2.46591951,0.14992801076922824,"{11: 10, 20: 3, 14: 6, 50: 5, 16: 6, 8: 48}","[8, 11, 14, 16, 20, 50]",8481110146166203505,Na10Ca3Si6Sn5S6O48
Na10Ca3Hf5Si6(SO8)6,mp-2713500,3.0085999999999995,2.07174169,0.11835675733973972,"{11: 10, 20: 3, 72: 5, 14: 6, 16: 6, 8: 48}","[8, 11, 14, 16, 20, 72]",8481110146166203725,Na10Ca3Hf5Si6S6O48
Na10Sc7NbSi6(SO8)6,mp-2716434,2.279,1.55503093,0.07520018266381978,"{11: 10, 21: 7, 41: 1, 14: 6, 16: 6, 8: 48}","[8, 11, 14, 16, 21, 41]",8481110146166217411,Na10Sc7Nb1Si6S6O48
Na10Sc7TaSi6(SO8)6,mp-2716405,3.1051,1.89124029,0.07641750445868745,"{11: 10, 21: 7, 73: 1, 14: 6, 16: 6, 8: 48}","[8, 11, 14, 16, 21, 73]",8481110146166217731,Na10Sc7Ta1Si6S6O48
Na10Ti5Zn3Si6(SO8)6,mp-2713180,1.225,2.1011698,0.12055922792200757,"{11: 10, 22: 5, 30: 3, 14: 6, 16: 6, 8: 48}","[8, 11, 14, 16, 22, 30]",8481110146166225303,Na10Ti5Zn3Si6S6O48
Na10Zn3Si6Ge5(SO8)6,mp-2713496,0.7728999999999999,2.63565752,0.19057376246261093,"{11: 10, 30: 3, 14: 6, 32: 5, 16: 6, 8: 48}","[8, 11, 14, 16, 30, 32]",8481110146166303325,Na10Zn3Si6Ge5S6O48
Na10Zr5Zn3Si6(SO8)6,mp-2716523,2.7922000000000002,1.73732045,0.11576415791132,"{11: 10, 40: 5, 30: 3, 14: 6, 16: 6, 8: 48}","[8, 11, 14, 16, 30, 40]",8481110146166303405,Na10Zr5Zn3Si6S6O48
Na10Zn3Si6Sn5(SO8)6,mp-2716367,1.3813999999999997,2.65157924,0.14485882737714117,"{11: 10, 30: 3, 14: 6, 50: 5, 16: 6, 8: 48}","[8, 11, 14, 16, 30, 50]",8481110146166303505,Na10Zn3Si6Sn5S6O48
Na10Hf5Zn3Si6(SO8)6,mp-2713153,3.3987,1.81730704,0.11136800902243404,"{11: 10, 72: 5, 30: 3, 14: 6, 16: 6, 8: 48}","[8, 11, 14, 16, 30, 72]",8481110146166303725,Na10Hf5Zn3Si6S6O48
Na10NbGa7Si6(SO8)6,mp-2713490,2.0641999999999996,1.97650982,0.12228622681623769,"{11: 10, 41: 1, 31: 7, 14: 6, 16: 6, 8: 48}","[8, 11, 14, 16, 31, 41]",8481110146166317411,Na10Nb1Ga7Si6S6O48
Na10TaGa7Si6(SO8)6,mp-2716450,3.0187999999999997,1.85129198,0.11817069290598692,"{11: 10, 73: 1, 31: 7, 14: 6, 16: 6, 8: 48}","[8, 11, 14, 16, 31, 73]",8481110146166317731,Na10Ta1Ga7Si6S6O48
Na10NbIn7Si6(SO8)6,mp-2713351,2.3727,2.09855568,0.10155502395299365,"{11: 10, 41: 1, 49: 7, 14: 6, 16: 6, 8: 48}","[8, 11, 14, 16, 41, 49]",8481110146166411497,Na10Nb1In7Si6S6O48
Na10La7NbSi6(SO8)6,mp-2713486,2.4853999999999994,1.80957405,0.11019751420227664,"{11: 10, 57: 7, 41: 1, 14: 6, 16: 6, 8: 48}","[8, 11, 14, 16, 41, 57]",8481110146166411577,Na10La7Nb1Si6S6O48
Na10TaIn7Si6(SO8)6,mp-2713172,2.5848999999999998,2.2190023,0.10225909884615536,"{11: 10, 73: 1, 49: 7, 14: 6, 16: 6, 8: 48}","[8, 11, 14, 16, 49, 73]",8481110146166497731,Na10Ta1In7Si6S6O48
Na10La7TaSi6(SO8)6,mp-2716356,3.1155,1.9355705,0.11036968395654956,"{11: 10, 57: 7, 73: 1, 14: 6, 16: 6, 8: 48}","[8, 11, 14, 16, 57, 73]",8481110146166577731,Na10La7Ta1Si6S6O48
Na10Ca2Ti6Si7S5O48,mp-2715855,1.7993000000000001,1.80742112,0.10673823544871297,"{11: 10, 20: 2, 22: 6, 14: 7, 16: 5, 8: 48}","[8, 11, 14, 16, 20, 22]",8481110147165202226,Na10Ca2Ti6Si7S5O48
Na10Ca2Si7Ge6S5O48,mp-2715912,1.2438000000000002,2.02909476,0.18217051760683223,"{11: 10, 20: 2, 14: 7, 32: 6, 16: 5, 8: 48}","[8, 11, 14, 16, 20, 32]",8481110147165202326,Na10Ca2Si7Ge6S5O48
Na10Ca2Zr6Si7S5O48,mp-2716097,2.9928000000000003,1.62227549,0.09622902004273559,"{11: 10, 20: 2, 40: 6, 14: 7, 16: 5, 8: 48}","[8, 11, 14, 16, 20, 40]",8481110147165202406,Na10Ca2Zr6Si7S5O48
Na10Ca2Si7Sn6S5O48,mp-2716029,1.1861000000000002,2.54916431,0.13408579653846253,"{11: 10, 20: 2, 14: 7, 50: 6, 16: 5, 8: 48}","[8, 11, 14, 16, 20, 50]",8481110147165202506,Na10Ca2Si7Sn6S5O48
Na10Ca2Hf6Si7S5O48,mp-2715988,3.6383,1.69448127,0.09181174180555374,"{11: 10, 20: 2, 72: 6, 14: 7, 16: 5, 8: 48}","[8, 11, 14, 16, 20, 72]",8481110147165202726,Na10Ca2Hf6Si7S5O48
Na10Ca4Nb4Si7S5O48,mp-2715847,1.1202,1.64721088,0.18564292014956774,"{11: 10, 20: 4, 41: 4, 14: 7, 16: 5, 8: 48}","[8, 11, 14, 16, 20, 41]",8481110147165204414,Na10Ca4Nb4Si7S5O48
Na10Ca4Ta4Si7S5O48,mp-2715882,1.7383,1.8099704,0.18745540141025785,"{11: 10, 20: 4, 73: 4, 14: 7, 16: 5, 8: 48}","[8, 11, 14, 16, 20, 73]",8481110147165204734,Na10Ca4Ta4Si7S5O48
Na10Sc4Ti4Si7S5O48,mp-2715832,1.7016999999999998,1.68624424,0.09831642993589984,"{11: 10, 21: 4, 22: 4, 14: 7, 16: 5, 8: 48}","[8, 11, 14, 16, 21, 22]",8481110147165214224,Na10Sc4Ti4Si7S5O48
Na10Sc4Si7Ge4S5O48,mp-2715919,1.6720000000000002,1.9447509,0.1531514723717926,"{11: 10, 21: 4, 14: 7, 32: 4, 16: 5, 8: 48}","[8, 11, 14, 16, 21, 32]",8481110147165214324,Na10Sc4Si7Ge4S5O48
Na10Zr4Sc4Si7S5O48,mp-2715961,3.1631,1.73999746,0.09343061634615246,"{11: 10, 40: 4, 21: 4, 14: 7, 16: 5, 8: 48}","[8, 11, 14, 16, 21, 40]",8481110147165214404,Na10Zr4Sc4Si7S5O48
Na10Sc4Si7Sn4S5O48,mp-2715927,1.887,2.32674884,0.11837221399572773,"{11: 10, 21: 4, 14: 7, 50: 4, 16: 5, 8: 48}","[8, 11, 14, 16, 21, 50]",8481110147165214504,Na10Sc4Si7Sn4S5O48
Na10Hf4Sc4Si7S5O48,mp-2715836,3.7531,1.80387318,0.08838138379273364,"{11: 10, 72: 4, 21: 4, 14: 7, 16: 5, 8: 48}","[8, 11, 14, 16, 21, 72]",8481110147165214724,Na10Hf4Sc4Si7S5O48
Na10Sc6Nb2Si7S5O48,mp-2715879,2.1568,1.52155372,0.08581851463674894,"{11: 10, 21: 6, 41: 2, 14: 7, 16: 5, 8: 48}","[8, 11, 14, 16, 21, 41]",8481110147165216412,Na10Sc6Nb2Si7S5O48
Na10Sc6Ta2Si7S5O48,mp-2714100,3.0344000000000007,1.63230039,0.08643571544871342,"{11: 10, 21: 6, 73: 2, 14: 7, 16: 5, 8: 48}","[8, 11, 14, 16, 21, 73]",8481110147165216732,Na10Sc6Ta2Si7S5O48
Na10Ti4Ga4Si7S5O48,mp-2715831,1.7659999999999998,2.11991221,0.12129453664529777,"{11: 10, 22: 4, 31: 4, 14: 7, 16: 5, 8: 48}","[8, 11, 14, 16, 22, 31]",8481110147165224314,Na10Ti4Ga4Si7S5O48
Na10Ti4In4Si7S5O48,mp-2715957,1.4854000000000003,2.24413885,0.11954443254273617,"{11: 10, 22: 4, 49: 4, 14: 7, 16: 5, 8: 48}","[8, 11, 14, 16, 22, 49]",8481110147165224494,Na10Ti4In4Si7S5O48
Na10La4Ti4Si7S5O48,mp-2715966,1.5344999999999998,1.87917059,0.15767603416667253,"{11: 10, 57: 4, 22: 4, 14: 7, 16: 5, 8: 48}","[8, 11, 14, 16, 22, 57]",8481110147165224574,Na10La4Ti4Si7S5O48
Na10Ti6Zn2Si7S5O48,mp-2716019,1.7628,1.97504412,0.11082253809829101,"{11: 10, 22: 6, 30: 2, 14: 7, 16: 5, 8: 48}","[8, 11, 14, 16, 22, 30]",8481110147165226302,Na10Ti6Zn2Si7S5O48