formula,material_id,band_gap,efermi,energy_above_hull,comp_atoms,sorted_keys_comp_atoms,comp_number,new_formula
Pr2Si2PbS8,mp-1220007,2.4126000000000003,5.67088985,0.0,"{59: 2, 14: 2, 82: 1, 16: 8}","[14, 16, 59, 82]",142168592821,Pr2Si2Pb1S8
Nd2Si2PbS8,mp-1220623,2.4088999999999996,5.6970987,0.0,"{60: 2, 14: 2, 82: 1, 16: 8}","[14, 16, 60, 82]",142168602821,Nd2Si2Pb1S8
KSi2Hg,mp-631408,0.0,3.8255661,0.6832522143749991,"{19: 1, 14: 2, 80: 1}","[14, 19, 80]",142191801,K1Si2Hg1
CaSi2,mp-2699,0.0,5.41643731,0.0,"{20: 1, 14: 2}","[14, 20]",142201,Ca1Si2
Ca(CoSi)2,mp-1070152,0.0,6.13030536,0.0,"{20: 1, 27: 2, 14: 2}","[14, 20, 27]",142201272,Ca1Co2Si2
Ca(ZnSi)2,mp-12137,0.0,5.34742706,0.005929191510639864,"{20: 1, 30: 2, 14: 2}","[14, 20, 30]",142201302,Ca1Zn2Si2
Ca(SiRh)2,mp-1069956,0.0,6.58540012,0.0,"{20: 1, 14: 2, 45: 2}","[14, 20, 45]",142201452,Ca1Si2Rh2
Ca(SiPd)2,mp-567769,0.0,5.68756552,0.0,"{20: 1, 14: 2, 46: 2}","[14, 20, 46]",142201462,Ca1Si2Pd2
Ca(SiAu)2,mp-7364,0.0,5.92197758,0.0,"{20: 1, 14: 2, 79: 2}","[14, 20, 79]",142201792,Ca1Si2Au2
Ca2MnSi2,mp-1214268,0.0,-1.90417812,2.300370593166668,"{20: 2, 25: 1, 14: 2}","[14, 20, 25]",142202251,Ca2Mn1Si2
Ca3(SiAs2)2,mp-540696,0.823,3.87708205,0.0,"{20: 3, 14: 2, 33: 4}","[14, 20, 33]",142203334,Ca3Si2As4
ScSi2,mp-2841,0.0,7.62785615,0.21154109166666757,"{21: 1, 14: 2}","[14, 21]",142211,Sc1Si2
ScMnSi2,mp-1205070,0.0,7.68990452,0.0,"{21: 1, 25: 1, 14: 2}","[14, 21, 25]",142211251,Sc1Mn1Si2
Sc(CoSi)2,mp-4131,0.0,7.1932128,0.0,"{21: 1, 27: 2, 14: 2}","[14, 21, 27]",142211272,Sc1Co2Si2
ScSi2Tc,mp-1093774,0.0,-3.075911,3.1436435481249996,"{21: 1, 14: 2, 43: 1}","[14, 21, 43]",142211431,Sc1Si2Tc1
ScSi2Rh,mp-22307,0.0,7.94140232,0.0,"{21: 1, 14: 2, 45: 1}","[14, 21, 45]",142211451,Sc1Si2Rh1
La2ScSi2,mp-1205647,0.0,7.28885105,0.002778771349994713,"{57: 2, 21: 1, 14: 2}","[14, 21, 57]",142211572,La2Sc1Si2
Ce2ScSi2,mp-1205723,0.0,7.17783301,0.014022354720001573,"{58: 2, 21: 1, 14: 2}","[14, 21, 58]",142211582,Ce2Sc1Si2
Pr2ScSi2,mp-1205499,0.0,4.87871241,0.0,"{59: 2, 21: 1, 14: 2}","[14, 21, 59]",142211592,Pr2Sc1Si2
Nd2ScSi2,mp-20647,0.0,4.86711553,0.0,"{60: 2, 21: 1, 14: 2}","[14, 21, 60]",142211602,Nd2Sc1Si2
Sm2ScSi2,mp-1205812,0.0,4.76953812,0.0,"{62: 2, 21: 1, 14: 2}","[14, 21, 62]",142211622,Sm2Sc1Si2
TbScSi2,mp-1217472,0.0,5.76712161,0.0304638525000005,"{65: 1, 21: 1, 14: 2}","[14, 21, 65]",142211651,Tb1Sc1Si2
HfScSi2,mp-1224306,0.0,6.94147875,0.01803730437500306,"{72: 1, 21: 1, 14: 2}","[14, 21, 72]",142211721,Hf1Sc1Si2
Sc2CoSi2,mp-9902,0.0,6.46034083,0.0,"{21: 2, 27: 1, 14: 2}","[14, 21, 27]",142212271,Sc2Co1Si2
Sc2Si2Ru,mp-13583,0.0,6.5937296,0.007072036499998546,"{21: 2, 14: 2, 44: 1}","[14, 21, 44]",142212441,Sc2Si2Ru1
Sc2Si2Pt3,mp-1104406,0.0,7.5635512,0.0,"{21: 2, 14: 2, 78: 3}","[14, 21, 78]",142212783,Sc2Si2Pt3
Sc4Si2Pt7,mp-1193821,0.0,7.18076411,0.0,"{21: 4, 14: 2, 78: 7}","[14, 21, 78]",142214787,Sc4Si2Pt7
TiSi2,mp-1077503,0.0,9.52663801,0.0,"{22: 1, 14: 2}","[14, 22]",142221,Ti1Si2
TiMnSi2,mp-21606,0.0,8.74990841,0.0,"{22: 1, 25: 1, 14: 2}","[14, 22, 25]",142221251,Ti1Mn1Si2
Dy2TiSi2,mp-1206165,0.0,4.2501532,1.5029647927999967,"{66: 2, 22: 1, 14: 2}","[14, 22, 66]",142221662,Dy2Ti1Si2
VSi2,mp-10711,0.0,9.90267122,0.0,"{23: 1, 14: 2}","[14, 23]",142231,V1Si2
MnV(Co2Si)2,mp-1221599,0.0,8.15936838,0.011185971119791915,"{25: 1, 23: 1, 27: 4, 14: 2}","[14, 23, 25, 27]",142231251274,Mn1V1Co4Si2
Hf2VSi2,mp-1206654,0.0,5.15833762,1.544606101000003,"{72: 2, 23: 1, 14: 2}","[14, 23, 72]",142231722,Hf2V1Si2
V3Cr3Si2,mp-1216481,0.0,7.6711077,0.0015600647499969256,"{23: 3, 24: 3, 14: 2}","[14, 23, 24]",142233243,V3Cr3Si2
Nb3V3Si2,mp-1220570,0.0,6.61793681,0.101304332083334,"{41: 3, 23: 3, 14: 2}","[14, 23, 41]",142233413,Nb3V3Si2
V3Si2Mo3,mp-1216468,0.0,8.36379982,0.0,"{23: 3, 14: 2, 42: 3}","[14, 23, 42]",142233423,V3Si2Mo3
CrSi2,mp-8937,0.0,10.6418379,0.0,"{24: 1, 14: 2}","[14, 24]",142241,Cr1Si2
MnCrSi2,mp-1221675,0.0,9.19946866,0.044294076374997715,"{25: 1, 24: 1, 14: 2}","[14, 24, 25]",142241251,Mn1Cr1Si2
CeMnCrSi2,mp-1226532,0.0,7.6095566,0.062001138166678516,"{58: 1, 25: 1, 24: 1, 14: 2}","[14, 24, 25, 58]",142241251581,Ce1Mn1Cr1Si2
CrCoSi2,mp-1226249,0.0,9.21976992,0.07637410137500034,"{24: 1, 27: 1, 14: 2}","[14, 24, 27]",142241271,Cr1Co1Si2
ZrCrSi2,mp-21591,0.0,7.72745681,0.026004846583331798,"{40: 1, 24: 1, 14: 2}","[14, 24, 40]",142241401,Zr1Cr1Si2
CrSi2Tc,mp-1093862,0.5173999999999999,-3.49342382,3.1499232268750035,"{24: 1, 14: 2, 43: 1}","[14, 24, 43]",142241431,Cr1Si2Tc1
HfCrSi2,mp-1204660,0.0,8.07613086,0.0,"{72: 1, 24: 1, 14: 2}","[14, 24, 72]",142241721,Hf1Cr1Si2
Ce(CrSi)2,mp-1207209,0.0,7.91958742,0.11413062400000129,"{58: 1, 24: 2, 14: 2}","[14, 24, 58]",142242581,Ce1Cr2Si2
Nd(CrSi)2,mp-570399,0.0,6.37687178,0.15063072080000062,"{60: 1, 24: 2, 14: 2}","[14, 24, 60]",142242601,Nd1Cr2Si2
Sm(CrSi)2,mp-567830,0.0,6.26130176,0.1332945363000011,"{62: 1, 24: 2, 14: 2}","[14, 24, 62]",142242621,Sm1Cr2Si2
Gd(CrSi)2,mp-610787,0.0,6.35995606,0.06396585779999953,"{64: 1, 24: 2, 14: 2}","[14, 24, 64]",142242641,Gd1Cr2Si2
Tb(CrSi)2,mp-8832,0.0,6.51966462,0.11485263079999797,"{65: 1, 24: 2, 14: 2}","[14, 24, 65]",142242651,Tb1Cr2Si2
Dy(CrSi)2,mp-19909,0.0,6.51398353,0.11255941880000009,"{66: 1, 24: 2, 14: 2}","[14, 24, 66]",142242661,Dy1Cr2Si2
Ho(CrSi)2,mp-5561,0.0,6.46239429,0.11008338679999952,"{67: 1, 24: 2, 14: 2}","[14, 24, 67]",142242671,Ho1Cr2Si2
Er(CrSi)2,mp-12082,0.0,6.51650089,0.03413563380000184,"{68: 1, 24: 2, 14: 2}","[14, 24, 68]",142242681,Er1Cr2Si2
Tm(CrSi)2,mp-567243,0.0,6.49250334,0.10544350280000003,"{69: 1, 24: 2, 14: 2}","[14, 24, 69]",142242691,Tm1Cr2Si2
Lu(CrSi)2,mp-12084,0.0,6.55217998,0.10426481580000058,"{71: 1, 24: 2, 14: 2}","[14, 24, 71]",142242711,Lu1Cr2Si2
Th(CrSi)2,mp-5400,0.0,7.97801822,0.0775354246666673,"{90: 1, 24: 2, 14: 2}","[14, 24, 90]",142242901,Th1Cr2Si2
U(CrSi)2,mp-5284,0.0,9.17430065,0.10539093016666712,"{92: 1, 24: 2, 14: 2}","[14, 24, 92]",142242921,U1Cr2Si2
Np(CrSi)2,mp-12085,0.0,9.68817231,0.2715794727499983,"{93: 1, 24: 2, 14: 2}","[14, 24, 93]",142242931,Np1Cr2Si2
Pu(CrSi)2,mp-19838,0.0,9.93142021,0.4533394186666655,"{94: 1, 24: 2, 14: 2}","[14, 24, 94]",142242941,Pu1Cr2Si2
Cr3Si2Mo3,mp-1226248,0.0,8.92025569,0.0338558437500005,"{24: 3, 14: 2, 42: 3}","[14, 24, 42]",142243423,Cr3Si2Mo3
MnCoSi2,mp-1221669,0.0,9.56598525,0.03477848749999968,"{25: 1, 27: 1, 14: 2}","[14, 25, 27]",142251271,Mn1Co1Si2
ZrMnSi2,mp-18059,0.0,7.79490322,0.008854658958333594,"{40: 1, 25: 1, 14: 2}","[14, 25, 40]",142251401,Zr1Mn1Si2
MnSi2Tc,mp-1096361,0.0,-2.96032011,2.968458263014705,"{25: 1, 14: 2, 43: 1}","[14, 25, 43]",142251431,Mn1Si2Tc1
CeMnSi2Pd,mp-1226515,0.0,8.0382465,0.060353366250001095,"{58: 1, 25: 1, 14: 2, 46: 1}","[14, 25, 46, 58]",142251461581,Ce1Mn1Si2Pd1
MnSi2Pd3,mp-1221623,0.0,7.25283967,0.06984802440972349,"{25: 1, 14: 2, 46: 3}","[14, 25, 46]",142251463,Mn1Si2Pd3
LaMnSi2,mp-3213,0.0,8.38106022,0.0,"{57: 1, 25: 1, 14: 2}","[14, 25, 57]",142251571,La1Mn1Si2
CeMnSi2,mp-5901,0.0,8.27838971,0.0,"{58: 1, 25: 1, 14: 2}","[14, 25, 58]",142251581,Ce1Mn1Si2
PrMnSi2,mp-1080530,0.0,6.54843926,0.004018024999999703,"{59: 1, 25: 1, 14: 2}","[14, 25, 59]",142251591,Pr1Mn1Si2
Pr2MnSi2,mp-1207224,0.0,4.33655272,1.468104999413792,"{59: 2, 25: 1, 14: 2}","[14, 25, 59]",142251592,Pr2Mn1Si2
NdMnSi2,mp-9527,0.0,6.38647808,0.0,"{60: 1, 25: 1, 14: 2}","[14, 25, 60]",142251601,Nd1Mn1Si2
Nd2MnSi2,mp-1207295,0.0,4.55922107,1.4870338884137944,"{60: 2, 25: 1, 14: 2}","[14, 25, 60]",142251602,Nd2Mn1Si2
SmMnSi2,mp-1078797,0.0,6.45282417,0.0,"{62: 1, 25: 1, 14: 2}","[14, 25, 62]",142251621,Sm1Mn1Si2
Sm2MnSi2,mp-1207312,0.0,4.23138223,1.4865019174999974,"{62: 2, 25: 1, 14: 2}","[14, 25, 62]",142251622,Sm2Mn1Si2
TmMnSi2,mp-1025424,0.0,6.28450816,0.1937098504166732,"{69: 1, 25: 1, 14: 2}","[14, 25, 69]",142251691,Tm1Mn1Si2
HfMnSi2,mp-1203090,0.0,8.18253423,0.0,"{72: 1, 25: 1, 14: 2}","[14, 25, 72]",142251721,Hf1Mn1Si2
La(MnSi)2,mp-5069,0.0,7.93690989,0.0,"{57: 1, 25: 2, 14: 2}","[14, 25, 57]",142252571,La1Mn2Si2
Ce(MnSi)2,mp-2965,0.0,7.69178472,0.0,"{58: 1, 25: 2, 14: 2}","[14, 25, 58]",142252581,Ce1Mn2Si2
Pr(MnSi)2,mp-5423,0.0,6.26281408,0.0,"{59: 1, 25: 2, 14: 2}","[14, 25, 59]",142252591,Pr1Mn2Si2
Nd(MnSi)2,mp-3018,0.0,6.2500818,0.0,"{60: 1, 25: 2, 14: 2}","[14, 25, 60]",142252601,Nd1Mn2Si2
Sm(MnSi)2,mp-13473,0.0,6.18321476,0.0,"{62: 1, 25: 2, 14: 2}","[14, 25, 62]",142252621,Sm1Mn2Si2
Gd(MnSi)2,mp-20448,0.0,6.74524667,1.0135980732500016,"{64: 1, 25: 2, 14: 2}","[14, 25, 64]",142252641,Gd1Mn2Si2
Tb(MnSi)2,mp-5677,0.0,6.37750847,0.0,"{65: 1, 25: 2, 14: 2}","[14, 25, 65]",142252651,Tb1Mn2Si2
Dy(MnSi)2,mp-4985,0.0,6.36782298,0.0,"{66: 1, 25: 2, 14: 2}","[14, 25, 66]",142252661,Dy1Mn2Si2
Ho(MnSi)2,mp-5796,0.0,6.33965782,0.0,"{67: 1, 25: 2, 14: 2}","[14, 25, 67]",142252671,Ho1Mn2Si2
Er(MnSi)2,mp-4729,0.0,6.36401105,0.0,"{68: 1, 25: 2, 14: 2}","[14, 25, 68]",142252681,Er1Mn2Si2
Tm(MnSi)2,mp-1207007,0.0,6.37539807,0.0,"{69: 1, 25: 2, 14: 2}","[14, 25, 69]",142252691,Tm1Mn2Si2
Lu(MnSi)2,mp-1207112,0.0,6.36026166,0.0,"{71: 1, 25: 2, 14: 2}","[14, 25, 71]",142252711,Lu1Mn2Si2
Th(MnSi)2,mp-4458,0.0,7.81518517,0.0,"{90: 1, 25: 2, 14: 2}","[14, 25, 90]",142252901,Th1Mn2Si2
U(MnSi)2,mp-5683,0.0,9.0920112,0.038750524999999314,"{92: 1, 25: 2, 14: 2}","[14, 25, 92]",142252921,U1Mn2Si2
Np(MnSi)2,mp-570009,0.0,9.18528381,0.23576634524999562,"{93: 1, 25: 2, 14: 2}","[14, 25, 93]",142252931,Np1Mn2Si2
Pu(MnSi)2,mp-22771,0.0,9.5259338,0.3701565112499985,"{94: 1, 25: 2, 14: 2}","[14, 25, 94]",142252941,Pu1Mn2Si2
Mn3(SiSe3)2,mp-1210606,0.21109999999999962,4.0180086,0.04933946446969717,"{25: 3, 14: 2, 34: 6}","[14, 25, 34]",142253346,Mn3Si2Se6
Mn3(SiTe3)2,mp-675570,0.0,7.73910727,0.08683329710743948,"{25: 3, 14: 2, 52: 6}","[14, 25, 52]",142253526,Mn3Si2Te6
Mn5Si2,mp-608655,0.0,7.91537149,0.07241013196428625,"{25: 5, 14: 2}","[14, 25]",142255,Mn5Si2
Mn5Si2Ge,mp-1221552,0.0,7.31103094,0.03797991843749937,"{25: 5, 14: 2, 32: 1}","[14, 25, 32]",142255321,Mn5Si2Ge1
CoSi2,mp-2379,0.0,9.49187212,0.0,"{27: 1, 14: 2}","[14, 27]",142271,Co1Si2
U(Co5Si)2,mp-1216852,0.0,7.22815351,0.07484456124999816,"{92: 1, 27: 10, 14: 2}","[14, 27, 92]",1422710921,U1Co10Si2
Co(SiSe2)2,mp-1078078,0.0,5.77668991,0.3421971908928585,"{27: 1, 14: 2, 34: 4}","[14, 27, 34]",142271344,Co1Si2Se4
Zr2CoSi2,mp-4022,0.0,6.55408501,0.0,"{40: 2, 27: 1, 14: 2}","[14, 27, 40]",142271402,Zr2Co1Si2
CeCoSi2Rh,mp-1226609,0.0,8.36718225,0.031485651000007664,"{58: 1, 27: 1, 14: 2, 45: 1}","[14, 27, 45, 58]",142271451581,Ce1Co1Si2Rh1
DyCoSi2Rh,mp-1225286,0.0,6.85706876,0.034005364000000426,"{66: 1, 27: 1, 14: 2, 45: 1}","[14, 27, 45, 66]",142271451661,Dy1Co1Si2Rh1
InCoSi2,mp-631694,0.0,8.76397987,0.9144740475000006,"{49: 1, 27: 1, 14: 2}","[14, 27, 49]",142271491,In1Co1Si2
LaCoSi2,mp-1206651,0.0,8.27284351,0.0,"{57: 1, 27: 1, 14: 2}","[14, 27, 57]",142271571,La1Co1Si2
CeCoSi2,mp-7095,0.0,8.37110209,0.0,"{58: 1, 27: 1, 14: 2}","[14, 27, 58]",142271581,Ce1Co1Si2
NdCoSi2,mp-5170,0.0,6.36553925,0.0,"{60: 1, 27: 1, 14: 2}","[14, 27, 60]",142271601,Nd1Co1Si2
Nd5CoSi2,mp-1220240,0.0,4.35086765,0.07542403781250329,"{60: 5, 27: 1, 14: 2}","[14, 27, 60]",142271605,Nd5Co1Si2
SmCoSi2,mp-13478,0.0,6.30433776,0.0,"{62: 1, 27: 1, 14: 2}","[14, 27, 62]",142271621,Sm1Co1Si2
Gd2CoSi2,mp-1080595,0.0,5.40606934,0.015399891999999582,"{64: 2, 27: 1, 14: 2}","[14, 27, 64]",142271642,Gd2Co1Si2
TbCoSi2,mp-4969,0.0,6.62461559,0.0,"{65: 1, 27: 1, 14: 2}","[14, 27, 65]",142271651,Tb1Co1Si2
Tb2CoSi2,mp-1205642,0.0,5.60289372,0.025086859000002626,"{65: 2, 27: 1, 14: 2}","[14, 27, 65]",142271652,Tb2Co1Si2
DyCoSi2,mp-8742,0.0,6.61169448,0.0,"{66: 1, 27: 1, 14: 2}","[14, 27, 66]",142271661,Dy1Co1Si2
Dy2CoSi2,mp-31093,0.0,5.57052055,0.008144200000000268,"{66: 2, 27: 1, 14: 2}","[14, 27, 66]",142271662,Dy2Co1Si2
HoCoSi2,mp-8743,0.0,6.69186998,0.0,"{67: 1, 27: 1, 14: 2}","[14, 27, 67]",142271671,Ho1Co1Si2
Ho2CoSi2,mp-1205777,0.0,5.4984387,0.0038739722500009677,"{67: 2, 27: 1, 14: 2}","[14, 27, 67]",142271672,Ho2Co1Si2
ErCoSi2,mp-3128,0.0,6.60023408,0.0,"{68: 1, 27: 1, 14: 2}","[14, 27, 68]",142271681,Er1Co1Si2
Er2CoSi2,mp-568728,0.0,5.59135968,0.0016648402499956916,"{68: 2, 27: 1, 14: 2}","[14, 27, 68]",142271682,Er2Co1Si2
TmCoSi2,mp-1025408,0.0,6.65698286,0.004132534583334291,"{69: 1, 27: 1, 14: 2}","[14, 27, 69]",142271691,Tm1Co1Si2
Tm2CoSi2,mp-1205659,0.0,5.5696342,0.0,"{69: 2, 27: 1, 14: 2}","[14, 27, 69]",142271692,Tm2Co1Si2
ThCoSi2,mp-1206216,0.0,8.32971319,0.0,"{90: 1, 27: 1, 14: 2}","[14, 27, 90]",142271901,Th1Co1Si2
Sr(CoSi)2,mp-1069057,0.0,5.34682335,0.0,"{38: 1, 27: 2, 14: 2}","[14, 27, 38]",142272381,Sr1Co2Si2
Zr(CoSi)2,mp-569344,0.0,7.53616705,0.0,"{40: 1, 27: 2, 14: 2}","[14, 27, 40]",142272401,Zr1Co2Si2
La(CoSi)2,mp-5526,0.0,8.23204918,0.0,"{57: 1, 27: 2, 14: 2}","[14, 27, 57]",142272571,La1Co2Si2
Ce(CoSi)2,mp-3437,0.0,8.26456701,0.0,"{58: 1, 27: 2, 14: 2}","[14, 27, 58]",142272581,Ce1Co2Si2
Pr(CoSi)2,mp-5112,0.0,6.46346816,0.0,"{59: 1, 27: 2, 14: 2}","[14, 27, 59]",142272591,Pr1Co2Si2
Nd(CoSi)2,mp-4228,0.0,6.46935407,0.0,"{60: 1, 27: 2, 14: 2}","[14, 27, 60]",142272601,Nd1Co2Si2
Sm(CoSi)2,mp-15968,0.0,6.41442258,0.0,"{62: 1, 27: 2, 14: 2}","[14, 27, 62]",142272621,Sm1Co2Si2
Eu(CoSi)2,mp-672294,0.0,6.04566205,0.0,"{63: 1, 27: 2, 14: 2}","[14, 27, 63]",142272631,Eu1Co2Si2
Gd(CoSi)2,mp-542985,0.0,6.46826819,0.0,"{64: 1, 27: 2, 14: 2}","[14, 27, 64]",142272641,Gd1Co2Si2
Tb(CoSi)2,mp-3292,0.0,6.66964729,0.0,"{65: 1, 27: 2, 14: 2}","[14, 27, 65]",142272651,Tb1Co2Si2
Dy(CoSi)2,mp-5976,0.0,6.67458432,0.0,"{66: 1, 27: 2, 14: 2}","[14, 27, 66]",142272661,Dy1Co2Si2
Ho(CoSi)2,mp-5835,0.0,6.65299936,0.0,"{67: 1, 27: 2, 14: 2}","[14, 27, 67]",142272671,Ho1Co2Si2
Er(CoSi)2,mp-3239,0.0,6.68841904,0.0,"{68: 1, 27: 2, 14: 2}","[14, 27, 68]",142272681,Er1Co2Si2
Tm(CoSi)2,mp-3262,0.0,6.67855749,0.0,"{69: 1, 27: 2, 14: 2}","[14, 27, 69]",142272691,Tm1Co2Si2
Hf(CoSi)2,mp-571367,0.0,7.81061176,0.0,"{72: 1, 27: 2, 14: 2}","[14, 27, 72]",142272721,Hf1Co2Si2
Th(CoSi)2,mp-7072,0.0,8.12006432,0.0,"{90: 1, 27: 2, 14: 2}","[14, 27, 90]",142272901,Th1Co2Si2
U(CoSi)2,mp-21429,0.0,9.48662534,0.0,"{92: 1, 27: 2, 14: 2}","[14, 27, 92]",142272921,U1Co2Si2
Np(CoSi)2,mp-21130,0.0,10.12863442,0.0,"{93: 1, 27: 2, 14: 2}","[14, 27, 93]",142272931,Np1Co2Si2
Pu(CoSi)2,mp-22383,0.0,9.55503764,0.0,"{94: 1, 27: 2, 14: 2}","[14, 27, 94]",142272941,Pu1Co2Si2
ErCo3Si2,mp-1103425,0.0,6.48950875,0.0,"{68: 1, 27: 3, 14: 2}","[14, 27, 68]",142273681,Er1Co3Si2
NdCo9Si2,mp-1191853,0.0,6.28399,0.034933454166655054,"{60: 1, 27: 9, 14: 2}","[14, 27, 60]",142279601,Nd1Co9Si2
SmCo9Si2,mp-17623,0.0,6.01731389,0.04375950333334355,"{62: 1, 27: 9, 14: 2}","[14, 27, 62]",142279621,Sm1Co9Si2
EuCo9Si2,mp-1192337,0.0,5.94001165,0.034999385833328844,"{63: 1, 27: 9, 14: 2}","[14, 27, 63]",142279631,Eu1Co9Si2
TbCo9Si2,mp-1191366,0.0,6.15272203,0.04285320833332307,"{65: 1, 27: 9, 14: 2}","[14, 27, 65]",142279651,Tb1Co9Si2
ErCo9Si2,mp-1191958,0.0,6.09697464,0.055433423750000266,"{68: 1, 27: 9, 14: 2}","[14, 27, 68]",142279681,Er1Co9Si2
ThCo9Si2,mp-17474,0.0,7.02157367,0.07901785625000812,"{90: 1, 27: 9, 14: 2}","[14, 27, 90]",142279901,Th1Co9Si2
Nd(ZnSi)2,mp-1206420,0.0,5.79642268,0.010077929176468992,"{60: 1, 30: 2, 14: 2}","[14, 30, 60]",142302601,Nd1Zn2Si2
Eu(ZnSi)2,mp-22133,0.0,5.28212957,0.0,"{63: 1, 30: 2, 14: 2}","[14, 30, 63]",142302631,Eu1Zn2Si2
K4Si23,mp-531,0.0,6.24668184,0.010719426018518163,"{19: 4, 14: 23}","[14, 19]",1423194,K4Si23
Pr5Si2Ge,mp-1188522,0.0,4.49261915,0.0,"{59: 5, 14: 2, 32: 1}","[14, 32, 59]",142321595,Pr5Si2Ge1
Mn14Si23,mp-650285,0.0,9.4932602,0.5878311982432454,"{25: 14, 14: 23}","[14, 25]",14232514,Mn14Si23
Sr3(SiAs2)2,mp-11677,0.9176000000000002,3.10171228,0.0,"{38: 3, 14: 2, 33: 4}","[14, 33, 38]",142334383,Sr3Si2As4
Eu3(SiAs2)2,mp-1199837,0.0,4.30479247,0.0,"{63: 3, 14: 2, 33: 4}","[14, 33, 63]",142334633,Eu3Si2As4
Rb2Si2Se5,mp-1209497,2.3052,2.90030763,0.0,"{37: 2, 14: 2, 34: 5}","[14, 34, 37]",142345372,Rb2Si2Se5
Cs2Si2Se5,mp-542550,2.4621,0.6251034,0.0,"{55: 2, 14: 2, 34: 5}","[14, 34, 55]",142345552,Cs2Si2Se5
Ta10Si2MoSe8,mp-1208613,0.0,6.19420086,0.006935964863952648,"{73: 10, 14: 2, 42: 1, 34: 8}","[14, 34, 42, 73]",1423484217310,Ta10Si2Mo1Se8
La2Si2PbSe8,mp-1223272,1.9379000000000004,3.49565341,0.0,"{57: 2, 14: 2, 82: 1, 34: 8}","[14, 34, 57, 82]",142348572821,La2Si2Pb1Se8
Pr2Si2PbSe8,mp-1220047,1.8305000000000002,2.87497,0.0,"{59: 2, 14: 2, 82: 1, 34: 8}","[14, 34, 59, 82]",142348592821,Pr2Si2Pb1Se8
Nd2Si2PbSe8,mp-1220616,1.819,2.89330598,0.0,"{60: 2, 14: 2, 82: 1, 34: 8}","[14, 34, 60, 82]",142348602821,Nd2Si2Pb1Se8
Ta11(SiSe4)2,mp-1208587,0.0,6.04081493,0.0,"{73: 11, 14: 2, 34: 8}","[14, 34, 73]",1423487311,Ta11Si2Se8
HfSi2Br,mp-631455,0.0,6.6080003,1.3200227493749992,"{72: 1, 14: 2, 35: 1}","[14, 35, 72]",142351721,Hf1Si2Br1
SrSi2,mp-496,0.0,5.39625507,0.0,"{38: 1, 14: 2}","[14, 38]",142381,Sr1Si2
Sr(SiPd)2,mp-568402,0.0,5.28703498,0.0,"{38: 1, 14: 2, 46: 2}","[14, 38, 46]",142381462,Sr1Si2Pd2
Sr(SiAg)2,mp-7880,0.0,4.44923685,0.0,"{38: 1, 14: 2, 47: 2}","[14, 38, 47]",142381472,Sr1Si2Ag2
Sr(SiPt)2,mp-1218889,0.0,6.12537217,0.006770328999994746,"{38: 1, 14: 2, 78: 2}","[14, 38, 78]",142381782,Sr1Si2Pt2
Sr(SiAu)2,mp-7365,0.0,5.5500807,0.0,"{38: 1, 14: 2, 79: 2}","[14, 38, 79]",142381792,Sr1Si2Au2
ZrSi2,mp-1515,0.0,7.91485625,0.0,"{40: 1, 14: 2}","[14, 40]",142401,Zr1Si2
ZrNb(SiRu)2,mp-1215260,0.0,7.55966371,0.010883697777780199,"{40: 1, 41: 1, 14: 2, 44: 2}","[14, 40, 41, 44]",142401411442,Zr1Nb1Si2Ru2
ZrTa(SiRu)2,mp-1215289,0.0,7.82301102,0.0,"{40: 1, 73: 1, 14: 2, 44: 2}","[14, 40, 44, 73]",142401442731,Zr1Ta1Si2Ru2
ZrReSi2,mp-1196218,0.0,7.99778528,0.0321790069940473,"{40: 1, 75: 1, 14: 2}","[14, 40, 75]",142401751,Zr1Re1Si2
Zr3Si2,mp-1207024,0.0,5.96973711,0.0,"{40: 3, 14: 2}","[14, 40]",142403,Zr3Si2
NbSi2,mp-12104,0.0,8.7813181,0.0,"{41: 1, 14: 2}","[14, 41]",142411,Nb1Si2
Nb3Si2,mp-1078996,0.0,7.3646505,0.019349318666662896,"{41: 3, 14: 2}","[14, 41]",142413,Nb3Si2
Nb8Si2Sb4Pd,mp-1220464,0.0,7.87748324,0.0,"{41: 8, 14: 2, 51: 4, 46: 1}","[14, 41, 46, 51]",142418461514,Nb8Si2Sb4Pd1
Si2Mo,mp-2592,0.0,10.80167203,0.0,"{14: 2, 42: 1}","[14, 42]",142421,Si2Mo1
Si2Mo3,mp-1087230,0.0,9.65184396,0.14474110085714287,"{14: 2, 42: 3}","[14, 42]",142423,Si2Mo3
Si2TcRu,mp-1097311,0.0,-3.44604981,3.353848535000001,"{14: 2, 43: 1, 44: 1}","[14, 43, 44]",142431441,Si2Tc1Ru1
Si2TcRh,mp-1264530,0.0,-2.09458485,3.1285849687499976,"{14: 2, 43: 1, 45: 1}","[14, 43, 45]",142431451,Si2Tc1Rh1
ReSi2Tc,mp-1095827,0.14720000000000022,-3.24501363,3.5707877822098215,"{75: 1, 14: 2, 43: 1}","[14, 43, 75]",142431751,Re1Si2Tc1
Si2TcOs,mp-978500,0.0,10.6491749,0.027128274375002093,"{14: 2, 43: 1, 76: 1}","[14, 43, 76]",142431761,Si2Tc1Os1
Si2TcIr,mp-1097230,0.0,-3.38569661,3.23003472125,"{14: 2, 43: 1, 77: 1}","[14, 43, 77]",142431771,Si2Tc1Ir1
Th(SiTc)2,mp-8375,0.0,8.32423507,0.0,"{90: 1, 14: 2, 43: 2}","[14, 43, 90]",142432901,Th1Si2Tc2
Si2Ru,mp-569815,0.4067000000000007,9.5100627,0.0,"{14: 2, 44: 1}","[14, 44]",142441,Si2Ru1
CeSi2RuRh,mp-1226491,0.0,8.3465465,0.0,"{58: 1, 14: 2, 44: 1, 45: 1}","[14, 44, 45, 58]",142441451581,Ce1Si2Ru1Rh1
TbSi2RuRh,mp-1217478,0.0,6.97146622,0.0,"{65: 1, 14: 2, 44: 1, 45: 1}","[14, 44, 45, 65]",142441451651,Tb1Si2Ru1Rh1
USi2RuRh,mp-1216552,0.0,9.53517247,0.0,"{92: 1, 14: 2, 44: 1, 45: 1}","[14, 44, 45, 92]",142441451921,U1Si2Ru1Rh1
LaSi2Ru,mp-28795,0.0,8.70699886,0.0,"{57: 1, 14: 2, 44: 1}","[14, 44, 57]",142441571,La1Si2Ru1
CeSi2Ru,mp-1025521,0.0,8.44833541,0.0,"{58: 1, 14: 2, 44: 1}","[14, 44, 58]",142441581,Ce1Si2Ru1
CeSi2OsRu,mp-1226508,0.0,8.35256478,0.012294930999999565,"{58: 1, 14: 2, 76: 1, 44: 1}","[14, 44, 58, 76]",142441581761,Ce1Si2Os1Ru1
PrSi2Ru,mp-31083,0.0,6.8433876,0.0,"{59: 1, 14: 2, 44: 1}","[14, 44, 59]",142441591,Pr1Si2Ru1
NdSi2Ru,mp-28665,0.0,6.80106432,0.0,"{60: 1, 14: 2, 44: 1}","[14, 44, 60]",142441601,Nd1Si2Ru1
Sm2Si2Ru,mp-1207324,0.0,4.80304173,1.6705028704999982,"{62: 2, 14: 2, 44: 1}","[14, 44, 62]",142441622,Sm2Si2Ru1