formula,material_id,band_gap,efermi,energy_above_hull,comp_atoms,sorted_keys_comp_atoms,comp_number,new_formula
SiBi2O5,mp-28144,2.7077,4.24645744,0.012209359791642171,"{14: 1, 83: 2, 8: 5}","[8, 14, 83]",85141832,Si1Bi2O5
Si2O5,mp-862998,2.6763,1.06106857,0.3212697769047619,"{14: 2, 8: 5}","[8, 14]",85142,Si2O5
K2Si2O5,mp-29825,4.3282,0.5096256,0.0,"{19: 2, 14: 2, 8: 5}","[8, 14, 19]",85142192,K2Si2O5
CaSi2O5,mp-29755,4.7791999999999994,4.14092745,0.09318993854165747,"{20: 1, 14: 2, 8: 5}","[8, 14, 20]",85142201,Ca1Si2O5
Ti2Si2O5,mp-971724,0.0,10.27941858,0.8281758380952358,"{22: 2, 14: 2, 8: 5}","[8, 14, 22]",85142222,Ti2Si2O5
MnSi2O5,mp-19351,3.4858000000000002,4.92678615,0.10573477031250356,"{25: 1, 14: 2, 8: 5}","[8, 14, 25]",85142251,Mn1Si2O5
RbSi2O5,mp-1201483,1.1371,0.47593474,0.1030011506423607,"{37: 1, 14: 2, 8: 5}","[8, 14, 37]",85142371,Rb1Si2O5
Rb2Si2O5,mp-28971,4.0396,0.27982678,0.0,"{37: 2, 14: 2, 8: 5}","[8, 14, 37]",85142372,Rb2Si2O5
SrSi2O5,mp-560886,4.0548,4.95040662,0.158880936249993,"{38: 1, 14: 2, 8: 5}","[8, 14, 38]",85142381,Sr1Si2O5
Zr2Si2O5,mp-1188010,0.0,9.9798266,1.0056303804166618,"{40: 2, 14: 2, 8: 5}","[8, 14, 40]",85142402,Zr2Si2O5
Si2Ag2O5,mp-1208960,1.2165,1.56856782,0.06180878953703761,"{14: 2, 47: 2, 8: 5}","[8, 14, 47]",85142472,Si2Ag2O5
Cs2Si2O5,mp-562345,4.1909,0.99482083,0.0,"{55: 2, 14: 2, 8: 5}","[8, 14, 55]",85142552,Cs2Si2O5
La2Si2O5,mp-1185023,0.0,11.27374719,0.6578030533333177,"{57: 2, 14: 2, 8: 5}","[8, 14, 57]",85142572,La2Si2O5
Ca6Co3Si6O5,mp-1196785,0.0,4.65412907,0.7743040896249989,"{20: 6, 27: 3, 14: 6, 8: 5}","[8, 14, 20, 27]",85146206273,Ca6Co3Si6O5
Na8Nb4Si16O53,mp-1221183,0.005500000000000005,-0.11091689,0.18003621756172716,"{11: 8, 41: 4, 14: 16, 8: 53}","[8, 11, 14, 41]",8531181416414,Na8Nb4Si16O53
Na2VSi(W2O9)6,mp-863300,0.05520000000000014,-1.49952754,0.8173315832916668,"{11: 2, 23: 1, 14: 1, 74: 12, 8: 54}","[8, 11, 14, 23, 74]",8541121412317412,Na2V1Si1W12O54
Na2Ca29ZrSi16(O7F2)8,mp-735808,2.3014,2.79907367,0.5418884847916674,"{11: 2, 20: 29, 40: 1, 14: 16, 8: 56, 9: 16}","[8, 9, 11, 14, 20, 40]",85691611214162029401,Na2Ca29Zr1Si16O56F16
Mg3SiO5F,mp-1222236,0.7868999999999999,1.9813212,0.08062970187500174,"{12: 3, 14: 1, 8: 5, 9: 1}","[8, 9, 12, 14]",8591123141,Mg3Si1O5F1
NaCa9ScZn9(SiO3)20,mp-720704,4.0948,2.83878868,0.03870090959999928,"{11: 1, 20: 9, 21: 1, 30: 9, 14: 20, 8: 60}","[8, 11, 14, 20, 21, 30]",8601111420209211309,Na1Ca9Sc1Zn9Si20O60
Mg17(SiO3)20,mp-1196569,0.13090000000000002,1.78912048,0.06501454486253522,"{12: 17, 14: 20, 8: 60}","[8, 12, 14]",86012171420,Mg17Si20O60
NaSc(SiO3)2,mp-7074,4.950100000000001,2.23112674,0.0,"{11: 1, 21: 1, 14: 2, 8: 6}","[8, 11, 14, 21]",86111142211,Na1Sc1Si2O6
NaTi(SiO3)2,mp-6465,0.0,6.33081652,0.013446209238095364,"{11: 1, 22: 1, 14: 2, 8: 6}","[8, 11, 14, 22]",86111142221,Na1Ti1Si2O6
NaV(SiO3)2,mp-19287,0.06730000000000036,5.36429859,0.0,"{11: 1, 23: 1, 14: 2, 8: 6}","[8, 11, 14, 23]",86111142231,Na1V1Si2O6
NaCr(SiO3)2,mp-19367,2.6175,3.04708139,0.0,"{11: 1, 24: 1, 14: 2, 8: 6}","[8, 11, 14, 24]",86111142241,Na1Cr1Si2O6
NaMn(SiO3)2,mp-19349,0.7222999999999997,3.20119507,0.010692243399301304,"{11: 1, 25: 1, 14: 2, 8: 6}","[8, 11, 14, 25]",86111142251,Na1Mn1Si2O6
NaGa(SiO3)2,mp-6822,4.1707,2.48878022,0.021364542333333958,"{11: 1, 31: 1, 14: 2, 8: 6}","[8, 11, 14, 31]",86111142311,Na1Ga1Si2O6
NaIn(SiO3)2,mp-6333,3.4885999999999995,2.95496518,0.0,"{11: 1, 49: 1, 14: 2, 8: 6}","[8, 11, 14, 49]",86111142491,Na1In1Si2O6
NaTb(SiO3)2,mp-1193942,4.3118,0.9022827,0.0,"{11: 1, 65: 1, 14: 2, 8: 6}","[8, 11, 14, 65]",86111142651,Na1Tb1Si2O6
Na(SiO2)3,mp-1210861,0.0,3.52030001,0.19525904524999937,"{11: 1, 14: 3, 8: 6}","[8, 11, 14]",86111143,Na1Si3O6
Na2USiO6,mp-560004,1.9761000000000002,1.94911821,0.042598571000004526,"{11: 2, 92: 1, 14: 1, 8: 6}","[8, 11, 14, 92]",86112141921,Na2U1Si1O6
Na2Mn(SiO3)2,mp-1221423,2.416,5.47817117,0.022802967727286294,"{11: 2, 25: 1, 14: 2, 8: 6}","[8, 11, 14, 25]",86112142251,Na2Mn1Si2O6
Na2Zn(SiO3)2,mp-6675,3.8766000000000003,0.74928604,0.0,"{11: 2, 30: 1, 14: 2, 8: 6}","[8, 11, 14, 30]",86112142301,Na2Zn1Si2O6
Na2Sr(SiO3)2,mp-1221321,3.9888,5.15169155,0.03723091803028744,"{11: 2, 38: 1, 14: 2, 8: 6}","[8, 11, 14, 38]",86112142381,Na2Sr1Si2O6
Na2Cd(SiO3)2,mp-555363,2.87,1.55555024,0.02137134642424332,"{11: 2, 48: 1, 14: 2, 8: 6}","[8, 11, 14, 48]",86112142481,Na2Cd1Si2O6
Sr12Ti4Si16O61,mp-1219453,0.0,1.25699001,0.2670349100985696,"{38: 12, 22: 4, 14: 16, 8: 61}","[8, 14, 22, 38]",86114162243812,Sr12Ti4Si16O61
MgSiO6,mp-1188134,0.08779999999999999,-0.22832007,0.5897432472916639,"{12: 1, 14: 1, 8: 6}","[8, 12, 14]",86121141,Mg1Si1O6
MgMnZnSiO6,mp-1210711,1.0094,2.99629777,0.09536624888888667,"{12: 1, 25: 1, 30: 1, 14: 1, 8: 6}","[8, 12, 14, 25, 30]",86121141251301,Mg1Mn1Zn1Si1O6
CaMg(SiO3)2,mp-6766,4.9716,2.96505317,0.0,"{20: 1, 12: 1, 14: 2, 8: 6}","[8, 12, 14, 20]",86121142201,Ca1Mg1Si2O6
MgTi(SiO3)2,mp-1154515,0.0,7.60232737,0.16347392572619412,"{12: 1, 22: 1, 14: 2, 8: 6}","[8, 12, 14, 22]",86121142221,Mg1Ti1Si2O6
MgV(SiO3)2,mp-1041866,2.3312999999999997,7.46107346,0.019966107791658416,"{12: 1, 23: 1, 14: 2, 8: 6}","[8, 12, 14, 23]",86121142231,Mg1V1Si2O6
MgCr(SiO3)2,mp-1041862,2.3232,4.56770576,0.02144847077777534,"{12: 1, 24: 1, 14: 2, 8: 6}","[8, 12, 14, 24]",86121142241,Mg1Cr1Si2O6
MgMn(SiO3)2,mp-1041845,3.1024000000000003,3.78383493,0.0051307187916602714,"{12: 1, 25: 1, 14: 2, 8: 6}","[8, 12, 14, 25]",86121142251,Mg1Mn1Si2O6
MgCo(SiO3)2,mp-1041840,2.9549000000000003,3.28918577,0.0068638559999971704,"{12: 1, 27: 1, 14: 2, 8: 6}","[8, 12, 14, 27]",86121142271,Mg1Co1Si2O6
MgSi2SnO6,mp-1041480,3.1294000000000004,4.96118419,0.06505894762499498,"{12: 1, 14: 2, 50: 1, 8: 6}","[8, 12, 14, 50]",86121142501,Mg1Si2Sn1O6
MgSi2WO6,mp-1041873,1.1501000000000001,5.43029108,0.3278427831249964,"{12: 1, 14: 2, 74: 1, 8: 6}","[8, 12, 14, 74]",86121142741,Mg1Si2W1O6
Mg3SiO6,mp-1210674,0.0961000000000003,2.14720322,0.15557904124999933,"{12: 3, 14: 1, 8: 6}","[8, 12, 14]",86123141,Mg3Si1O6