formula,material_id,band_gap,efermi,energy_above_hull,comp_atoms,sorted_keys_comp_atoms,comp_number,new_formula
Na9CaNb5(SiO4)9,mp-2715274,2.1857,1.93605771,0.04795715523611488,"{11: 9, 20: 1, 41: 5, 14: 9, 8: 36}","[8, 11, 14, 20, 41]",836119149201415,Na9Ca1Nb5Si9O36
Na9CaTa5(SiO4)9,mp-2715480,3.093,1.99187729,0.029287780500004246,"{11: 9, 20: 1, 73: 5, 14: 9, 8: 36}","[8, 11, 14, 20, 73]",836119149201735,Na9Ca1Ta5Si9O36
Na9Nb5Zn(SiO4)9,mp-2715488,2.4800999999999997,1.58252895,0.04600456801388475,"{11: 9, 41: 5, 30: 1, 14: 9, 8: 36}","[8, 11, 14, 30, 41]",836119149301415,Na9Nb5Zn1Si9O36
Na9Ta5Zn(SiO4)9,mp-2715393,3.2757000000000005,1.78246715,0.030055574180558153,"{11: 9, 73: 5, 30: 1, 14: 9, 8: 36}","[8, 11, 14, 30, 73]",836119149301735,Na9Ta5Zn1Si9O36
Mg2Nb4Si3(SO6)6,mp-2713513,1.6625,0.63554647,0.0487220623529403,"{12: 2, 41: 4, 14: 3, 16: 6, 8: 36}","[8, 12, 14, 16, 41]",836122143166414,Mg2Nb4Si3S6O36
Mg2Ta4Si3(SO6)6,mp-2713181,2.278,0.86999974,0.05431755583333242,"{12: 2, 73: 4, 14: 3, 16: 6, 8: 36}","[8, 12, 14, 16, 73]",836122143166734,Mg2Ta4Si3S6O36
Sr3Ta7Si(BiO4)9,mp-1202933,2.3719,5.94433456,0.03351712013395236,"{38: 3, 73: 7, 14: 1, 83: 9, 8: 36}","[8, 14, 38, 73, 83]",836141383737839,Sr3Ta7Si1Bi9O36
Ca2Nb4Si3(SO6)6,mp-2713449,1.7642,0.10959019,0.05913586151962136,"{20: 2, 41: 4, 14: 3, 16: 6, 8: 36}","[8, 14, 16, 20, 41]",836143166202414,Ca2Nb4Si3S6O36
Ca2Ta4Si3(SO6)6,mp-2713480,2.3457999999999997,0.4850157,0.06978543681372429,"{20: 2, 73: 4, 14: 3, 16: 6, 8: 36}","[8, 14, 16, 20, 73]",836143166202734,Ca2Ta4Si3S6O36
Nb4Zn2Si3(SO6)6,mp-2713435,1.8717000000000001,0.36270526,0.04069347676470514,"{41: 4, 30: 2, 14: 3, 16: 6, 8: 36}","[8, 14, 16, 30, 41]",836143166302414,Nb4Zn2Si3S6O36
Ta4Zn2Si3(SO6)6,mp-2713482,2.3735,0.71648896,0.04810920906862659,"{73: 4, 30: 2, 14: 3, 16: 6, 8: 36}","[8, 14, 16, 30, 73]",836143166302734,Ta4Zn2Si3S6O36
Ca13Nb3(Si2O9)4,mp-1228717,0.3756000000000004,4.86916378,0.016835477899306284,"{20: 13, 41: 3, 14: 8, 8: 36}","[8, 14, 20, 41]",8361482013413,Ca13Nb3Si8O36
Na5Zr2Si12O37,mp-1221060,0.0,-0.37320012,0.2847825638392836,"{11: 5, 40: 2, 14: 12, 8: 37}","[8, 11, 14, 40]",8371151412402,Na5Zr2Si12O37
Si17O37,mp-1194828,0.09050000000000002,-1.16363765,0.16651007331018342,"{14: 17, 8: 37}","[8, 14]",8371417,Si17O37
Tl32Si8O37,mp-1218127,0.7955000000000001,2.86209352,0.06088875045454856,"{81: 32, 14: 8, 8: 37}","[8, 14, 81]",8371488132,Tl32Si8O37
Ca(Si9O19)2,mp-1214452,0.0,2.57175055,0.22442445586988136,"{20: 1, 14: 18, 8: 38}","[8, 14, 20]",8381418201,Ca1Si18O38
LaSiO3F,mp-541995,4.541399999999999,4.13040863,0.0,"{57: 1, 14: 1, 8: 3, 9: 1}","[8, 9, 14, 57]",8391141571,La1Si1O3F1
La3Nd11(Si3O13)3,mp-1224647,4.1378,3.3924983,0.0,"{57: 3, 60: 11, 14: 9, 8: 39}","[8, 14, 57, 60]",8391495736011,La3Nd11Si9O39
Na16Ti7(SiO5)8,mp-1222203,0.037800000000000056,1.15974914,0.058528987112681286,"{11: 16, 22: 7, 14: 8, 8: 40}","[8, 11, 14, 22]",8401116148227,Na16Ti7Si8O40
Na8Zr3Si12SnO40,mp-1221150,1.1300000000000001,1.42071042,0.15217583628905906,"{11: 8, 40: 3, 14: 12, 50: 1, 8: 40}","[8, 11, 14, 40, 50]",8401181412403501,Na8Zr3Si12Sn1O40
K8Zr3Si12SnO40,mp-1224617,0.8252000000000002,1.02528108,0.12970618226562536,"{19: 8, 40: 3, 14: 12, 50: 1, 8: 40}","[8, 14, 19, 40, 50]",8401412198403501,K8Zr3Si12Sn1O40
Ca7(Si2O5)8,mp-1203093,0.7426,0.64363007,0.050165138247361796,"{20: 7, 14: 16, 8: 40}","[8, 14, 20]",8401416207,Ca7Si16O40
DyZr9Si9PO40,mp-686636,3.9351000000000003,2.87432808,0.011394678916666123,"{66: 1, 40: 9, 14: 9, 15: 1, 8: 40}","[8, 14, 15, 40, 66]",840149151409661,Dy1Zr9Si9P1O40
NaCaSiO4,mp-1104298,0.10699999999999998,1.19174267,0.07379633500000082,"{11: 1, 20: 1, 14: 1, 8: 4}","[8, 11, 14, 20]",84111141201,Na1Ca1Si1O4
NaVSiO4,mp-754456,0.0,4.93645929,0.043414832321408525,"{11: 1, 23: 1, 14: 1, 8: 4}","[8, 11, 14, 23]",84111141231,Na1V1Si1O4
NaZnSiO4,mp-1194369,0.36219999999999997,0.37394282,0.11133093732144239,"{11: 1, 30: 1, 14: 1, 8: 4}","[8, 11, 14, 30]",84111141301,Na1Zn1Si1O4
NaGaSiO4,mp-560632,3.8215,0.52698937,0.0,"{11: 1, 31: 1, 14: 1, 8: 4}","[8, 11, 14, 31]",84111141311,Na1Ga1Si1O4
NaLaSiO4,mp-1020648,4.454600000000001,3.75731615,0.0,"{11: 1, 57: 1, 14: 1, 8: 4}","[8, 11, 14, 57]",84111141571,Na1La1Si1O4
NaNdSiO4,mp-13774,4.4774,2.23382709,0.0,"{11: 1, 60: 1, 14: 1, 8: 4}","[8, 11, 14, 60]",84111141601,Na1Nd1Si1O4
NaSmSiO4,mp-17357,4.2786,1.58939779,0.0009404296428616732,"{11: 1, 62: 1, 14: 1, 8: 4}","[8, 11, 14, 62]",84111141621,Na1Sm1Si1O4
NaGdSiO4,mp-18515,0.22840000000000016,2.54521378,0.0,"{11: 1, 64: 1, 14: 1, 8: 4}","[8, 11, 14, 64]",84111141641,Na1Gd1Si1O4
NaLuSiO4,mp-1210117,4.396599999999999,1.46284803,0.0,"{11: 1, 71: 1, 14: 1, 8: 4}","[8, 11, 14, 71]",84111141711,Na1Lu1Si1O4
Na2MgSiO4,mp-6406,3.9455999999999998,1.21093376,0.0,"{11: 2, 12: 1, 14: 1, 8: 4}","[8, 11, 12, 14]",84112121141,Na2Mg1Si1O4
Na2CaSiO4,mp-555342,3.3314999999999997,1.72463938,0.06622963265624815,"{11: 2, 20: 1, 14: 1, 8: 4}","[8, 11, 14, 20]",84112141201,Na2Ca1Si1O4
Na2CoSiO4,mp-1210475,2.3088,2.09188124,0.02150117718749911,"{11: 2, 27: 1, 14: 1, 8: 4}","[8, 11, 14, 27]",84112141271,Na2Co1Si1O4
Na2ZnSiO4,mp-6391,3.1742999999999997,1.00331604,0.0,"{11: 2, 30: 1, 14: 1, 8: 4}","[8, 11, 14, 30]",84112141301,Na2Zn1Si1O4
Rb2Na2SiO4,mp-559711,3.083,0.87895198,0.0,"{37: 2, 11: 2, 14: 1, 8: 4}","[8, 11, 14, 37]",84112141372,Rb2Na2Si1O4
Na4SiO4,mp-7500,3.2221,1.17371432,0.0,"{11: 4, 14: 1, 8: 4}","[8, 11, 14]",84114141,Na4Si1O4
MgSiO4,mp-1221972,0.0,3.40178907,0.3304005863888886,"{12: 1, 14: 1, 8: 4}","[8, 12, 14]",84121141,Mg1Si1O4
K2MgSiO4,mp-15171,4.0026,0.98293542,0.0,"{19: 2, 12: 1, 14: 1, 8: 4}","[8, 12, 14, 19]",84121141192,K2Mg1Si1O4
CaMgSiO4,mp-6493,4.6294,1.99633499,0.0,"{20: 1, 12: 1, 14: 1, 8: 4}","[8, 12, 14, 20]",84121141201,Ca1Mg1Si1O4
MgMnSiO4,mp-1210608,3.1310000000000002,6.85341783,0.0,"{12: 1, 25: 1, 14: 1, 8: 4}","[8, 12, 14, 25]",84121141251,Mg1Mn1Si1O4
MgCoSiO4,mp-1222111,2.5984999999999996,6.08199336,0.03788287797618661,"{12: 1, 27: 1, 14: 1, 8: 4}","[8, 12, 14, 27]",84121141271,Mg1Co1Si1O4
Mg2SiO4,mp-2895,4.6395,3.11609556,0.0,"{12: 2, 14: 1, 8: 4}","[8, 12, 14]",84122141,Mg2Si1O4
Mg3SiO4,mp-1024036,0.8048000000000002,8.38681285,0.511849618124999,"{12: 3, 14: 1, 8: 4}","[8, 12, 14]",84123141,Mg3Si1O4
SiO4,mp-685105,0.3892,-0.08989901,0.7990277604999978,"{14: 1, 8: 4}","[8, 14]",84141,Si1O4
Ho2SiSO4,mp-17366,2.6279000000000003,4.94227353,0.01860767093749871,"{67: 2, 14: 1, 16: 1, 8: 4}","[8, 14, 16, 67]",84141161672,Ho2Si1S1O4
Er2SiSO4,mp-555990,2.811400000000001,4.54302569,0.019760810624998015,"{68: 2, 14: 1, 16: 1, 8: 4}","[8, 14, 16, 68]",84141161682,Er2Si1S1O4
SiAg8(SO2)2,mp-559745,0.0,2.4954116,0.4760333561666643,"{14: 1, 47: 8, 16: 2, 8: 4}","[8, 14, 16, 47]",84141162478,Si1Ag8S2O4
SiAg5ClO4,mp-647305,0.4153,1.71959092,0.028185624185605107,"{14: 1, 47: 5, 17: 1, 8: 4}","[8, 14, 17, 47]",84141171475,Si1Ag5Cl1O4
Ca3Si(ClO2)2,mp-540868,4.1532,1.30782788,0.0,"{20: 3, 14: 1, 17: 2, 8: 4}","[8, 14, 17, 20]",84141172203,Ca3Si1Cl2O4
SiPb4(ClO)4,mp-561110,3.5302999999999995,2.1115492,0.0,"{14: 1, 82: 4, 17: 4, 8: 4}","[8, 14, 17, 82]",84141174824,Si1Pb4Cl4O4
Ce3SiCl5O4,mp-1229323,0.033199999999999896,6.13304232,0.04114096570512871,"{58: 3, 14: 1, 17: 5, 8: 4}","[8, 14, 17, 58]",84141175583,Ce3Si1Cl5O4
Eu5Si(Cl3O2)2,mp-669318,0.8506,4.68924803,0.005546720312500142,"{63: 5, 14: 1, 17: 6, 8: 4}","[8, 14, 17, 63]",84141176635,Eu5Si1Cl6O4
K2CoSiO4,mp-505285,2.7551,4.58216015,0.0,"{19: 2, 27: 1, 14: 1, 8: 4}","[8, 14, 19, 27]",84141192271,K2Co1Si1O4
K2ZnSiO4,mp-541537,3.4888999999999997,0.7844337,0.0,"{19: 2, 30: 1, 14: 1, 8: 4}","[8, 14, 19, 30]",84141192301,K2Zn1Si1O4
K2CdSiO4,mp-541538,2.6403,0.52827044,0.0,"{19: 2, 48: 1, 14: 1, 8: 4}","[8, 14, 19, 48]",84141192481,K2Cd1Si1O4
K4SiO4,mp-18700,2.9391,0.62860007,0.0,"{19: 4, 14: 1, 8: 4}","[8, 14, 19]",84141194,K4Si1O4
CaSiO4,mp-1191741,0.0,0.19854888,0.3452346149305523,"{20: 1, 14: 1, 8: 4}","[8, 14, 20]",84141201,Ca1Si1O4
CaMnSiO4,mp-1213991,2.5993999999999997,5.64375931,0.0,"{20: 1, 25: 1, 14: 1, 8: 4}","[8, 14, 20, 25]",84141201251,Ca1Mn1Si1O4
SrCaSiO4,mp-554006,4.4796,2.72797784,0.01868377345238237,"{38: 1, 20: 1, 14: 1, 8: 4}","[8, 14, 20, 38]",84141201381,Sr1Ca1Si1O4
Ca2SiO4,mp-4481,4.199400000000001,1.69778287,0.0,"{20: 2, 14: 1, 8: 4}","[8, 14, 20]",84141202,Ca2Si1O4
TiSiO4,mp-1101756,2.5681,4.04530504,0.15347686999999866,"{22: 1, 14: 1, 8: 4}","[8, 14, 22]",84141221,Ti1Si1O4
VSiO4,mp-1143876,0.8833000000000002,3.96489385,0.43715227250000055,"{23: 1, 14: 1, 8: 4}","[8, 14, 23]",84141231,V1Si1O4
V2SiO4,mp-772047,1.5873,5.19148157,0.0,"{23: 2, 14: 1, 8: 4}","[8, 14, 23]",84141232,V2Si1O4
CrSiO4,mp-1143241,0.734,3.91124269,0.4697402111110911,"{24: 1, 14: 1, 8: 4}","[8, 14, 24]",84141241,Cr1Si1O4
Cr2SiO4,mp-18800,1.9961000000000002,4.15426158,0.02242226833333305,"{24: 2, 14: 1, 8: 4}","[8, 14, 24]",84141242,Cr2Si1O4
MnSiO4,mp-1249486,0.0,2.71096505,0.5029476383333336,"{25: 1, 14: 1, 8: 4}","[8, 14, 25]",84141251,Mn1Si1O4
Mn2SiO4,mp-18928,1.9884999999999997,3.61428526,0.0,"{25: 2, 14: 1, 8: 4}","[8, 14, 25]",84141252,Mn2Si1O4
CoSiO4,mp-25268,0.9037000000000001,-1.78598655,0.21590351236111172,"{27: 1, 14: 1, 8: 4}","[8, 14, 27]",84141271,Co1Si1O4
Cs2CoSiO4,mp-542168,2.6452999999999998,1.9748242,0.0,"{55: 2, 27: 1, 14: 1, 8: 4}","[8, 14, 27, 55]",84141271552,Cs2Co1Si1O4
Co2SiO4,mp-21856,0.0,4.63401016,0.0001818284523809055,"{27: 2, 14: 1, 8: 4}","[8, 14, 27]",84141272,Co2Si1O4
ZnSi(AgO2)2,mp-9359,0.6074999999999999,1.67676181,0.0384225276041672,"{30: 1, 14: 1, 47: 2, 8: 4}","[8, 14, 30, 47]",84141301472,Zn1Si1Ag2O4
ZnSiPbO4,mp-21724,3.1014000000000004,2.4970142,0.0,"{30: 1, 14: 1, 82: 1, 8: 4}","[8, 14, 30, 82]",84141301821,Zn1Si1Pb1O4
Zn2SiO4,mp-3789,2.7537000000000003,0.69371551,0.0,"{30: 2, 14: 1, 8: 4}","[8, 14, 30]",84141302,Zn2Si1O4
La2SiSeO4,mp-17834,2.2089000000000008,6.65372721,0.0,"{57: 2, 14: 1, 34: 1, 8: 4}","[8, 14, 34, 57]",84141341572,La2Si1Se1O4
Ce2SiSeO4,mp-542664,0.0,7.44382319,0.01535197614583339,"{58: 2, 14: 1, 34: 1, 8: 4}","[8, 14, 34, 58]",84141341582,Ce2Si1Se1O4
Nd2SiSeO4,mp-18466,2.6009,4.58753068,0.0,"{60: 2, 14: 1, 34: 1, 8: 4}","[8, 14, 34, 60]",84141341602,Nd2Si1Se1O4
Sm2SiSeO4,mp-18610,2.6930000000000005,4.51736774,0.0,"{62: 2, 14: 1, 34: 1, 8: 4}","[8, 14, 34, 62]",84141341622,Sm2Si1Se1O4
Tb2SiSeO4,mp-17913,2.5839,5.01499605,0.0,"{65: 2, 14: 1, 34: 1, 8: 4}","[8, 14, 34, 65]",84141341652,Tb2Si1Se1O4
Dy2SiSeO4,mp-18219,2.5743,5.11026641,0.002651229270831834,"{66: 2, 14: 1, 34: 1, 8: 4}","[8, 14, 34, 66]",84141341662,Dy2Si1Se1O4
Ho2SiSeO4,mp-18584,2.5613,5.11704126,0.009871692708331992,"{67: 2, 14: 1, 34: 1, 8: 4}","[8, 14, 34, 67]",84141341672,Ho2Si1Se1O4
Er2SiSeO4,mp-17633,2.5586,5.16366418,0.026062666328126483,"{68: 2, 14: 1, 34: 1, 8: 4}","[8, 14, 34, 68]",84141341682,Er2Si1Se1O4
SiPb4(BrO)4,mp-556172,3.1492,1.97545304,0.0,"{14: 1, 82: 4, 35: 4, 8: 4}","[8, 14, 35, 82]",84141354824,Si1Pb4Br4O4
Rb2CdSiO4,mp-558568,2.4877000000000002,0.94252452,0.0,"{37: 2, 48: 1, 14: 1, 8: 4}","[8, 14, 37, 48]",84141372481,Rb2Cd1Si1O4
Rb4SiO4,mp-768813,2.5647,3.58675649,0.0,"{37: 4, 14: 1, 8: 4}","[8, 14, 37]",84141374,Rb4Si1O4
Sr2SiO4,mp-18510,4.5509,2.42774707,0.0,"{38: 2, 14: 1, 8: 4}","[8, 14, 38]",84141382,Sr2Si1O4
ZrSiO4,mp-4820,4.1835,3.01747659,0.0,"{40: 1, 14: 1, 8: 4}","[8, 14, 40]",84141401,Zr1Si1O4
SiMoO4,mp-1142857,1.6105999999999998,4.89476099,0.2824693423611109,"{14: 1, 42: 1, 8: 4}","[8, 14, 42]",84141421,Si1Mo1O4
Si(AgO)4,mp-556164,0.6733000000000002,1.91378328,0.019595597962959843,"{14: 1, 47: 4, 8: 4}","[8, 14, 47]",84141474,Si1Ag4O4
SiAg5O4,mp-1205049,0.7138000000000002,1.95957998,0.046735176749999496,"{14: 1, 47: 5, 8: 4}","[8, 14, 47]",84141475,Si1Ag5O4
Cd2SiO4,mp-4530,1.4629999999999999,1.67866465,0.0,"{48: 2, 14: 1, 8: 4}","[8, 14, 48]",84141482,Cd2Si1O4
SiSnO4,mp-1142770,1.2333999999999996,5.17163407,0.3599543379166654,"{14: 1, 50: 1, 8: 4}","[8, 14, 50]",84141501,Si1Sn1O4
SiSbO4,mp-1142725,0.0,5.73090607,0.4405437510416661,"{14: 1, 51: 1, 8: 4}","[8, 14, 51]",84141511,Si1Sb1O4
Ce2SiTeO4,mp-542663,0.0,8.22232669,0.03231882749999393,"{58: 2, 14: 1, 52: 1, 8: 4}","[8, 14, 52, 58]",84141521582,Ce2Si1Te1O4
Pr2SiTeO4,mp-17750,2.0843999999999996,5.486437,0.0,"{59: 2, 14: 1, 52: 1, 8: 4}","[8, 14, 52, 59]",84141521592,Pr2Si1Te1O4
Nd2SiTeO4,mp-18542,2.0477,5.60971716,0.0,"{60: 2, 14: 1, 52: 1, 8: 4}","[8, 14, 52, 60]",84141521602,Nd2Si1Te1O4
Sm2SiTeO4,mp-6055,1.8483999999999998,5.67865095,1.888203136957145e-06,"{62: 2, 14: 1, 52: 1, 8: 4}","[8, 14, 52, 62]",84141521622,Sm2Si1Te1O4
Gd2SiTeO4,mp-16788,0.0,5.09046031,0.021342733020832227,"{64: 2, 14: 1, 52: 1, 8: 4}","[8, 14, 52, 64]",84141521642,Gd2Si1Te1O4
La2Si(IO2)2,mp-1203654,3.2645999999999997,3.66363794,0.012299672546295604,"{57: 2, 14: 1, 53: 2, 8: 4}","[8, 14, 53, 57]",84141532572,La2Si1I2O4
Cs10Tl6SiO4,mp-1199833,0.19229999999999992,2.82916105,0.0,"{55: 10, 81: 6, 14: 1, 8: 4}","[8, 14, 55, 81]",841415510816,Cs10Tl6Si1O4
Cs4SiO4,mp-771255,2.5639,2.16602441,0.0,"{55: 4, 14: 1, 8: 4}","[8, 14, 55]",84141554,Cs4Si1O4
CeSiO4,mp-10523,1.4477999999999995,3.45946367,0.03641067694444544,"{58: 1, 14: 1, 8: 4}","[8, 14, 58]",84141581,Ce1Si1O4
PrSiO4,mp-756013,0.0,0.96162455,0.10866403854167395,"{59: 1, 14: 1, 8: 4}","[8, 14, 59]",84141591,Pr1Si1O4
NdSiO4,mp-1101436,0.0,0.99658047,0.09531614281250356,"{60: 1, 14: 1, 8: 4}","[8, 14, 60]",84141601,Nd1Si1O4
Eu2SiO4,mp-554546,0.28889999999999993,6.11997108,0.0,"{63: 2, 14: 1, 8: 4}","[8, 14, 63]",84141632,Eu2Si1O4
GdSiO4,mp-1224635,0.0,2.10323806,0.1878810681250105,"{64: 1, 14: 1, 8: 4}","[8, 14, 64]",84141641,Gd1Si1O4
HfSiO4,mp-4609,5.069999999999999,3.32290175,0.0,"{72: 1, 14: 1, 8: 4}","[8, 14, 72]",84141721,Hf1Si1O4
SiWO4,mp-1249282,1.9867,4.77993766,0.27231119763888856,"{14: 1, 74: 1, 8: 4}","[8, 14, 74]",84141741,Si1W1O4
Si(HgO2)2,mp-779704,1.2322,1.19436332,0.028684294285714174,"{14: 1, 80: 2, 8: 4}","[8, 14, 80]",84141802,Si1Hg2O4
Si(PbO2)2,mp-555786,2.4895,3.9617405,0.006644057492611211,"{14: 1, 82: 2, 8: 4}","[8, 14, 82]",84141822,Si1Pb2O4
SiBiO4,mp-1172356,0.0,3.51531034,0.2674143093055559,"{14: 1, 83: 1, 8: 4}","[8, 14, 83]",84141831,Si1Bi1O4
ThSiO4,mp-5836,4.890000000000001,3.11781514,0.0,"{90: 1, 14: 1, 8: 4}","[8, 14, 90]",84141901,Th1Si1O4
USiO4,mp-4169,0.0,7.30183775,0.057185746944446336,"{92: 1, 14: 1, 8: 4}","[8, 14, 92]",84141921,U1Si1O4
K(SiO2)2,mp-1211961,0.0,6.26604001,0.329342647142866,"{19: 1, 14: 2, 8: 4}","[8, 14, 19]",84142191,K1Si2O4
Zn9Si2Te3P4(Pb3O14)3,mp-1216341,0.0,2.37524017,0.026204930590577824,"{30: 9, 14: 2, 52: 3, 15: 4, 82: 9, 8: 42}","[8, 14, 15, 30, 52, 82]",842142154309523829,Zn9Si2Te3P4Pb9O42
Ca9Nb2Ga10(SiO7)6,mp-1228104,0.04499999999999993,1.64854061,0.02968448144927116,"{20: 9, 41: 2, 31: 10, 14: 6, 8: 42}","[8, 14, 20, 31, 41]",8421462093110412,Ca9Nb2Ga10Si6O42
Ca20Si3Ge9O44,mp-1227935,3.8254,5.38921603,0.020782574232455886,"{20: 20, 14: 3, 32: 9, 8: 44}","[8, 14, 20, 32]",8441432020329,Ca20Si3Ge9O44
Na3Ca2Mg10Si16(O11F)4,mp-1173853,0.9215,5.16177165,0.6041360579588524,"{11: 3, 20: 2, 12: 10, 14: 16, 8: 44, 9: 4}","[8, 9, 11, 12, 14, 20]",8449411312101416202,Na3Ca2Mg10Si16O44F4
K2Na6Zn4Si14O45,mp-1196368,0.2925,0.11443404,0.43833748481220436,"{19: 2, 11: 6, 30: 4, 14: 14, 8: 45}","[8, 11, 14, 19, 30]",8451161414192304,K2Na6Zn4Si14O45
Na9Zr8Si4(P4O23)2,mp-720989,1.3511000000000002,2.15781867,0.5200164462714216,"{11: 9, 40: 8, 14: 4, 15: 8, 8: 46}","[8, 11, 14, 15, 40]",846119144158408,Na9Zr8Si4P8O46
Na10Mg2Ti6Si7S5O48,mp-2715928,1.6664,2.11951458,0.09851024707265044,"{11: 10, 12: 2, 22: 6, 14: 7, 16: 5, 8: 48}","[8, 11, 12, 14, 16, 22]",8481110122147165226,Na10Mg2Ti6Si7S5O48
Na10Mg2Si7Ge6S5O48,mp-2716087,1.3664999999999998,2.60628535,0.16646057668803227,"{11: 10, 12: 2, 14: 7, 32: 6, 16: 5, 8: 48}","[8, 11, 12, 14, 16, 32]",8481110122147165326,Na10Mg2Si7Ge6S5O48
Na10Mg2Zr6Si7S5O48,mp-2716102,2.8706000000000005,1.77488249,0.09174298645298862,"{11: 10, 12: 2, 40: 6, 14: 7, 16: 5, 8: 48}","[8, 11, 12, 14, 16, 40]",8481110122147165406,Na10Mg2Zr6Si7S5O48
Na10Mg2Si7Sn6S5O48,mp-2716017,1.6924999999999994,2.6658201,0.122668080555556,"{11: 10, 12: 2, 14: 7, 50: 6, 16: 5, 8: 48}","[8, 11, 12, 14, 16, 50]",8481110122147165506,Na10Mg2Si7Sn6S5O48
Na10Hf6Mg2Si7S5O48,mp-2714131,3.5915,2.12822087,0.08837492153846149,"{11: 10, 72: 6, 12: 2, 14: 7, 16: 5, 8: 48}","[8, 11, 12, 14, 16, 72]",8481110122147165726,Na10Hf6Mg2Si7S5O48
Na10Mg3Ti5Si6(SO8)6,mp-2716341,1.1916000000000002,2.18030682,0.11096741813034239,"{11: 10, 12: 3, 22: 5, 14: 6, 16: 6, 8: 48}","[8, 11, 12, 14, 16, 22]",8481110123146166225,Na10Mg3Ti5Si6S6O48
Na10Mg3Si6Ge5(SO8)6,mp-2716567,0.9034,2.68761026,0.1825107578846179,"{11: 10, 12: 3, 14: 6, 32: 5, 16: 6, 8: 48}","[8, 11, 12, 14, 16, 32]",8481110123146166325,Na10Mg3Si6Ge5S6O48
Na10Mg3Zr5Si6(SO8)6,mp-2713472,2.7363,1.93234905,0.10819701905982715,"{11: 10, 12: 3, 40: 5, 14: 6, 16: 6, 8: 48}","[8, 11, 12, 14, 16, 40]",8481110123146166405,Na10Mg3Zr5Si6S6O48
Na10Mg3Si6Sn5(SO8)6,mp-2713345,1.4453,2.82058259,0.13110632412393297,"{11: 10, 12: 3, 14: 6, 50: 5, 16: 6, 8: 48}","[8, 11, 12, 14, 16, 50]",8481110123146166505,Na10Mg3Si6Sn5S6O48
Na10Hf5Mg3Si6(SO8)6,mp-2716504,3.3313,2.27727895,0.10654621072649562,"{11: 10, 72: 5, 12: 3, 14: 6, 16: 6, 8: 48}","[8, 11, 12, 14, 16, 72]",8481110123146166725,Na10Hf5Mg3Si6S6O48
Na10Ca4Mg4SiS11O48,mp-2713319,3.9101999999999997,1.62708182,0.06025627896367247,"{11: 10, 20: 4, 12: 4, 14: 1, 16: 11, 8: 48}","[8, 11, 12, 14, 16, 20]",84811101241411611204,Na10Ca4Mg4Si1S11O48
Na10Mg4Zn4SiS11O48,mp-2713246,3.8866000000000005,1.62352322,0.04216746263888549,"{11: 10, 12: 4, 30: 4, 14: 1, 16: 11, 8: 48}","[8, 11, 12, 14, 16, 30]",84811101241411611304,Na10Mg4Zn4Si1S11O48
Na10Mg4Sc4Si3(S3O16)3,mp-2714821,3.1657,1.95543673,0.07288511056022884,"{11: 10, 12: 4, 21: 4, 14: 3, 16: 9, 8: 48}","[8, 11, 12, 14, 16, 21]",8481110124143169214,Na10Mg4Sc4Si3S9O48
Na10Mg4Ga4Si3(S3O16)3,mp-2714804,2.147,2.44381591,0.11278289354700988,"{11: 10, 12: 4, 31: 4, 14: 3, 16: 9, 8: 48}","[8, 11, 12, 14, 16, 31]",8481110124143169314,Na10Mg4Ga4Si3S9O48
Na10Mg4In4Si3(S3O16)3,mp-2714726,2.2613999999999996,2.39796433,0.09067780957265015,"{11: 10, 12: 4, 49: 4, 14: 3, 16: 9, 8: 48}","[8, 11, 12, 14, 16, 49]",8481110124143169494,Na10Mg4In4Si3S9O48
Na10La4Mg4Si3(S3O16)3,mp-2714708,3.4281,1.85853098,0.11394866698412898,"{11: 10, 57: 4, 12: 4, 14: 3, 16: 9, 8: 48}","[8, 11, 12, 14, 16, 57]",8481110124143169574,Na10La4Mg4Si3S9O48
Na10Mg4Ti4Si5S7O48,mp-2715152,1.4052,2.16050091,0.11890495228632503,"{11: 10, 12: 4, 22: 4, 14: 5, 16: 7, 8: 48}","[8, 11, 12, 14, 16, 22]",8481110124145167224,Na10Mg4Ti4Si5S7O48
Na10Mg4Si5Ge4S7O48,mp-2714927,0.6959999999999997,2.33077179,0.18520400085470534,"{11: 10, 12: 4, 14: 5, 32: 4, 16: 7, 8: 48}","[8, 11, 12, 14, 16, 32]",8481110124145167324,Na10Mg4Si5Ge4S7O48
Na10Mg4Zr4Si5S7O48,mp-2714930,2.9162999999999997,1.96483006,0.11406410463675165,"{11: 10, 12: 4, 40: 4, 14: 5, 16: 7, 8: 48}","[8, 11, 12, 14, 16, 40]",8481110124145167404,Na10Mg4Zr4Si5S7O48
Na10Mg4Si5Sn4S7O48,mp-2715113,0.9520000000000004,2.79178306,0.1468036420726495,"{11: 10, 12: 4, 14: 5, 50: 4, 16: 7, 8: 48}","[8, 11, 12, 14, 16, 50]",8481110124145167504,Na10Mg4Si5Sn4S7O48
Na10Hf4Mg4Si5S7O48,mp-2715024,3.5419,2.19268194,0.10956836023504302,"{11: 10, 72: 4, 12: 4, 14: 5, 16: 7, 8: 48}","[8, 11, 12, 14, 16, 72]",8481110124145167724,Na10Hf4Mg4Si5S7O48
Na10Mg4Nb4Si7S5O48,mp-2715875,1.2723,2.01015044,0.15093869423075912,"{11: 10, 12: 4, 41: 4, 14: 7, 16: 5, 8: 48}","[8, 11, 12, 14, 16, 41]",8481110124147165414,Na10Mg4Nb4Si7S5O48
Na10Mg4Ta4Si7S5O48,mp-2716025,1.8695,2.33805058,0.14776409182158545,"{11: 10, 12: 4, 73: 4, 14: 7, 16: 5, 8: 48}","[8, 11, 12, 14, 16, 73]",8481110124147165734,Na10Mg4Ta4Si7S5O48
Na10Mg6Ti2Si3(S3O16)3,mp-2714795,0.6802999999999999,2.75318757,0.07811006482906002,"{11: 10, 12: 6, 22: 2, 14: 3, 16: 9, 8: 48}","[8, 11, 12, 14, 16, 22]",8481110126143169222,Na10Mg6Ti2Si3S9O48