formula,material_id,band_gap,efermi,energy_above_hull,comp_atoms,sorted_keys_comp_atoms,comp_number,new_formula
Be3Si3(SbO6)2,mp-1041250,2.6156,2.96098186,0.1511045584999975,"{4: 3, 14: 3, 51: 2, 8: 12}","[4, 8, 14, 51]",43812143512,Be3Si3Sb2O12
Be3Si3(WO6)2,mp-1047959,3.6664999999999996,2.62845346,0.19532173249999651,"{4: 3, 14: 3, 74: 2, 8: 12}","[4, 8, 14, 74]",43812143742,Be3Si3W2O12
Be3Si3(BiO6)2,mp-1041202,3.3148,2.45959355,0.09930825312499003,"{4: 3, 14: 3, 83: 2, 8: 12}","[4, 8, 14, 83]",43812143832,Be3Si3Bi2O12
Na8Be3Si9(ClO12)2,mp-40201,4.2067000000000005,0.76619483,0.03788516380434803,"{11: 8, 4: 3, 14: 9, 17: 2, 8: 24}","[4, 8, 11, 14, 17]",43824118149172,Na8Be3Si9Cl2O24
Be3SiO6,mp-1202186,0.4385,0.4778848,0.19744710683333366,"{4: 3, 14: 1, 8: 6}","[4, 8, 14]",4386141,Be3Si1O6
Na2Be3Si3O8,mp-1221869,0.05520000000000014,3.26917371,0.47382659437499974,"{11: 2, 4: 3, 14: 3, 8: 8}","[4, 8, 11, 14]",4388112143,Na2Be3Si3O8
Na10Be4Si4O17,mp-555606,4.2524999999999995,1.93058221,0.002651176785715137,"{11: 10, 4: 4, 14: 4, 8: 17}","[4, 8, 11, 14]",448171110144,Na10Be4Si4O17
Be4Si2O9,mp-1192679,0.26900000000000013,0.86947119,0.13099995127777664,"{4: 4, 14: 2, 8: 9}","[4, 8, 14]",4489142,Be4Si2O9
Na3Mg2Mn4Be6Si9(SnO13)3,mp-1221913,0.07120000000000015,3.65855267,0.2180665413762588,"{11: 3, 12: 2, 25: 4, 4: 6, 14: 9, 50: 3, 8: 39}","[4, 8, 11, 12, 14, 25, 50]",46839113122149254503,Na3Mg2Mn4Be6Si9Sn3O39
MgSi7N10,mp-1247105,2.963,4.88872492,0.13111766069445174,"{12: 1, 14: 7, 7: 10}","[7, 12, 14]",710121147,Mg1Si7N10
Sr11(SiN5)2,mp-1246141,0.0,2.52480188,0.2935147734782575,"{38: 11, 14: 2, 7: 10}","[7, 14, 38]",7101423811,Sr11Si2N10
CaSi7N10,mp-1246629,3.769799999999999,5.04054844,0.04736210208332814,"{20: 1, 14: 7, 7: 10}","[7, 14, 20]",710147201,Ca1Si7N10
VSi7N10,mp-1246651,0.7355,6.50472363,0.2231098034606518,"{23: 1, 14: 7, 7: 10}","[7, 14, 23]",710147231,V1Si7N10
CrSi7N10,mp-1246251,0.6760999999999999,6.07268605,0.18486751882716135,"{24: 1, 14: 7, 7: 10}","[7, 14, 24]",710147241,Cr1Si7N10
MnSi7N10,mp-1246278,1.5520999999999994,5.31769804,0.1513003962500008,"{25: 1, 14: 7, 7: 10}","[7, 14, 25]",710147251,Mn1Si7N10
CoSi7N10,mp-1246538,0.2942,5.30239678,0.20888548962962972,"{27: 1, 14: 7, 7: 10}","[7, 14, 27]",710147271,Co1Si7N10
ZnSi7N10,mp-1247281,2.2195,4.53388588,0.15910117111111255,"{30: 1, 14: 7, 7: 10}","[7, 14, 30]",710147301,Zn1Si7N10
Si7GeN10,mp-1247135,2.941,4.75885158,0.11758281504629942,"{14: 7, 32: 1, 7: 10}","[7, 14, 32]",710147321,Si7Ge1N10
SrSi7N10,mp-570598,4.0585,5.25418669,0.015499520416666357,"{38: 1, 14: 7, 7: 10}","[7, 14, 38]",710147381,Sr1Si7N10
Si7RuN10,mp-1245939,0.4786999999999999,5.87822473,0.26004792666666887,"{14: 7, 44: 1, 7: 10}","[7, 14, 44]",710147441,Si7Ru1N10
Si7PdN10,mp-1245688,0.7040999999999995,4.95218517,0.20450574083333528,"{14: 7, 46: 1, 7: 10}","[7, 14, 46]",710147461,Si7Pd1N10
CdSi7N10,mp-1246101,1.7004000000000001,4.71331269,0.11007366861111123,"{48: 1, 14: 7, 7: 10}","[7, 14, 48]",710147481,Cd1Si7N10
InSi7N10,mp-1247485,0.0,6.08889097,0.1256450657407413,"{49: 1, 14: 7, 7: 10}","[7, 14, 49]",710147491,In1Si7N10
Si7SnN10,mp-1245434,2.7199,5.77554044,0.07522780361111181,"{14: 7, 50: 1, 7: 10}","[7, 14, 50]",710147501,Si7Sn1N10
Si7PtN10,mp-1247253,1.0480999999999998,5.17732465,0.2446715122222205,"{14: 7, 78: 1, 7: 10}","[7, 14, 78]",710147781,Si7Pt1N10
Si7PbN10,mp-1246059,2.780500000000001,5.6789211,0.05486565972222124,"{14: 7, 82: 1, 7: 10}","[7, 14, 82]",710147821,Si7Pb1N10
Sc3Si6N11,mp-1245870,2.4555,5.52723168,0.13081915799999955,"{21: 3, 14: 6, 7: 11}","[7, 14, 21]",711146213,Sc3Si6N11
Ti3Si6N11,mp-1247366,0.015900000000000247,7.20442663,0.38064481949999873,"{22: 3, 14: 6, 7: 11}","[7, 14, 22]",711146223,Ti3Si6N11
Cr3Si6N11,mp-1245397,0.028200000000000003,6.1426612,0.3699911754999974,"{24: 3, 14: 6, 7: 11}","[7, 14, 24]",711146243,Cr3Si6N11
Mn3Si6N11,mp-1246222,0.0,5.38483964,0.3561145149999998,"{25: 3, 14: 6, 7: 11}","[7, 14, 25]",711146253,Mn3Si6N11
Co3Si6N11,mp-1245708,0.0,5.13729131,0.5332040830000011,"{27: 3, 14: 6, 7: 11}","[7, 14, 27]",711146273,Co3Si6N11
Zr3Si6N11,mp-1247129,0.05710000000000015,7.96443533,0.28767056725000195,"{40: 3, 14: 6, 7: 11}","[7, 14, 40]",711146403,Zr3Si6N11
In3Si6N11,mp-1246816,0.027699999999999392,6.72517354,0.21899528925000133,"{49: 3, 14: 6, 7: 11}","[7, 14, 49]",711146493,In3Si6N11
Si6Sb3N11,mp-1247016,1.3672999999999993,8.3279527,0.2382119432500005,"{14: 6, 51: 3, 7: 11}","[7, 14, 51]",711146513,Si6Sb3N11
La3Si6N11,mp-1019893,2.9659000000000004,7.24663818,0.0,"{57: 3, 14: 6, 7: 11}","[7, 14, 57]",711146573,La3Si6N11
Ce3Si6N11,mp-541712,0.0,8.87215629,0.0,"{58: 3, 14: 6, 7: 11}","[7, 14, 58]",711146583,Ce3Si6N11
Pr3Si6N11,mp-16929,2.9903999999999993,5.5577673,0.0,"{59: 3, 14: 6, 7: 11}","[7, 14, 59]",711146593,Pr3Si6N11
Nd3Si6N11,mp-1209932,3.0824,8.43037934,0.0,"{60: 3, 14: 6, 7: 11}","[7, 14, 60]",711146603,Nd3Si6N11
Sm3Si6N11,mp-16995,2.7625,5.36551266,0.0,"{62: 3, 14: 6, 7: 11}","[7, 14, 62]",711146623,Sm3Si6N11
Ta3Si6N11,mp-1246418,0.0,8.3672855,0.5405942075000016,"{73: 3, 14: 6, 7: 11}","[7, 14, 73]",711146733,Ta3Si6N11
Si6Bi3N11,mp-1247410,1.6079999999999997,8.16343959,0.17637823825000165,"{14: 6, 83: 3, 7: 11}","[7, 14, 83]",711146833,Si6Bi3N11
Si2NCl5,mp-28583,5.1538,-1.58609571,0.014563899062499885,"{14: 2, 7: 1, 17: 5}","[7, 14, 17]",71142175,Si2N1Cl5
Si3NCl9,mp-1219293,5.246,3.56102783,0.024980764374998188,"{14: 3, 7: 1, 17: 9}","[7, 14, 17]",71143179,Si3N1Cl9
V5Si3N,mp-1207841,0.0,8.60666006,0.0,"{23: 5, 14: 3, 7: 1}","[7, 14, 23]",71143235,V5Si3N1
Zr5Si3N,mp-1207408,0.0,6.24271573,0.0,"{40: 5, 14: 3, 7: 1}","[7, 14, 40]",71143405,Zr5Si3N1
Nb5Si3N,mp-1209941,0.0,7.63540397,0.02674026629629367,"{41: 5, 14: 3, 7: 1}","[7, 14, 41]",71143415,Nb5Si3N1
Hf5Si3N,mp-1212442,0.0,6.93333752,0.0,"{72: 5, 14: 3, 7: 1}","[7, 14, 72]",71143725,Hf5Si3N1
Ta5Si3N,mp-1208335,0.0,8.42005889,0.042272885164610585,"{73: 5, 14: 3, 7: 1}","[7, 14, 73]",71143735,Ta5Si3N1
La8Si5N14O,mp-1223370,2.3602000000000007,9.99665008,0.0,"{57: 8, 14: 5, 7: 14, 8: 1}","[7, 8, 14, 57]",71481145578,La8Si5N14O1
Nd10Si10N17ClO9,mp-686617,2.9399,3.80019385,0.0016168371760141298,"{60: 10, 14: 10, 7: 17, 17: 1, 8: 9}","[7, 8, 14, 17, 60]",7178914101716010,Nd10Si10N17Cl1O9
Ce10Si10BrN17O9,mp-694972,0.0,7.69213255,0.026339450667318687,"{58: 10, 14: 10, 35: 1, 7: 17, 8: 9}","[7, 8, 14, 35, 58]",7178914103515810,Ce10Si10Br1N17O9
Nd10Si10BrN17O9,mp-677195,2.9445,3.83949315,0.0,"{60: 10, 14: 10, 35: 1, 7: 17, 8: 9}","[7, 8, 14, 35, 60]",7178914103516010,Nd10Si10Br1N17O9
Si2Ag9NO11,mp-1219350,0.1753,1.54982361,0.028990906449270604,"{14: 2, 47: 9, 7: 1, 8: 11}","[7, 8, 14, 47]",71811142479,Si2Ag9N1O11
Sm5Si3NO12,mp-1208747,2.2611000000000008,7.17971273,0.054491651741088276,"{62: 5, 14: 3, 7: 1, 8: 12}","[7, 8, 14, 62]",71812143625,Sm5Si3N1O12
Na4Ga3Si3NO14,mp-695020,0.006500000000000006,0.30055929,0.7059097064466755,"{11: 4, 31: 3, 14: 3, 7: 1, 8: 14}","[7, 8, 11, 14, 31]",71814114143313,Na4Ga3Si3N1O14
LaSiNO2,mp-18559,0.0,6.24219488,1.0459500794333403,"{57: 1, 14: 1, 7: 1, 8: 2}","[7, 8, 14, 57]",7182141571,La1Si1N1O2
CeSiNO2,mp-651175,0.0,7.58228981,0.22835609938333512,"{58: 1, 14: 1, 7: 1, 8: 2}","[7, 8, 14, 58]",7182141581,Ce1Si1N1O2
Si17NO34,mp-726849,3.2944,-1.8184695,0.12083705516025667,"{14: 17, 7: 1, 8: 34}","[7, 8, 14]",718341417,Si17N1O34
K3SiN(OF2)3,mp-6872,3.38,-0.36927934,0.005187107678569447,"{19: 3, 14: 1, 7: 1, 8: 3, 9: 6}","[7, 8, 9, 14, 19]",718396141193,K3Si1N1O3F6
Er6Si11N20O,mp-1225896,3.6388999999999996,8.70204479,0.0,"{68: 6, 14: 11, 7: 20, 8: 1}","[7, 8, 14, 68]",720811411686,Er6Si11N20O1
MgSiN2,mp-3677,3.9662000000000006,5.42413375,0.0,"{12: 1, 14: 1, 7: 2}","[7, 12, 14]",72121141,Mg1Si1N2
CaSiN2,mp-568965,3.4391,5.18745559,0.0,"{20: 1, 14: 1, 7: 2}","[7, 14, 20]",72141201,Ca1Si1N2
VSiN2,mp-1246004,0.0,8.45070121,0.45306211619791803,"{23: 1, 14: 1, 7: 2}","[7, 14, 23]",72141231,V1Si1N2
CrSiN2,mp-1247034,0.0,8.04742185,0.32340800065972,"{24: 1, 14: 1, 7: 2}","[7, 14, 24]",72141241,Cr1Si1N2
MnSiN2,mp-3606,0.5259999999999998,6.85908293,0.13047514312499864,"{25: 1, 14: 1, 7: 2}","[7, 14, 25]",72141251,Mn1Si1N2
CoSiN2,mp-1147704,0.0,7.68928222,0.2220116758333326,"{27: 1, 14: 1, 7: 2}","[7, 14, 27]",72141271,Co1Si1N2
ZnSiN2,mp-1020712,3.1944,4.86339722,0.0,"{30: 1, 14: 1, 7: 2}","[7, 14, 30]",72141301,Zn1Si1N2
SiGeN2,mp-1246001,1.8685,4.08852738,0.1784423520833336,"{14: 1, 32: 1, 7: 2}","[7, 14, 32]",72141321,Si1Ge1N2
SrSiN2,mp-4549,2.9715000000000007,4.63609269,0.0,"{38: 1, 14: 1, 7: 2}","[7, 14, 38]",72141381,Sr1Si1N2
SiPdN2,mp-1245372,0.0,6.51348377,0.3808789350000019,"{14: 1, 46: 1, 7: 2}","[7, 14, 46]",72141461,Si1Pd1N2
CdSiN2,mp-1246975,1.6216,6.03732132,0.0329168462500018,"{48: 1, 14: 1, 7: 2}","[7, 14, 48]",72141481,Cd1Si1N2
InSiN2,mp-1247068,1.2529000000000003,9.63033559,0.22567384223958342,"{49: 1, 14: 1, 7: 2}","[7, 14, 49]",72141491,In1Si1N2
SiSnN2,mp-1246146,0.00019999999999953388,9.54433246,0.1396251450000019,"{14: 1, 50: 1, 7: 2}","[7, 14, 50]",72141501,Si1Sn1N2
SiPbN2,mp-1245777,1.3653000000000004,7.21294154,0.18584017874999859,"{14: 1, 82: 1, 7: 2}","[7, 14, 82]",72141821,Si1Pb1N2
Si2SN2,mp-1247315,1.6688000000000005,2.67309813,0.9911160690000003,"{14: 2, 16: 1, 7: 2}","[7, 14, 16]",72142161,Si2S1N2
Si2SeN2,mp-1245915,2.9484000000000004,4.7392946,0.10235382050000652,"{14: 2, 34: 1, 7: 2}","[7, 14, 34]",72142341,Si2Se1N2
Si2TeN2,mp-1245985,1.072,6.38620622,0.226024457500003,"{14: 2, 52: 1, 7: 2}","[7, 14, 52]",72142521,Si2Te1N2
Si3N2,mp-971682,0.12220000000000031,5.91537328,0.25096445600000195,"{14: 3, 7: 2}","[7, 14]",72143,Si3N2
TiSi4(NCl7)2,mp-679971,2.5220000000000002,1.4152522,0.05478287232143231,"{22: 1, 14: 4, 7: 2, 17: 14}","[7, 14, 17, 22]",721441714221,Ti1Si4N2Cl14
Pr16Si16N27Cl3O14,mp-686466,2.2197999999999998,6.08202764,0.039569277996710284,"{59: 16, 14: 16, 7: 27, 17: 3, 8: 14}","[7, 8, 14, 17, 59]",72781414161735916,Pr16Si16N27Cl3O14
SiGeN2O,mp-1020703,3.4637000000000002,3.32748243,0.04607886744444212,"{14: 1, 32: 1, 7: 2, 8: 1}","[7, 8, 14, 32]",7281141321,Si1Ge1N2O1
Si2N2O,mp-4497,4.924799999999999,3.86893619,0.0,"{14: 2, 7: 2, 8: 1}","[7, 8, 14]",7281142,Si2N2O1
SiP4N2O13,mp-1202503,2.1446,3.01262576,0.3762571921249904,"{14: 1, 15: 4, 7: 2, 8: 13}","[7, 8, 14, 15]",72813141154,Si1P4N2O13
CaSi2(NO)2,mp-556884,4.3692,3.77451415,0.0,"{20: 1, 14: 2, 7: 2, 8: 2}","[7, 8, 14, 20]",7282142201,Ca1Si2N2O2
EuSi2(NO)2,mp-560341,0.2793000000000001,7.00179126,0.0,"{63: 1, 14: 2, 7: 2, 8: 2}","[7, 8, 14, 63]",7282142631,Eu1Si2N2O2
Si(NF2)2,mp-1192120,0.7167999999999992,-4.72349315,1.8066360152380927,"{14: 1, 7: 2, 9: 4}","[7, 9, 14]",7294141,Si1N2F4
Si(NF3)2,mp-1237804,0.0,-1.65753144,0.9836170983333368,"{14: 1, 7: 2, 9: 6}","[7, 9, 14]",7296141,Si1N2F6
NaSi2N3,mp-8973,4.1842999999999995,5.7120583,0.0,"{11: 1, 14: 2, 7: 3}","[7, 11, 14]",73111142,Na1Si2N3
SiPN3,mp-1219220,4.3483,5.03663069,0.016148769333337754,"{14: 1, 15: 1, 7: 3}","[7, 14, 15]",73141151,Si1P1N3
Pr3SiSe2N3,mp-568883,2.0836,3.16535568,0.0,"{59: 3, 14: 1, 34: 2, 7: 3}","[7, 14, 34, 59]",73141342593,Pr3Si1Se2N3
Eu2SiN3,mp-1191010,0.0,4.59980814,0.0,"{63: 2, 14: 1, 7: 3}","[7, 14, 63]",73141632,Eu2Si1N3
U4SiN3,mp-1216630,0.0,11.1480843,0.344379431874998,"{92: 4, 14: 1, 7: 3}","[7, 14, 92]",73141924,U4Si1N3
Si2N3,mp-1080623,0.0,3.78774611,0.35585812400000094,"{14: 2, 7: 3}","[7, 14]",73142,Si2N3
KSi2N3,mp-1029418,3.6731999999999987,5.86943234,0.0,"{19: 1, 14: 2, 7: 3}","[7, 14, 19]",73142191,K1Si2N3
CoSi2N3,mp-1246895,0.45199999999999996,8.60933878,0.23789747472222444,"{27: 1, 14: 2, 7: 3}","[7, 14, 27]",73142271,Co1Si2N3
GaSi2N3,mp-1246892,1.6923000000000012,8.55662868,0.29123602000000126,"{31: 1, 14: 2, 7: 3}","[7, 14, 31]",73142311,Ga1Si2N3
RbSi2N3,mp-1245922,3.4111000000000002,5.81039779,0.08168255092592602,"{37: 1, 14: 2, 7: 3}","[7, 14, 37]",73142371,Rb1Si2N3
Si2AgN3,mp-1246476,1.6338000000000008,8.10696175,0.20086241222222156,"{14: 2, 47: 1, 7: 3}","[7, 14, 47]",73142471,Si2Ag1N3
CsSi2N3,mp-1245989,2.798300000000001,6.34293873,0.30786406808429234,"{55: 1, 14: 2, 7: 3}","[7, 14, 55]",73142551,Cs1Si2N3
Si2AuN3,mp-1246525,1.7297999999999991,8.96988891,0.33104090416666665,"{14: 2, 79: 1, 7: 3}","[7, 14, 79]",73142791,Si2Au1N3
Ca16(SiN2)17,mp-1019552,0.0,4.9465865,0.025668559594218543,"{20: 16, 14: 17, 7: 34}","[7, 14, 20]",73414172016,Ca16Si17N34
La3SiN3O2,mp-1223119,1.6782000000000004,10.34223428,0.051467455277780516,"{57: 3, 14: 1, 7: 3, 8: 2}","[7, 8, 14, 57]",7382141573,La3Si1N3O2
Pr3SiN3O2,mp-1219842,1.5786999999999995,6.96108591,0.035737405462960226,"{59: 3, 14: 1, 7: 3, 8: 2}","[7, 8, 14, 59]",7382141593,Pr3Si1N3O2
SiN3F7,mp-1191312,0.0,-2.55711529,1.289640371136361,"{14: 1, 7: 3, 9: 7}","[7, 9, 14]",7397141,Si1N3F7
CaMg3SiN4,mp-1019579,2.4021,4.50121286,0.0,"{20: 1, 12: 3, 14: 1, 7: 4}","[7, 12, 14, 20]",74123141201,Ca1Mg3Si1N4
SrMg3SiN4,mp-1020587,2.4132999999999996,4.51576893,0.0,"{38: 1, 12: 3, 14: 1, 7: 4}","[7, 12, 14, 38]",74123141381,Sr1Mg3Si1N4
EuMg3SiN4,mp-1019726,0.15890000000000004,6.62145072,0.0,"{63: 1, 12: 3, 14: 1, 7: 4}","[7, 12, 14, 63]",74123141631,Eu1Mg3Si1N4
Mg4SiN4,mp-1247369,1.7988,4.14883304,0.1735097976388893,"{12: 4, 14: 1, 7: 4}","[7, 12, 14]",74124141,Mg4Si1N4
Ca4SiN4,mp-1019576,1.4498000000000002,3.76490169,0.0,"{20: 4, 14: 1, 7: 4}","[7, 14, 20]",74141204,Ca4Si1N4
Mn3SiN4,mp-1245396,0.0,6.9237739,0.0,"{25: 3, 14: 1, 7: 4}","[7, 14, 25]",74141253,Mn3Si1N4
Zn2SiGeN4,mp-1215642,2.6445,4.23843114,0.006282349687500854,"{30: 2, 14: 1, 32: 1, 7: 4}","[7, 14, 30, 32]",74141302321,Zn2Si1Ge1N4
Si(GeN2)2,mp-1020663,1.6596000000000002,6.50391023,0.20549151761905193,"{14: 1, 32: 2, 7: 4}","[7, 14, 32]",74141322,Si1Ge2N4
Sr4SiN4,mp-1247264,0.5251000000000001,3.09038847,0.11973292722221984,"{38: 4, 14: 1, 7: 4}","[7, 14, 38]",74141384,Sr4Si1N4
Si3N4,mp-988,4.2503,6.65520584,0.0,"{14: 3, 7: 4}","[7, 14]",74143,Si3N4
SiN4(OF2)3,mp-1194454,0.0,-3.32403871,1.4705803305357135,"{14: 1, 7: 4, 8: 3, 9: 6}","[7, 8, 9, 14]",748396141,Si1N4O3F6
Eu3Si6N4O9,mp-1213517,0.1501999999999999,6.63462123,0.004424928636364456,"{63: 3, 14: 6, 7: 4, 8: 9}","[7, 8, 14, 63]",7489146633,Eu3Si6N4O9
La3SiN4F,mp-1194197,1.9716000000000005,8.13757459,0.0,"{57: 3, 14: 1, 7: 4, 9: 1}","[7, 9, 14, 57]",7491141573,La3Si1N4F1
Na3Si3N5,mp-1246579,2.8302000000000005,4.41176034,0.05464528261494195,"{11: 3, 14: 3, 7: 5}","[7, 11, 14]",75113143,Na3Si3N5
K3Si3N5,mp-1247442,2.2395000000000005,4.07020734,0.10660427056060406,"{19: 3, 14: 3, 7: 5}","[7, 14, 19]",75143193,K3Si3N5
LaSi3N5,mp-1019967,3.0992999999999995,7.13580877,0.0,"{57: 1, 14: 3, 7: 5}","[7, 14, 57]",75143571,La1Si3N5
CeSi3N5,mp-29466,0.11899999999999977,9.1025792,0.0,"{58: 1, 14: 3, 7: 5}","[7, 14, 58]",75143581,Ce1Si3N5
PrSi3N5,mp-1209344,3.408499999999999,5.76419617,0.00327437305555911,"{59: 1, 14: 3, 7: 5}","[7, 14, 59]",75143591,Pr1Si3N5
NdSi3N5,mp-1209901,3.4773999999999994,5.70264052,0.005452700092604346,"{60: 1, 14: 3, 7: 5}","[7, 14, 60]",75143601,Nd1Si3N5
CoSiN5ClF6,mp-1193831,0.0,-2.77882118,0.4331271782142849,"{27: 1, 14: 1, 7: 5, 17: 1, 9: 6}","[7, 9, 14, 17, 27]",7596141171271,Co1Si1N5Cl1F6
Mg5(SiN3)2,mp-1246202,2.5114,7.24042664,0.13957997375000097,"{12: 5, 14: 2, 7: 6}","[7, 12, 14]",76125142,Mg5Si2N6
Mg7SiN6,mp-1246442,1.5538999999999996,4.80987209,0.0782344471428571,"{12: 7, 14: 1, 7: 6}","[7, 12, 14]",76127141,Mg7Si1N6
Ca7SiN6,mp-1029474,1.8302999999999998,3.63933915,0.0,"{20: 7, 14: 1, 7: 6}","[7, 14, 20]",76141207,Ca7Si1N6
Mn7SiN6,mp-1245612,0.0,7.36885486,0.36866766642857307,"{25: 7, 14: 1, 7: 6}","[7, 14, 25]",76141257,Mn7Si1N6
Co7SiN6,mp-1247482,0.0,5.41779154,0.2750138202380956,"{27: 7, 14: 1, 7: 6}","[7, 14, 27]",76141277,Co7Si1N6
Zn7SiN6,mp-1246760,0.5856000000000003,3.09389788,0.10403399875000119,"{30: 7, 14: 1, 7: 6}","[7, 14, 30]",76141307,Zn7Si1N6
Sr7SiN6,mp-1245748,1.1562999999999994,3.12012818,0.013643643392857285,"{38: 7, 14: 1, 7: 6}","[7, 14, 38]",76141387,Sr7Si1N6
Cd7SiN6,mp-1246887,0.0,2.82727951,0.3983712071428567,"{48: 7, 14: 1, 7: 6}","[7, 14, 48]",76141487,Cd7Si1N6
In7SiN6,mp-1247286,0.0,6.74524982,0.3564413609523811,"{49: 7, 14: 1, 7: 6}","[7, 14, 49]",76141497,In7Si1N6
SiPb7N6,mp-1246561,0.5695999999999994,6.21707538,0.40519519678571925,"{14: 1, 82: 7, 7: 6}","[7, 14, 82]",76141827,Si1Pb7N6
Ca5(SiN3)2,mp-571333,2.1605,4.32042853,0.0,"{20: 5, 14: 2, 7: 6}","[7, 14, 20]",76142205,Ca5Si2N6
Cr5(SiN3)2,mp-1246195,0.02039999999999953,6.7137084,0.354263802649573,"{24: 5, 14: 2, 7: 6}","[7, 14, 24]",76142245,Cr5Si2N6
Mn3(SiN3)2,mp-1247490,0.0,6.0405559,0.3392706727272756,"{25: 3, 14: 2, 7: 6}","[7, 14, 25]",76142253,Mn3Si2N6
Co5(SiN3)2,mp-1245339,0.0,5.8304114,0.5556240395512813,"{27: 5, 14: 2, 7: 6}","[7, 14, 27]",76142275,Co5Si2N6
Zn5(SiN3)2,mp-1246318,1.2814999999999999,4.25340845,0.16557500615384768,"{30: 5, 14: 2, 7: 6}","[7, 14, 30]",76142305,Zn5Si2N6
Si2Ge5N6,mp-1247486,0.7609000000000004,4.32846177,0.3939015214743584,"{14: 2, 32: 5, 7: 6}","[7, 14, 32]",76142325,Si2Ge5N6
Sr5(SiN3)2,mp-1029868,1.4059999999999997,3.74430117,0.0,"{38: 5, 14: 2, 7: 6}","[7, 14, 38]",76142385,Sr5Si2N6
Cd5(SiN3)2,mp-1245697,0.2911999999999999,3.33468393,0.32436146769230945,"{48: 5, 14: 2, 7: 6}","[7, 14, 48]",76142485,Cd5Si2N6
In5(SiN3)2,mp-1247403,0.0,7.27575149,0.41015743128205173,"{49: 5, 14: 2, 7: 6}","[7, 14, 49]",76142495,In5Si2N6
Si2Sn5N6,mp-1247141,0.9577999999999998,5.59741287,0.25886404576923283,"{14: 2, 50: 5, 7: 6}","[7, 14, 50]",76142505,Si2Sn5N6
Si2Pb5N6,mp-1246076,0.0,5.94325904,0.3465357596153851,"{14: 2, 82: 5, 7: 6}","[7, 14, 82]",76142825,Si2Pb5N6
Ce4Si4N6O5,mp-1228410,0.07379999999999942,7.56416463,0.02575831815590135,"{58: 4, 14: 4, 7: 6, 8: 5}","[7, 8, 14, 58]",7685144584,Ce4Si4N6O5
NaSi5N7,mp-1246168,3.6384000000000007,5.39561532,0.02757706355768441,"{11: 1, 14: 5, 7: 7}","[7, 11, 14]",77111145,Na1Si5N7
Mn2Si4N7,mp-1247373,0.0,7.28940958,0.2760488678846169,"{25: 2, 14: 4, 7: 7}","[7, 14, 25]",77144252,Mn2Si4N7
KSi5N7,mp-1029584,3.4174999999999995,5.51670218,0.0,"{19: 1, 14: 5, 7: 7}","[7, 14, 19]",77145191,K1Si5N7
Ce4Si4N7ClO3,mp-677082,0.11139999999999972,7.69390466,0.008503762978481433,"{58: 4, 14: 4, 7: 7, 17: 1, 8: 3}","[7, 8, 14, 17, 58]",7783144171584,Ce4Si4N7Cl1O3
Pr4Si4N7ClO3,mp-699390,3.1044000000000005,3.99273986,0.0,"{59: 4, 14: 4, 7: 7, 17: 1, 8: 3}","[7, 8, 14, 17, 59]",7783144171594,Pr4Si4N7Cl1O3
Nd4Si4N7ClO3,mp-677703,3.1678999999999995,3.96677125,0.005229195885171123,"{60: 4, 14: 4, 7: 7, 17: 1, 8: 3}","[7, 8, 14, 17, 60]",7783144171604,Nd4Si4N7Cl1O3
Mg2Si5N8,mp-1246296,3.264499999999999,5.5881712,0.08714339474999644,"{12: 2, 14: 5, 7: 8}","[7, 12, 14]",78122145,Mg2Si5N8
Ca2Si5N8,mp-28922,3.344899999999999,5.23671039,0.0,"{20: 2, 14: 5, 7: 8}","[7, 14, 20]",78145202,Ca2Si5N8
Mn2Si5N8,mp-1246181,0.7123999999999997,6.60853326,0.15949752008333462,"{25: 2, 14: 5, 7: 8}","[7, 14, 25]",78145252,Mn2Si5N8
Zn2Si5N8,mp-1247426,1.9910999999999994,4.63277907,0.14200583958333368,"{30: 2, 14: 5, 7: 8}","[7, 14, 30]",78145302,Zn2Si5N8
Sr2Si5N8,mp-9710,3.1972000000000005,5.66269505,0.0,"{38: 2, 14: 5, 7: 8}","[7, 14, 38]",78145382,Sr2Si5N8
Cd2Si5N8,mp-1247495,1.6550000000000002,5.28666678,0.0885388856666669,"{48: 2, 14: 5, 7: 8}","[7, 14, 48]",78145482,Cd2Si5N8
Si5(PbN4)2,mp-1246988,0.4607999999999999,6.96859258,0.10093219708333478,"{14: 5, 82: 2, 7: 8}","[7, 14, 82]",78145822,Si5Pb2N8
Sr(Si3N4)2,mp-567278,3.243099999999999,5.69386044,0.0,"{38: 1, 14: 6, 7: 8}","[7, 14, 38]",78146381,Sr1Si6N8
Ca7NbSi2N9,mp-567722,1.9855,4.07016166,0.0,"{20: 7, 41: 1, 14: 2, 7: 9}","[7, 14, 20, 41]",79142207411,Ca7Nb1Si2N9
Sc5(SiN3)3,mp-1246340,1.5504999999999995,5.76651984,0.275152059264709,"{21: 5, 14: 3, 7: 9}","[7, 14, 21]",79143215,Sc5Si3N9
Cr5(SiN3)3,mp-1245536,0.0,6.62074314,0.5662604460294123,"{24: 5, 14: 3, 7: 9}","[7, 14, 24]",79143245,Cr5Si3N9
Mn5(SiN3)3,mp-1245771,0.0,5.15188991,0.48778412000000415,"{25: 5, 14: 3, 7: 9}","[7, 14, 25]",79143255,Mn5Si3N9
Zr5(SiN3)3,mp-1245364,0.0,7.85131816,0.46232732161764645,"{40: 5, 14: 3, 7: 9}","[7, 14, 40]",79143405,Zr5Si3N9