formula,material_id,band_gap,efermi,energy_above_hull,comp_atoms,sorted_keys_comp_atoms,comp_number,new_formula
InSiTe3,mp-567931,0.5186000000000002,4.42475759,0.0,"{49: 1, 14: 1, 52: 3}","[14, 49, 52]",141491523,In1Si1Te3
InSiIr,mp-631255,0.0,7.20541827,1.1498157287499957,"{49: 1, 14: 1, 77: 1}","[14, 49, 77]",141491771,In1Si1Ir1
InSiPt5,mp-1025370,0.0,7.95362808,0.0,"{49: 1, 14: 1, 78: 5}","[14, 49, 78]",141491785,In1Si1Pt5
In3Si,mp-1184934,0.0,7.2955708,0.3121314012499994,"{49: 3, 14: 1}","[14, 49]",141493,In3Si1
SiSn,mp-1009813,0.4291999999999998,5.53362695,0.19199882250000044,"{14: 1, 50: 1}","[14, 50]",141501,Si1Sn1
SiSnPt5,mp-1025324,0.0,8.4396157,0.0,"{14: 1, 50: 1, 78: 5}","[14, 50, 78]",141501785,Si1Sn1Pt5
SiSn3,mp-978494,0.0,7.92693574,0.3212294587500004,"{14: 1, 50: 3}","[14, 50]",141503,Si1Sn3
SiSbOs2,mp-631368,0.0,10.05443211,0.9936473952083347,"{14: 1, 51: 1, 76: 2}","[14, 51, 76]",141511762,Si1Sb1Os2
SiSbPt,mp-11152,0.20860000000000056,7.93987545,0.0,"{14: 1, 51: 1, 78: 1}","[14, 51, 78]",141511781,Si1Sb1Pt1
SiSbPt5,mp-1025366,0.0,8.49402028,0.011533774999996638,"{14: 1, 51: 1, 78: 5}","[14, 51, 78]",141511785,Si1Sb1Pt5
SiSb3,mp-972794,0.0,8.15940995,0.32900151375000064,"{14: 1, 51: 3}","[14, 51]",141513,Si1Sb3
HfSiTe,mp-13963,0.0,6.26594127,0.0,"{72: 1, 14: 1, 52: 1}","[14, 52, 72]",141521721,Hf1Si1Te1
SiTePt,mp-29397,0.33420000000000005,7.4853431,0.0,"{14: 1, 52: 1, 78: 1}","[14, 52, 78]",141521781,Si1Te1Pt1
ThSiTe,mp-1025053,0.0,7.38552221,0.01521599611110247,"{90: 1, 14: 1, 52: 1}","[14, 52, 90]",141521901,Th1Si1Te1
SiTe2,mp-2755,0.0,5.50068173,0.0482593716666635,"{14: 1, 52: 2}","[14, 52]",141522,Si1Te2
Hf2SiTe2,mp-1212437,0.0,5.39071132,1.2371872079999982,"{72: 2, 14: 1, 52: 2}","[14, 52, 72]",141522722,Hf2Si1Te2
SiTe2Os,mp-631362,0.0,9.64402267,0.9237194841250052,"{14: 1, 52: 2, 76: 1}","[14, 52, 76]",141522761,Si1Te2Os1
CsSiTe3,mp-570957,1.2612999999999999,2.68642016,0.0,"{55: 1, 14: 1, 52: 3}","[14, 52, 55]",141523551,Cs1Si1Te3
Tl3SiTe3,mp-568020,1.0854,3.97797501,0.0,"{81: 3, 14: 1, 52: 3}","[14, 52, 81]",141523813,Tl3Si1Te3
Cs4SiTe4,mp-574224,1.8365999999999998,1.39728929,0.0,"{55: 4, 14: 1, 52: 4}","[14, 52, 55]",141524554,Cs4Si1Te4
Ta4SiTe4,mp-28509,0.02859999999999996,4.37764698,0.0,"{73: 4, 14: 1, 52: 4}","[14, 52, 73]",141524734,Ta4Si1Te4
Ta3SiTe6,mp-505206,0.0,5.68580404,0.0,"{73: 3, 14: 1, 52: 6}","[14, 52, 73]",141526733,Ta3Si1Te6
LaSiI,mp-1206265,0.0,6.30506924,0.0,"{57: 1, 14: 1, 53: 1}","[14, 53, 57]",141531571,La1Si1I1
CeSiI,mp-29535,0.0,6.13639059,0.0,"{58: 1, 14: 1, 53: 1}","[14, 53, 58]",141531581,Ce1Si1I1
PrSiI,mp-1206235,0.0,4.7560999,0.0,"{59: 1, 14: 1, 53: 1}","[14, 53, 59]",141531591,Pr1Si1I1
SiI2,mp-541053,2.295,0.180761,0.02587801555555469,"{14: 1, 53: 2}","[14, 53]",141532,Si1I2
SiI3,mp-1078195,2.9566,-0.3248729,0.0,"{14: 1, 53: 3}","[14, 53]",141533,Si1I3
CsSiI3,mp-1147745,0.8319999999999999,2.55676931,0.10511174933333445,"{55: 1, 14: 1, 53: 3}","[14, 53, 55]",141533551,Cs1Si1I3
La3SiI3,mp-1211402,0.0,6.43259459,0.0,"{57: 3, 14: 1, 53: 3}","[14, 53, 57]",141533573,La3Si1I3
Ce3SiI3,mp-1214037,0.0,6.35256218,0.0,"{58: 3, 14: 1, 53: 3}","[14, 53, 58]",141533583,Ce3Si1I3
SiI4,mp-635441,2.8561,-0.52968823,0.0,"{14: 1, 53: 4}","[14, 53]",141534,Si1I4
La4SiI5,mp-1206826,0.0,5.66861768,0.0,"{57: 4, 14: 1, 53: 5}","[14, 53, 57]",141535574,La4Si1I5
Ce4SiI5,mp-1206019,0.0,5.41117863,0.0,"{58: 4, 14: 1, 53: 5}","[14, 53, 58]",141535584,Ce4Si1I5
CsSi,mp-1370,1.5634000000000001,2.29083179,0.0,"{55: 1, 14: 1}","[14, 55]",141551,Cs1Si1
Cs3Si,mp-1183907,0.0,1.86235668,0.42224018587823053,"{55: 3, 14: 1}","[14, 55]",141553,Cs3Si1
LaSi,mp-7083,0.0,8.29230412,0.0,"{57: 1, 14: 1}","[14, 57]",141571,La1Si1
LaSiIr,mp-3555,0.0,8.42857045,0.0,"{57: 1, 14: 1, 77: 1}","[14, 57, 77]",141571771,La1Si1Ir1
LaSiPt,mp-1206485,0.0,7.98729412,0.0,"{57: 1, 14: 1, 78: 1}","[14, 57, 78]",141571781,La1Si1Pt1
LaSiPt3,mp-1206882,0.0,8.23955808,0.0,"{57: 1, 14: 1, 78: 3}","[14, 57, 78]",141571783,La1Si1Pt3
CeSi,mp-21115,0.0,7.99173144,0.0,"{58: 1, 14: 1}","[14, 58]",141581,Ce1Si1
CeSiOs,mp-505005,0.0,8.14741861,0.0,"{58: 1, 14: 1, 76: 1}","[14, 58, 76]",141581761,Ce1Si1Os1
CeSiIr,mp-21441,0.0,7.95155083,0.0,"{58: 1, 14: 1, 77: 1}","[14, 58, 77]",141581771,Ce1Si1Ir1
CeSiIr2,mp-1105540,0.0,8.77372065,0.0,"{58: 1, 14: 1, 77: 2}","[14, 58, 77]",141581772,Ce1Si1Ir2
CeSiPt,mp-1072580,0.0,7.68531271,0.0,"{58: 1, 14: 1, 78: 1}","[14, 58, 78]",141581781,Ce1Si1Pt1
CeSiPt3,mp-1207119,0.0,7.99187805,0.0,"{58: 1, 14: 1, 78: 3}","[14, 58, 78]",141581783,Ce1Si1Pt3
Ce3SiPt5,mp-569913,0.0,8.18377679,0.0,"{58: 3, 14: 1, 78: 5}","[14, 58, 78]",141583785,Ce3Si1Pt5
PrSi,mp-9968,0.0,5.24130269,0.0,"{59: 1, 14: 1}","[14, 59]",141591,Pr1Si1
PrSiIr,mp-1209346,0.0,5.80394352,0.0,"{59: 1, 14: 1, 77: 1}","[14, 59, 77]",141591771,Pr1Si1Ir1
PrSiPt,mp-1080386,0.0,5.73242279,0.0,"{59: 1, 14: 1, 78: 1}","[14, 59, 78]",141591781,Pr1Si1Pt1
Pr3Si,mp-1186731,0.0,4.73796371,0.15609702062499942,"{59: 3, 14: 1}","[14, 59]",141593,Pr3Si1
NdSi,mp-9967,0.0,5.17911687,0.0,"{60: 1, 14: 1}","[14, 60]",141601,Nd1Si1
NdSiIr,mp-1102140,0.0,5.98882044,0.0,"{60: 1, 14: 1, 77: 1}","[14, 60, 77]",141601771,Nd1Si1Ir1
NdSiPt,mp-1077762,0.0,5.6360786,0.0,"{60: 1, 14: 1, 78: 1}","[14, 60, 78]",141601781,Nd1Si1Pt1
NdSiPt3,mp-1206778,0.0,6.64308378,0.0,"{60: 1, 14: 1, 78: 3}","[14, 60, 78]",141601783,Nd1Si1Pt3
Nd3Si,mp-976593,0.0,4.65583417,0.1536353812499982,"{60: 3, 14: 1}","[14, 60]",141603,Nd3Si1
Pm2SiPt,mp-1186479,0.0,5.08758791,0.0,"{61: 2, 14: 1, 78: 1}","[14, 61, 78]",141612781,Pm2Si1Pt1
Pm2SiAu,mp-865545,0.0,4.8324477,0.0,"{61: 2, 14: 1, 79: 1}","[14, 61, 79]",141612791,Pm2Si1Au1
Pm2SiHg,mp-866204,0.0,4.48105743,0.0,"{61: 2, 14: 1, 80: 1}","[14, 61, 80]",141612801,Pm2Si1Hg1
Pm3Si,mp-867165,0.0,4.47488712,0.0,"{61: 3, 14: 1}","[14, 61]",141613,Pm3Si1
SmSi,mp-1025489,0.0,4.99734485,0.0,"{62: 1, 14: 1}","[14, 62]",141621,Sm1Si1
SmSiPt,mp-1077109,0.0,5.43818049,0.0,"{62: 1, 14: 1, 78: 1}","[14, 62, 78]",141621781,Sm1Si1Pt1
SmSiPt3,mp-1207210,0.0,6.58705623,0.0,"{62: 1, 14: 1, 78: 3}","[14, 62, 78]",141621783,Sm1Si1Pt3
Sm3Si,mp-983479,0.0,4.45625608,0.1598870987500014,"{62: 3, 14: 1}","[14, 62]",141623,Sm3Si1
EuSi,mp-21279,0.0,4.33052843,0.0,"{63: 1, 14: 1}","[14, 63]",141631,Eu1Si1
EuSiPt,mp-1103258,0.0,5.13614926,0.0,"{63: 1, 14: 1, 78: 1}","[14, 63, 78]",141631781,Eu1Si1Pt1
Eu2Si,mp-1102477,0.0,3.4385279,0.0,"{63: 2, 14: 1}","[14, 63]",141632,Eu2Si1
GdSi,mp-601371,0.0,5.25582809,0.0,"{64: 1, 14: 1}","[14, 64]",141641,Gd1Si1
GdSiPt,mp-1071675,0.0,5.49299586,0.0,"{64: 1, 14: 1, 78: 1}","[14, 64, 78]",141641781,Gd1Si1Pt1
GdSiPt2,mp-1189670,0.0,6.73089676,0.0,"{64: 1, 14: 1, 78: 2}","[14, 64, 78]",141641782,Gd1Si1Pt2
Gd3Si,mp-1184530,0.0,4.3890034,0.13201385593749926,"{64: 3, 14: 1}","[14, 64]",141643,Gd3Si1
TbSi,mp-1924,0.0,5.39169897,0.0,"{65: 1, 14: 1}","[14, 65]",141651,Tb1Si1
TbSiIr,mp-20383,0.0,6.89263578,0.0,"{65: 1, 14: 1, 77: 1}","[14, 65, 77]",141651771,Tb1Si1Ir1
TbSiPt,mp-7124,0.0,6.53559236,0.0,"{65: 1, 14: 1, 78: 1}","[14, 65, 78]",141651781,Tb1Si1Pt1
TbSiPt2,mp-1208318,0.0,6.91980431,0.0,"{65: 1, 14: 1, 78: 2}","[14, 65, 78]",141651782,Tb1Si1Pt2
Tb3Si,mp-972310,0.0,4.73504615,0.1975559379166647,"{65: 3, 14: 1}","[14, 65]",141653,Tb3Si1
DySi,mp-1182,0.0,5.39737064,0.0,"{66: 1, 14: 1}","[14, 66]",141661,Dy1Si1
DySiIr,mp-20281,0.0,6.88426209,0.0,"{66: 1, 14: 1, 77: 1}","[14, 66, 77]",141661771,Dy1Si1Ir1
DySiPt,mp-20571,0.0,6.54277187,0.0,"{66: 1, 14: 1, 78: 1}","[14, 66, 78]",141661781,Dy1Si1Pt1
DySiPt2,mp-1188085,0.0,6.87267022,0.0,"{66: 1, 14: 1, 78: 2}","[14, 66, 78]",141661782,Dy1Si1Pt2
HoSi,mp-12900,0.0,5.36470297,0.0,"{67: 1, 14: 1}","[14, 67]",141671,Ho1Si1
HoSiIr,mp-22222,0.0,6.86003369,0.0,"{67: 1, 14: 1, 77: 1}","[14, 67, 77]",141671771,Ho1Si1Ir1
HoSiPt,mp-1102935,0.0,6.5095219,0.0,"{67: 1, 14: 1, 78: 1}","[14, 67, 78]",141671781,Ho1Si1Pt1
HoSiPt2,mp-1190095,0.0,6.85653894,0.0,"{67: 1, 14: 1, 78: 2}","[14, 67, 78]",141671782,Ho1Si1Pt2
Ho3Si,mp-1184706,0.0,4.50702645,0.22102019249999927,"{67: 3, 14: 1}","[14, 67]",141673,Ho3Si1
ErSi,mp-1079295,0.0,5.40076113,0.0,"{68: 1, 14: 1}","[14, 68]",141681,Er1Si1
ErSiIr,mp-20733,0.0,6.9197455,0.0,"{68: 1, 14: 1, 77: 1}","[14, 68, 77]",141681771,Er1Si1Ir1
ErSiPt,mp-1102879,0.0,6.52401165,0.0,"{68: 1, 14: 1, 78: 1}","[14, 68, 78]",141681781,Er1Si1Pt1
TmSi,mp-1066975,0.0,5.44554696,0.0,"{69: 1, 14: 1}","[14, 69]",141691,Tm1Si1
TmSiIr,mp-1207675,0.0,6.9467601,0.0,"{69: 1, 14: 1, 77: 1}","[14, 69, 77]",141691771,Tm1Si1Ir1
TmSiPt,mp-1095501,0.0,6.55885054,0.0,"{69: 1, 14: 1, 78: 1}","[14, 69, 78]",141691781,Tm1Si1Pt1
TmSiPt2,mp-1190240,0.0,6.92740977,0.0,"{69: 1, 14: 1, 78: 2}","[14, 69, 78]",141691782,Tm1Si1Pt2
Tm3Si,mp-979933,0.0,4.43913391,0.23060276277777803,"{69: 3, 14: 1}","[14, 69]",141693,Tm3Si1
LuSi,mp-1001612,0.0,5.50369871,0.0,"{71: 1, 14: 1}","[14, 71]",141711,Lu1Si1
LuSiIr,mp-22440,0.0,6.94104287,0.0,"{71: 1, 14: 1, 77: 1}","[14, 71, 77]",141711771,Lu1Si1Ir1
LuSiPt,mp-1101919,0.0,6.62336024,0.0,"{71: 1, 14: 1, 78: 1}","[14, 71, 78]",141711781,Lu1Si1Pt1
LuSiPt2,mp-1105597,0.0,6.90139212,0.0,"{71: 1, 14: 1, 78: 2}","[14, 71, 78]",141711782,Lu1Si1Pt2
LuSiAu,mp-9024,0.0,6.30303181,0.0,"{71: 1, 14: 1, 79: 1}","[14, 71, 79]",141711791,Lu1Si1Au1
Lu3Si,mp-1185426,0.0,4.15252702,0.2284975008333312,"{71: 3, 14: 1}","[14, 71]",141713,Lu3Si1
HfSi,mp-1042,0.0,7.44900616,0.0,"{72: 1, 14: 1}","[14, 72]",141721,Hf1Si1
HfTaSi,mp-1224367,0.0,6.59181704,0.3329848242187552,"{72: 1, 73: 1, 14: 1}","[14, 72, 73]",141721731,Hf1Ta1Si1
HfSiW,mp-1102732,0.0,7.39564648,0.0,"{72: 1, 14: 1, 74: 1}","[14, 72, 74]",141721741,Hf1Si1W1
HfSiW4,mp-1224294,0.0,6.39281652,0.6181302433333329,"{72: 1, 14: 1, 74: 4}","[14, 72, 74]",141721744,Hf1Si1W4
HfReSi,mp-1079831,0.0,7.58819655,0.0,"{72: 1, 75: 1, 14: 1}","[14, 72, 75]",141721751,Hf1Re1Si1
HfSiOs,mp-1189249,0.0,7.86222776,0.0,"{72: 1, 14: 1, 76: 1}","[14, 72, 76]",141721761,Hf1Si1Os1
HfSiPt,mp-10456,0.0,8.00302917,0.0,"{72: 1, 14: 1, 78: 1}","[14, 72, 78]",141721781,Hf1Si1Pt1
Hf2Si,mp-9938,0.0,6.1941545,0.0,"{72: 2, 14: 1}","[14, 72]",141722,Hf2Si1
Hf3Si,mp-1184668,0.0,6.07716793,0.2967468687499988,"{72: 3, 14: 1}","[14, 72]",141723,Hf3Si1
Hf9Re4Si,mp-1193862,0.0,5.63678458,0.0,"{72: 9, 75: 4, 14: 1}","[14, 72, 75]",141729754,Hf9Re4Si1
TaReSi,mp-1188590,0.0,8.25895791,0.0,"{73: 1, 75: 1, 14: 1}","[14, 73, 75]",141731751,Ta1Re1Si1
TaSiIr,mp-21316,0.0,9.01124854,0.0,"{73: 1, 14: 1, 77: 1}","[14, 73, 77]",141731771,Ta1Si1Ir1
TaSiPt,mp-1208554,0.0,8.71984889,0.0,"{73: 1, 14: 1, 78: 1}","[14, 73, 78]",141731781,Ta1Si1Pt1
Ta2Si,mp-2783,0.0,7.4834367,0.0,"{73: 2, 14: 1}","[14, 73]",141732,Ta2Si1
Ta3Si,mp-568646,0.0,6.65469426,0.0,"{73: 3, 14: 1}","[14, 73]",141733,Ta3Si1
SiW3,mp-570334,0.0,6.42987569,1.4687778999999992,"{14: 1, 74: 3}","[14, 74]",141743,Si1W3
ReSi,mp-7948,0.0,9.47019652,0.031634861428571526,"{75: 1, 14: 1}","[14, 75]",141751,Re1Si1
Re2Si,mp-669547,0.0,8.59423859,0.3323728517857134,"{75: 2, 14: 1}","[14, 75]",141752,Re2Si1
Re3Si,mp-974425,0.0,8.82586112,0.3127602175892825,"{75: 3, 14: 1}","[14, 75]",141753,Re3Si1
SiOs,mp-2488,0.5122,9.83219609,0.0,"{14: 1, 76: 1}","[14, 76]",141761,Si1Os1
Dy10Si17,mp-569825,0.0,6.38124,0.0,"{66: 10, 14: 17}","[14, 66]",14176610,Dy10Si17
Ho10Si17,mp-569851,0.0,6.37258561,0.0,"{67: 10, 14: 17}","[14, 67]",14176710,Ho10Si17
SiIr,mp-1128,0.0,9.54135815,0.0,"{14: 1, 77: 1}","[14, 77]",141771,Si1Ir1
ThSiIr,mp-1206779,0.0,8.06237389,0.0,"{90: 1, 14: 1, 77: 1}","[14, 77, 90]",141771901,Th1Si1Ir1
USiIr,mp-19806,0.0,10.94034378,0.0,"{92: 1, 14: 1, 77: 1}","[14, 77, 92]",141771921,U1Si1Ir1
SiIr2,mp-1103038,0.0,10.49926826,0.01608838125000034,"{14: 1, 77: 2}","[14, 77]",141772,Si1Ir2
SiIr3,mp-1841,0.0,10.00152093,0.0,"{14: 1, 77: 3}","[14, 77]",141773,Si1Ir3
SiPt,mp-696,0.0,9.34190144,0.0,"{14: 1, 78: 1}","[14, 78]",141781,Si1Pt1
ThSiPt,mp-1025098,0.0,7.68822512,0.0,"{90: 1, 14: 1, 78: 1}","[14, 78, 90]",141781901,Th1Si1Pt1
USiPt,mp-1216805,0.0,10.11186596,0.007683987533328107,"{92: 1, 14: 1, 78: 1}","[14, 78, 92]",141781921,U1Si1Pt1
SiPt2,mp-1299,0.0,7.764209,0.0,"{14: 1, 78: 2}","[14, 78]",141782,Si1Pt2
SiPt3,mp-13363,0.0,8.40549836,0.045100567500000466,"{14: 1, 78: 3}","[14, 78]",141783,Si1Pt3
TlSiPt5,mp-1025329,0.0,7.74039684,0.004694012142849147,"{81: 1, 14: 1, 78: 5}","[14, 78, 81]",141785811,Tl1Si1Pt5
SiPt5Pb,mp-1025218,0.0,8.07153116,0.00019542285715345997,"{14: 1, 78: 5, 82: 1}","[14, 78, 82]",141785821,Si1Pt5Pb1
U3SiPt5,mp-1217211,0.0,9.54548776,0.0,"{92: 3, 14: 1, 78: 5}","[14, 78, 92]",141785923,U3Si1Pt5
Ac2SiAu,mp-862698,0.0,6.73987775,0.0,"{89: 2, 14: 1, 79: 1}","[14, 79, 89]",141791892,Ac2Si1Au1
ThSiAu,mp-9164,0.0,7.18103844,0.0,"{90: 1, 14: 1, 79: 1}","[14, 79, 90]",141791901,Th1Si1Au1
USiAu,mp-1216817,0.0,9.22045379,0.06733208541667324,"{92: 1, 14: 1, 79: 1}","[14, 79, 92]",141791921,U1Si1Au1
SiAu3,mp-1186998,0.0,6.69436302,0.18204186749999707,"{14: 1, 79: 3}","[14, 79]",141793,Si1Au3
Ac2SiHg,mp-983586,0.0,6.17861374,0.0,"{89: 2, 14: 1, 80: 1}","[14, 80, 89]",141801892,Ac2Si1Hg1
SiHg3,mp-2790577,0.0,2.88802787,0.3981504262499982,"{14: 1, 80: 3}","[14, 80]",141803,Si1Hg3
Tl3Si,mp-1187550,0.0,6.30722571,0.35595993249999935,"{81: 3, 14: 1}","[14, 81]",141813,Tl3Si1
SiPb3,mp-1187007,0.0,7.07053451,0.3352673925000005,"{14: 1, 82: 3}","[14, 82]",141823,Si1Pb3
SiBi3,mp-972837,0.0,6.51192292,0.4145132749999991,"{14: 1, 83: 3}","[14, 83]",141833,Si1Bi3
Si18Sn,mp-1094080,0.0,-0.73883697,0.867342988157894,"{14: 18, 50: 1}","[14, 50]",1418501,Si18Sn1
Ac3Si,mp-1183122,0.0,7.03136825,0.08114728500000012,"{89: 3, 14: 1}","[14, 89]",141893,Ac3Si1
ThSi,mp-21238,0.0,7.87304084,0.0,"{90: 1, 14: 1}","[14, 90]",141901,Th1Si1
Pa3Si,mp-862861,0.0,12.39481239,0.0,"{91: 3, 14: 1}","[14, 91]",141913,Pa3Si1
Ca14Si19,mp-29013,0.0,5.10702235,0.006230816060606159,"{20: 14, 14: 19}","[14, 20]",14192014,Ca14Si19
USi,mp-19715,0.0,11.18273593,0.10045248499999815,"{92: 1, 14: 1}","[14, 92]",141921,U1Si1
U3Si,mp-1078858,0.0,13.55715976,0.0,"{92: 3, 14: 1}","[14, 92]",141923,U3Si1
Mn11Si19,mp-567968,0.8562999999999992,9.69943024,0.0070961446944455275,"{25: 11, 14: 19}","[14, 25]",14192511,Mn11Si19
U6Co30Si19,mp-569882,0.0,9.04131266,0.0,"{92: 6, 27: 30, 14: 19}","[14, 27, 92]",14192730926,U6Co30Si19
NpSi,mp-19937,0.0,11.1591961,0.034403734062500746,"{93: 1, 14: 1}","[14, 93]",141931,Np1Si1
PuSi,mp-20713,0.0,10.04788256,0.0,"{94: 1, 14: 1}","[14, 94]",141941,Pu1Si1
Sm6Si19Rh30,mp-1219276,0.0,7.29182894,0.0,"{62: 6, 14: 19, 45: 30}","[14, 45, 62]",14194530626,Sm6Si19Rh30
Si19Te8,mp-31135,0.8865999999999996,6.69762607,0.015168027407407081,"{14: 19, 52: 8}","[14, 52]",1419528,Si19Te8
U6Si19Pt30,mp-1217537,0.0,9.41602899,0.06215552025454496,"{92: 6, 14: 19, 78: 30}","[14, 78, 92]",14197830926,U6Si19Pt30
Dy5Sc5(Si5Ir2)4,mp-1225385,0.0,7.36827854,0.014363666842105438,"{66: 5, 21: 5, 14: 20, 77: 8}","[14, 21, 66, 77]",1420215665778,Dy5Sc5Si20Ir8
Lu5Sc5(Si5Ir2)4,mp-1222705,0.0,7.34860425,0.018414192368418902,"{71: 5, 21: 5, 14: 20, 77: 8}","[14, 21, 71, 77]",1420215715778,Lu5Sc5Si20Ir8
Zn2Si2As3P,mp-1215555,1.1822999999999997,4.91541465,0.004762091874999541,"{30: 2, 14: 2, 33: 3, 15: 1}","[14, 15, 30, 33]",142151302333,Zn2Si2As3P1
Si2P2Pt,mp-505309,0.47659999999999947,7.42344244,0.12443510291666726,"{14: 2, 15: 2, 78: 1}","[14, 15, 78]",142152781,Si2P2Pt1
Zn2Si2AsP3,mp-1215549,1.2859999999999996,5.47303188,0.00533268062500003,"{30: 2, 14: 2, 33: 1, 15: 3}","[14, 15, 30, 33]",142153302331,Zn2Si2As1P3
Ca3(SiP2)2,mp-1194866,0.8441999999999998,4.5350868,0.0,"{20: 3, 14: 2, 15: 4}","[14, 15, 20]",142154203,Ca3Si2P4
Si2P4Rh,mp-1208874,0.0,8.11294219,0.13478939384615352,"{14: 2, 15: 4, 45: 1}","[14, 15, 45]",142154451,Si2P4Rh1
Si2P4Ir,mp-1208866,0.0,8.77078054,0.1694319042857142,"{14: 2, 15: 4, 77: 1}","[14, 15, 77]",142154771,Si2P4Ir1
La(SiP3)2,mp-29186,0.8978000000000002,6.27244381,0.003446885486120266,"{57: 1, 14: 2, 15: 6}","[14, 15, 57]",142156571,La1Si2P6
Pr(SiP3)2,mp-1200288,0.8609999999999998,5.64064334,0.009097939583337933,"{59: 1, 14: 2, 15: 6}","[14, 15, 59]",142156591,Pr1Si2P6
Nd(SiP3)2,mp-1210127,0.8460999999999999,5.69451584,0.013541026944444923,"{60: 1, 14: 2, 15: 6}","[14, 15, 60]",142156601,Nd1Si2P6
La6Cr(SiS7)2,mp-1223175,0.0,7.08236502,0.0,"{57: 6, 24: 1, 14: 2, 16: 14}","[14, 16, 24, 57]",1421614241576,La6Cr1Si2S14
La6Mn(SiS7)2,mp-1223191,1.1259000000000006,6.04368946,0.0,"{57: 6, 25: 1, 14: 2, 16: 14}","[14, 16, 25, 57]",1421614251576,La6Mn1Si2S14
Pr6Mn(SiS7)2,mp-1219863,1.0988999999999995,4.54006536,0.0,"{59: 6, 25: 1, 14: 2, 16: 14}","[14, 16, 25, 59]",1421614251596,Pr6Mn1Si2S14
Nd6Mn(SiS7)2,mp-1220237,1.0334999999999992,4.58884993,0.0,"{60: 6, 25: 1, 14: 2, 16: 14}","[14, 16, 25, 60]",1421614251606,Nd6Mn1Si2S14
Sm6Mn(SiS7)2,mp-1219143,1.0611999999999995,4.65769477,0.0,"{62: 6, 25: 1, 14: 2, 16: 14}","[14, 16, 25, 62]",1421614251626,Sm6Mn1Si2S14
Dy6Mn(SiS7)2,mp-1225409,0.9866999999999999,4.99923231,0.0,"{66: 6, 25: 1, 14: 2, 16: 14}","[14, 16, 25, 66]",1421614251666,Dy6Mn1Si2S14
Er6Mn(SiS7)2,mp-1225711,0.9203999999999999,5.17079154,0.005229649130438219,"{68: 6, 25: 1, 14: 2, 16: 14}","[14, 16, 25, 68]",1421614251686,Er6Mn1Si2S14
La6Co(SiS7)2,mp-1223187,0.0,6.1482065,0.01454369349637652,"{57: 6, 27: 1, 14: 2, 16: 14}","[14, 16, 27, 57]",1421614271576,La6Co1Si2S14
La6Zn(SiS7)2,mp-1223149,1.9847000000000001,5.23913908,0.0,"{57: 6, 30: 1, 14: 2, 16: 14}","[14, 16, 30, 57]",1421614301576,La6Zn1Si2S14
La6Cd(SiS7)2,mp-1223157,1.9468999999999994,5.20285317,0.0,"{57: 6, 48: 1, 14: 2, 16: 14}","[14, 16, 48, 57]",1421614481576,La6Cd1Si2S14
Pr6Cd(SiS7)2,mp-1219860,1.8397000000000001,3.66795842,0.0,"{59: 6, 48: 1, 14: 2, 16: 14}","[14, 16, 48, 59]",1421614481596,Pr6Cd1Si2S14
Nd6Cd(SiS7)2,mp-1220303,1.8684000000000003,3.69708533,0.0,"{60: 6, 48: 1, 14: 2, 16: 14}","[14, 16, 48, 60]",1421614481606,Nd6Cd1Si2S14
Sm6Cd(SiS7)2,mp-1219147,1.8741000000000003,3.73336726,0.0,"{62: 6, 48: 1, 14: 2, 16: 14}","[14, 16, 48, 62]",1421614481626,Sm6Cd1Si2S14
La3Si2S8Cl,mp-556246,2.6154,4.31444645,0.0,"{57: 3, 14: 2, 16: 8, 17: 1}","[14, 16, 17, 57]",142168171573,La3Si2S8Cl1
Ce3Si2S8Cl,mp-542133,0.10240000000000027,5.90847489,0.0,"{58: 3, 14: 2, 16: 8, 17: 1}","[14, 16, 17, 58]",142168171583,Ce3Si2S8Cl1
Pr3Si2S8Cl,mp-556179,2.7409000000000003,3.00702307,0.0,"{59: 3, 14: 2, 16: 8, 17: 1}","[14, 16, 17, 59]",142168171593,Pr3Si2S8Cl1
La3Si2S8Br,mp-560523,2.4924999999999997,4.30843046,0.0,"{57: 3, 14: 2, 16: 8, 35: 1}","[14, 16, 35, 57]",142168351573,La3Si2S8Br1
Ce3Si2S8Br,mp-669378,0.08830000000000027,5.82390234,0.0,"{58: 3, 14: 2, 16: 8, 35: 1}","[14, 16, 35, 58]",142168351583,Ce3Si2S8Br1
Pr3Si2S8Br,mp-560468,2.6881,3.07744792,0.0,"{59: 3, 14: 2, 16: 8, 35: 1}","[14, 16, 35, 59]",142168351593,Pr3Si2S8Br1
Nd3Si2S8Br,mp-559237,2.664,3.17386706,0.0,"{60: 3, 14: 2, 16: 8, 35: 1}","[14, 16, 35, 60]",142168351603,Nd3Si2S8Br1
Sm3Si2S8Br,mp-555527,2.3239,3.19416015,0.0,"{62: 3, 14: 2, 16: 8, 35: 1}","[14, 16, 35, 62]",142168351623,Sm3Si2S8Br1
Gd3Si2S8Br,mp-1194050,0.0,2.8537665,0.07689969702381205,"{64: 3, 14: 2, 16: 8, 35: 1}","[14, 16, 35, 64]",142168351643,Gd3Si2S8Br1
La2CeSi2S8I,mp-1223524,0.34000000000000075,5.74715334,0.0012756716666677548,"{57: 2, 58: 1, 14: 2, 16: 8, 53: 1}","[14, 16, 53, 57, 58]",142168531572581,La2Ce1Si2S8I1
La3Si2S8I,mp-23090,2.5070000000000006,4.61274093,0.0,"{57: 3, 14: 2, 16: 8, 53: 1}","[14, 16, 53, 57]",142168531573,La3Si2S8I1
Ce3Si2S8I,mp-555409,0.11010000000000009,6.02814648,0.0,"{58: 3, 14: 2, 16: 8, 53: 1}","[14, 16, 53, 58]",142168531583,Ce3Si2S8I1
Pr3Si2S8I,mp-558259,2.5715,3.53920519,0.0,"{59: 3, 14: 2, 16: 8, 53: 1}","[14, 16, 53, 59]",142168531593,Pr3Si2S8I1
Nd3Si2S8I,mp-561126,2.3333,3.45873773,0.0,"{60: 3, 14: 2, 16: 8, 53: 1}","[14, 16, 53, 60]",142168531603,Nd3Si2S8I1
Sm3Si2S8I,mp-560356,2.5736,3.51014001,0.0,"{62: 3, 14: 2, 16: 8, 53: 1}","[14, 16, 53, 62]",142168531623,Sm3Si2S8I1
Tb3Si2S8I,mp-560853,2.4577,3.87172335,0.015584115119046338,"{65: 3, 14: 2, 16: 8, 53: 1}","[14, 16, 53, 65]",142168531653,Tb3Si2S8I1