formula,material_id,band_gap,efermi,energy_above_hull,comp_atoms,sorted_keys_comp_atoms,comp_number,new_formula
Na14La3Nb5(SiO4)12,mp-2712988,2.2218,2.19126303,0.08544052710873729,"{11: 14, 57: 3, 41: 5, 14: 12, 8: 48}","[8, 11, 14, 41, 57]",84811141412415573,Na14La3Nb5Si12O48
Na14Ta5In3(SiO4)12,mp-2712898,3.2805,2.17361428,0.03222074538617914,"{11: 14, 73: 5, 49: 3, 14: 12, 8: 48}","[8, 11, 14, 49, 73]",84811141412493735,Na14Ta5In3Si12O48
Na14La3Ta5(SiO4)12,mp-2713055,2.8792000000000004,2.41012289,0.07637989191564554,"{11: 14, 57: 3, 73: 5, 14: 12, 8: 48}","[8, 11, 14, 57, 73]",84811141412573735,Na14La3Ta5Si12O48
Na14Ca4Zn4Si3(S3O16)3,mp-2714428,2.6007,2.30080936,0.10859354485772599,"{11: 14, 20: 4, 30: 4, 14: 3, 16: 9, 8: 48}","[8, 11, 14, 16, 20, 30]",8481114143169204304,Na14Ca4Zn4Si3S9O48
Na14Ca8Si3(S3O16)3,mp-2714411,2.8513,2.2018311,0.07365062915650711,"{11: 14, 20: 8, 14: 3, 16: 9, 8: 48}","[8, 11, 14, 16, 20]",8481114143169208,Na14Ca8Si3S9O48
Na14Zn8Si3(S3O16)3,mp-2714593,2.7902000000000005,2.09709869,0.10892599289634841,"{11: 14, 30: 8, 14: 3, 16: 9, 8: 48}","[8, 11, 14, 16, 30]",8481114143169308,Na14Zn8Si3S9O48
Na14Ca4Sc4Si5S7O48,mp-2715893,3.0866999999999996,1.93223442,0.09366894955029714,"{11: 14, 20: 4, 21: 4, 14: 5, 16: 7, 8: 48}","[8, 11, 14, 16, 20, 21]",8481114145167204214,Na14Ca4Sc4Si5S7O48
Na14Ca4Ga4Si5S7O48,mp-2715857,2.6416,2.076143,0.12844258677845133,"{11: 14, 20: 4, 31: 4, 14: 5, 16: 7, 8: 48}","[8, 11, 14, 16, 20, 31]",8481114145167204314,Na14Ca4Ga4Si5S7O48
Na14Ca4In4Si5S7O48,mp-2716119,2.2409999999999997,2.37233026,0.11151766888211867,"{11: 14, 20: 4, 49: 4, 14: 5, 16: 7, 8: 48}","[8, 11, 14, 16, 20, 49]",8481114145167204494,Na14Ca4In4Si5S7O48
Na14Ca4La4Si5S7O48,mp-2713086,3.2515,2.08472469,0.10856031985772052,"{11: 14, 20: 4, 57: 4, 14: 5, 16: 7, 8: 48}","[8, 11, 14, 16, 20, 57]",8481114145167204574,Na14Ca4La4Si5S7O48
Na14Ca6Ti2Si5S7O48,mp-2715906,1.2238000000000002,2.09013273,0.11006892386687017,"{11: 14, 20: 6, 22: 2, 14: 5, 16: 7, 8: 48}","[8, 11, 14, 16, 20, 22]",8481114145167206222,Na14Ca6Ti2Si5S7O48
Na14Ca6Si5Ge2S7O48,mp-2715854,0.020399999999999974,1.36808213,0.16474261940040602,"{11: 14, 20: 6, 14: 5, 32: 2, 16: 7, 8: 48}","[8, 11, 14, 16, 20, 32]",8481114145167206322,Na14Ca6Si5Ge2S7O48
Na14Ca6Zr2Si5S7O48,mp-2716072,2.4939,2.12382286,0.10236023821137774,"{11: 14, 20: 6, 40: 2, 14: 5, 16: 7, 8: 48}","[8, 11, 14, 16, 20, 40]",8481114145167206402,Na14Ca6Zr2Si5S7O48
Na14Ca6Si5Sn2S7O48,mp-2715943,0.41880000000000006,1.91451499,0.13661457423781087,"{11: 14, 20: 6, 14: 5, 50: 2, 16: 7, 8: 48}","[8, 11, 14, 16, 20, 50]",8481114145167206502,Na14Ca6Si5Sn2S7O48
Na14Ca6Hf2Si5S7O48,mp-2716058,2.944,2.06594706,0.10903508275406804,"{11: 14, 20: 6, 72: 2, 14: 5, 16: 7, 8: 48}","[8, 11, 14, 16, 20, 72]",8481114145167206722,Na14Ca6Hf2Si5S7O48
Na14Sc4Zn4Si5S7O48,mp-2715935,3.0744,2.0185967,0.1082949872281489,"{11: 14, 21: 4, 30: 4, 14: 5, 16: 7, 8: 48}","[8, 11, 14, 16, 21, 30]",8481114145167214304,Na14Sc4Zn4Si5S7O48
Na14Ti2Zn6Si5S7O48,mp-2715996,1.2931,2.21390518,0.13090759493902482,"{11: 14, 22: 2, 30: 6, 14: 5, 16: 7, 8: 48}","[8, 11, 14, 16, 22, 30]",8481114145167222306,Na14Ti2Zn6Si5S7O48
Na14Zn4Ga4Si5S7O48,mp-2715963,2.9028,2.16811376,0.13567107056910466,"{11: 14, 30: 4, 31: 4, 14: 5, 16: 7, 8: 48}","[8, 11, 14, 16, 30, 31]",8481114145167304314,Na14Zn4Ga4Si5S7O48
Na14Zn4In4Si5S7O48,mp-2713066,2.4611,2.3868714,0.12656943075203664,"{11: 14, 30: 4, 49: 4, 14: 5, 16: 7, 8: 48}","[8, 11, 14, 16, 30, 49]",8481114145167304494,Na14Zn4In4Si5S7O48
Na14La4Zn4Si5S7O48,mp-2715941,3.2551,1.95695357,0.13233259796748076,"{11: 14, 57: 4, 30: 4, 14: 5, 16: 7, 8: 48}","[8, 11, 14, 16, 30, 57]",8481114145167304574,Na14La4Zn4Si5S7O48
Na14Zn6Si5Ge2S7O48,mp-2715984,0.48329999999999984,2.16076618,0.1662035112601643,"{11: 14, 30: 6, 14: 5, 32: 2, 16: 7, 8: 48}","[8, 11, 14, 16, 30, 32]",8481114145167306322,Na14Zn6Si5Ge2S7O48
Na14Zr2Zn6Si5S7O48,mp-2716091,2.4134,2.26372724,0.13709631634146113,"{11: 14, 40: 2, 30: 6, 14: 5, 16: 7, 8: 48}","[8, 11, 14, 16, 30, 40]",8481114145167306402,Na14Zr2Zn6Si5S7O48
Na14Zn6Si5Sn2S7O48,mp-2716020,1.2222,2.54352464,0.14588092459349777,"{11: 14, 30: 6, 14: 5, 50: 2, 16: 7, 8: 48}","[8, 11, 14, 16, 30, 50]",8481114145167306502,Na14Zn6Si5Sn2S7O48
Na14Hf2Zn6Si5S7O48,mp-2715932,2.7647,2.34974962,0.13338029983740007,"{11: 14, 72: 2, 30: 6, 14: 5, 16: 7, 8: 48}","[8, 11, 14, 16, 30, 72]",8481114145167306722,Na14Hf2Zn6Si5S7O48
Na14Ca5Ti3Si6(SO8)6,mp-2714254,1.4962000000000002,1.89086093,0.12447960133129854,"{11: 14, 20: 5, 22: 3, 14: 6, 16: 6, 8: 48}","[8, 11, 14, 16, 20, 22]",8481114146166205223,Na14Ca5Ti3Si6S6O48
Na14Ca5Si6Ge3(SO8)6,mp-2714079,1.1246999999999998,2.04735326,0.1637867834095541,"{11: 14, 20: 5, 14: 6, 32: 3, 16: 6, 8: 48}","[8, 11, 14, 16, 20, 32]",8481114146166205323,Na14Ca5Si6Ge3S6O48
Na14Ca5Zr3Si6(SO8)6,mp-2714130,2.833,1.98643164,0.11354592349084403,"{11: 14, 20: 5, 40: 3, 14: 6, 16: 6, 8: 48}","[8, 11, 14, 16, 20, 40]",8481114146166205403,Na14Ca5Zr3Si6S6O48
Na14Ca5Si6Sn3(SO8)6,mp-2714093,1.1777000000000002,2.27872143,0.13578664560975806,"{11: 14, 20: 5, 14: 6, 50: 3, 16: 6, 8: 48}","[8, 11, 14, 16, 20, 50]",8481114146166205503,Na14Ca5Si6Sn3S6O48
Na14Ca5Hf3Si6(SO8)6,mp-2714270,3.1731,2.01122361,0.11872950276930894,"{11: 14, 20: 5, 72: 3, 14: 6, 16: 6, 8: 48}","[8, 11, 14, 16, 20, 72]",8481114146166205723,Na14Ca5Hf3Si6S6O48
Na14Ti3Zn5Si6(SO8)6,mp-2714198,1.5342,2.15229986,0.12698792106707568,"{11: 14, 22: 3, 30: 5, 14: 6, 16: 6, 8: 48}","[8, 11, 14, 16, 22, 30]",8481114146166223305,Na14Ti3Zn5Si6S6O48
Na14Zn5Si6Ge3(SO8)6,mp-2714242,1.5084,2.34797712,0.1666973639227649,"{11: 14, 30: 5, 14: 6, 32: 3, 16: 6, 8: 48}","[8, 11, 14, 16, 30, 32]",8481114146166305323,Na14Zn5Si6Ge3S6O48
Na14Zr3Zn5Si6(SO8)6,mp-2714068,3.0722999999999994,1.91133242,0.12863080923780412,"{11: 14, 40: 3, 30: 5, 14: 6, 16: 6, 8: 48}","[8, 11, 14, 16, 30, 40]",8481114146166305403,Na14Zr3Zn5Si6S6O48
Na14Zn5Si6Sn3(SO8)6,mp-2714158,1.629,2.39522045,0.14595813800812873,"{11: 14, 30: 5, 14: 6, 50: 3, 16: 6, 8: 48}","[8, 11, 14, 16, 30, 50]",8481114146166305503,Na14Zn5Si6Sn3S6O48
Na14Hf3Zn5Si6(SO8)6,mp-2714196,3.275,1.94373923,0.12076853034553015,"{11: 14, 72: 3, 30: 5, 14: 6, 16: 6, 8: 48}","[8, 11, 14, 16, 30, 72]",8481114146166305723,Na14Hf3Zn5Si6S6O48
Na14Ca4Ti4Si7S5O48,mp-2715657,1.5779,2.17531909,0.09513219420731023,"{11: 14, 20: 4, 22: 4, 14: 7, 16: 5, 8: 48}","[8, 11, 14, 16, 20, 22]",8481114147165204224,Na14Ca4Ti4Si7S5O48
Na14Ca4Si7Ge4S5O48,mp-2715762,0.9042000000000003,2.36654272,0.13613258515751703,"{11: 14, 20: 4, 14: 7, 32: 4, 16: 5, 8: 48}","[8, 11, 14, 16, 20, 32]",8481114147165204324,Na14Ca4Si7Ge4S5O48
Na14Ca4Zr4Si7S5O48,mp-2715523,2.8491999999999997,1.98152598,0.08151237742377582,"{11: 14, 20: 4, 40: 4, 14: 7, 16: 5, 8: 48}","[8, 11, 14, 16, 20, 40]",8481114147165204404,Na14Ca4Zr4Si7S5O48
Na14Ca4Si7Sn4S5O48,mp-2715536,1.5775000000000001,2.72459182,0.11328713229675902,"{11: 14, 20: 4, 14: 7, 50: 4, 16: 5, 8: 48}","[8, 11, 14, 16, 20, 50]",8481114147165204504,Na14Ca4Si7Sn4S5O48
Na14Ca4Hf4Si7S5O48,mp-2715686,3.1117999999999997,2.27287579,0.08412496099593447,"{11: 14, 20: 4, 72: 4, 14: 7, 16: 5, 8: 48}","[8, 11, 14, 16, 20, 72]",8481114147165204724,Na14Ca4Hf4Si7S5O48
Na14Sc4Ga4Si7S5O48,mp-2715723,2.9906999999999995,2.3254276,0.10626219236027712,"{11: 14, 21: 4, 31: 4, 14: 7, 16: 5, 8: 48}","[8, 11, 14, 16, 21, 31]",8481114147165214314,Na14Sc4Ga4Si7S5O48
Na14Sc4In4Si7S5O48,mp-2715641,2.7329,2.50485055,0.099395806922014,"{11: 14, 21: 4, 49: 4, 14: 7, 16: 5, 8: 48}","[8, 11, 14, 16, 21, 49]",8481114147165214494,Na14Sc4In4Si7S5O48
Na14La4Sc4Si7S5O48,mp-2715721,3.5124,2.30081699,0.09860881028074164,"{11: 14, 57: 4, 21: 4, 14: 7, 16: 5, 8: 48}","[8, 11, 14, 16, 21, 57]",8481114147165214574,Na14La4Sc4Si7S5O48
Na14Sc8Si7S5O48,mp-2715766,3.6887999999999996,2.02554547,0.07758455741997938,"{11: 14, 21: 8, 14: 7, 16: 5, 8: 48}","[8, 11, 14, 16, 21]",8481114147165218,Na14Sc8Si7S5O48
Na14Ti4Zn4Si7S5O48,mp-2715759,1.5274,2.48124022,0.09861523593496546,"{11: 14, 22: 4, 30: 4, 14: 7, 16: 5, 8: 48}","[8, 11, 14, 16, 22, 30]",8481114147165224304,Na14Ti4Zn4Si7S5O48
Na14Zn4Si7Ge4S5O48,mp-2715672,1.4982000000000002,2.68031572,0.1452835503048826,"{11: 14, 30: 4, 14: 7, 32: 4, 16: 5, 8: 48}","[8, 11, 14, 16, 30, 32]",8481114147165304324,Na14Zn4Si7Ge4S5O48
Na14Zr4Zn4Si7S5O48,mp-2715661,3.0042,2.06226392,0.10056918790650471,"{11: 14, 40: 4, 30: 4, 14: 7, 16: 5, 8: 48}","[8, 11, 14, 16, 30, 40]",8481114147165304404,Na14Zr4Zn4Si7S5O48
Na14Zn4Si7Sn4S5O48,mp-2715625,1.7753,2.96147123,0.12220685674796972,"{11: 14, 30: 4, 14: 7, 50: 4, 16: 5, 8: 48}","[8, 11, 14, 16, 30, 50]",8481114147165304504,Na14Zn4Si7Sn4S5O48
Na14Hf4Zn4Si7S5O48,mp-2715576,3.1377999999999995,2.20647639,0.09736134260162466,"{11: 14, 72: 4, 30: 4, 14: 7, 16: 5, 8: 48}","[8, 11, 14, 16, 30, 72]",8481114147165304724,Na14Hf4Zn4Si7S5O48
Na14In4Ga4Si7S5O48,mp-2715595,2.5456,2.74828582,0.1270214866869912,"{11: 14, 49: 4, 31: 4, 14: 7, 16: 5, 8: 48}","[8, 11, 14, 16, 31, 49]",8481114147165314494,Na14In4Ga4Si7S5O48
Na14La4Ga4Si7S5O48,mp-2715659,2.9185999999999996,2.44987823,0.1380388575508107,"{11: 14, 57: 4, 31: 4, 14: 7, 16: 5, 8: 48}","[8, 11, 14, 16, 31, 57]",8481114147165314574,Na14La4Ga4Si7S5O48
Na14Ga8Si7S5O48,mp-2715795,2.7399,2.36598875,0.1305875722967489,"{11: 14, 31: 8, 14: 7, 16: 5, 8: 48}","[8, 11, 14, 16, 31]",8481114147165318,Na14Ga8Si7S5O48
Na14La4In4Si7S5O48,mp-2715818,2.5221000000000005,2.54666247,0.11659928498983696,"{11: 14, 57: 4, 49: 4, 14: 7, 16: 5, 8: 48}","[8, 11, 14, 16, 49, 57]",8481114147165494574,Na14La4In4Si7S5O48
Na14In8Si7S5O48,mp-2715669,2.5298,2.51533582,0.10310478632621578,"{11: 14, 49: 8, 14: 7, 16: 5, 8: 48}","[8, 11, 14, 16, 49]",8481114147165498,Na14In8Si7S5O48
Na14La8Si7S5O48,mp-2715740,3.3842,2.09777722,0.10134525741869727,"{11: 14, 57: 8, 14: 7, 16: 5, 8: 48}","[8, 11, 14, 16, 57]",8481114147165578,Na14La8Si7S5O48
Na14Ca2Ti6Si9(SO16)3,mp-2714815,1.5428000000000002,2.35622358,0.08748968802845258,"{11: 14, 20: 2, 22: 6, 14: 9, 16: 3, 8: 48}","[8, 11, 14, 16, 20, 22]",8481114149163202226,Na14Ca2Ti6Si9S3O48
Na14Ca2Si9Ge6(SO16)3,mp-2714674,1.6572999999999998,2.5590547,0.14355273995427176,"{11: 14, 20: 2, 14: 9, 32: 6, 16: 3, 8: 48}","[8, 11, 14, 16, 20, 32]",8481114149163202326,Na14Ca2Si9Ge6S3O48
Na14Ca2Zr6Si9(SO16)3,mp-2714653,3.1704999999999997,1.92098422,0.07306071313515172,"{11: 14, 20: 2, 40: 6, 14: 9, 16: 3, 8: 48}","[8, 11, 14, 16, 20, 40]",8481114149163202406,Na14Ca2Zr6Si9S3O48
Na14Ca2Si9Sn6(SO16)3,mp-2714635,1.6785000000000005,2.80917411,0.1002192765650598,"{11: 14, 20: 2, 14: 9, 50: 6, 16: 3, 8: 48}","[8, 11, 14, 16, 20, 50]",8481114149163202506,Na14Ca2Si9Sn6S3O48
Na14Ca2Hf6Si9(SO16)3,mp-2714772,3.4466,1.96611107,0.07188610444105503,"{11: 14, 20: 2, 72: 6, 14: 9, 16: 3, 8: 48}","[8, 11, 14, 16, 20, 72]",8481114149163202726,Na14Ca2Hf6Si9S3O48
Na14Ca4Nb4Si9(SO16)3,mp-2714905,1.3691,2.18907354,0.11097801434959109,"{11: 14, 20: 4, 41: 4, 14: 9, 16: 3, 8: 48}","[8, 11, 14, 16, 20, 41]",8481114149163204414,Na14Ca4Nb4Si9S3O48
Na14Ca4Ta4Si9(SO16)3,mp-2714877,2.1064,2.22613209,0.10894608569105735,"{11: 14, 20: 4, 73: 4, 14: 9, 16: 3, 8: 48}","[8, 11, 14, 16, 20, 73]",8481114149163204734,Na14Ca4Ta4Si9S3O48
Na14Sc4Ti4Si9(SO16)3,mp-2715142,2.0046,2.22160567,0.0695858777845535,"{11: 14, 21: 4, 22: 4, 14: 9, 16: 3, 8: 48}","[8, 11, 14, 16, 21, 22]",8481114149163214224,Na14Sc4Ti4Si9S3O48
Na14Sc4Si9Ge4(SO16)3,mp-2714849,2.2702,2.44978385,0.10495743365852661,"{11: 14, 21: 4, 14: 9, 32: 4, 16: 3, 8: 48}","[8, 11, 14, 16, 21, 32]",8481114149163214324,Na14Sc4Si9Ge4S3O48
Na14Zr4Sc4Si9(SO16)3,mp-2714677,3.5905000000000005,1.78151539,0.06048500469511797,"{11: 14, 40: 4, 21: 4, 14: 9, 16: 3, 8: 48}","[8, 11, 14, 16, 21, 40]",8481114149163214404,Na14Zr4Sc4Si9S3O48
Na14Sc4Si9Sn4(SO16)3,mp-2715111,2.3998,2.45377916,0.07565808256096762,"{11: 14, 21: 4, 14: 9, 50: 4, 16: 3, 8: 48}","[8, 11, 14, 16, 21, 50]",8481114149163214504,Na14Sc4Si9Sn4S3O48
Na14Hf4Sc4Si9(SO16)3,mp-2715084,3.87,1.79069159,0.05624973252845766,"{11: 14, 72: 4, 21: 4, 14: 9, 16: 3, 8: 48}","[8, 11, 14, 16, 21, 72]",8481114149163214724,Na14Hf4Sc4Si9S3O48
Na14Sc6Nb2Si9(SO16)3,mp-2714857,1.9264000000000001,1.95194929,0.07229584588795746,"{11: 14, 21: 6, 41: 2, 14: 9, 16: 3, 8: 48}","[8, 11, 14, 16, 21, 41]",8481114149163216412,Na14Sc6Nb2Si9S3O48
Na14Sc6Ta2Si9(SO16)3,mp-2715175,2.7383,2.03613986,0.07258737103024604,"{11: 14, 21: 6, 73: 2, 14: 9, 16: 3, 8: 48}","[8, 11, 14, 16, 21, 73]",8481114149163216732,Na14Sc6Ta2Si9S3O48
Na14Ti4Ga4Si9(SO16)3,mp-2715026,1.9721,2.21353236,0.09025481686991288,"{11: 14, 22: 4, 31: 4, 14: 9, 16: 3, 8: 48}","[8, 11, 14, 16, 22, 31]",8481114149163224314,Na14Ti4Ga4Si9S3O48
Na14Ti4In4Si9(SO16)3,mp-2714631,2.0975,2.44814073,0.07395745122204822,"{11: 14, 22: 4, 49: 4, 14: 9, 16: 3, 8: 48}","[8, 11, 14, 16, 22, 49]",8481114149163224494,Na14Ti4In4Si9S3O48
Na14La4Ti4Si9(SO16)3,mp-2714902,2.3078000000000003,2.29519631,0.09658900323170716,"{11: 14, 57: 4, 22: 4, 14: 9, 16: 3, 8: 48}","[8, 11, 14, 16, 22, 57]",8481114149163224574,Na14La4Ti4Si9S3O48
Na14Ti6Zn2Si9(SO16)3,mp-2714717,1.7531999999999996,2.32344792,0.08111513290650496,"{11: 14, 22: 6, 30: 2, 14: 9, 16: 3, 8: 48}","[8, 11, 14, 16, 22, 30]",8481114149163226302,Na14Ti6Zn2Si9S3O48
Na14Zn2Si9Ge6(SO16)3,mp-2714860,1.8093999999999997,2.69138359,0.13364306097561585,"{11: 14, 30: 2, 14: 9, 32: 6, 16: 3, 8: 48}","[8, 11, 14, 16, 30, 32]",8481114149163302326,Na14Zn2Si9Ge6S3O48
Na14Zr6Zn2Si9(SO16)3,mp-2714844,3.2331000000000003,2.01891744,0.08014608215446906,"{11: 14, 40: 6, 30: 2, 14: 9, 16: 3, 8: 48}","[8, 11, 14, 16, 30, 40]",8481114149163302406,Na14Zr6Zn2Si9S3O48
Na14Zn2Si9Sn6(SO16)3,mp-2714918,1.6989999999999998,2.95961536,0.09899429117886704,"{11: 14, 30: 2, 14: 9, 50: 6, 16: 3, 8: 48}","[8, 11, 14, 16, 30, 50]",8481114149163302506,Na14Zn2Si9Sn6S3O48
Na14Hf6Zn2Si9(SO16)3,mp-2714799,3.5265000000000004,2.0976671,0.07038366048780276,"{11: 14, 72: 6, 30: 2, 14: 9, 16: 3, 8: 48}","[8, 11, 14, 16, 30, 72]",8481114149163302726,Na14Hf6Zn2Si9S3O48
Na14Nb4Zn4Si9(SO16)3,mp-2714739,1.3496000000000001,2.19468922,0.11351122272357905,"{11: 14, 41: 4, 30: 4, 14: 9, 16: 3, 8: 48}","[8, 11, 14, 16, 30, 41]",8481114149163304414,Na14Nb4Zn4Si9S3O48
Na14Ta4Zn4Si9(SO16)3,mp-2714773,2.2246000000000006,2.49203156,0.10518068105690581,"{11: 14, 73: 4, 30: 4, 14: 9, 16: 3, 8: 48}","[8, 11, 14, 16, 30, 73]",8481114149163304734,Na14Ta4Zn4Si9S3O48
Na14Ga4Si9Ge4(SO16)3,mp-2715194,2.4147,2.3990813,0.1227154338211367,"{11: 14, 31: 4, 14: 9, 32: 4, 16: 3, 8: 48}","[8, 11, 14, 16, 31, 32]",8481114149163314324,Na14Ga4Si9Ge4S3O48
Na14Zr4Ga4Si9(SO16)3,mp-2715055,3.3874000000000004,1.91543122,0.09267598058942639,"{11: 14, 40: 4, 31: 4, 14: 9, 16: 3, 8: 48}","[8, 11, 14, 16, 31, 40]",8481114149163314404,Na14Zr4Ga4Si9S3O48
Na14Ga4Si9Sn4(SO16)3,mp-2715181,2.4807,2.62974681,0.09766717743902298,"{11: 14, 31: 4, 14: 9, 50: 4, 16: 3, 8: 48}","[8, 11, 14, 16, 31, 50]",8481114149163314504,Na14Ga4Si9Sn4S3O48
Na14Hf4Ga4Si9(SO16)3,mp-2714713,3.5103999999999997,2.00943994,0.08390875739837433,"{11: 14, 72: 4, 31: 4, 14: 9, 16: 3, 8: 48}","[8, 11, 14, 16, 31, 72]",8481114149163314724,Na14Hf4Ga4Si9S3O48
Na14Nb2Ga6Si9(SO16)3,mp-2714750,1.9247,2.26747273,0.11322430993902977,"{11: 14, 41: 2, 31: 6, 14: 9, 16: 3, 8: 48}","[8, 11, 14, 16, 31, 41]",8481114149163316412,Na14Nb2Ga6Si9S3O48
Na14Ta2Ga6Si9(SO16)3,mp-2714846,2.6872000000000003,2.33811862,0.10970391512195654,"{11: 14, 73: 2, 31: 6, 14: 9, 16: 3, 8: 48}","[8, 11, 14, 16, 31, 73]",8481114149163316732,Na14Ta2Ga6Si9S3O48
Na14In4Si9Ge4(SO16)3,mp-2715199,2.0608,2.67462249,0.1085474286839414,"{11: 14, 49: 4, 14: 9, 32: 4, 16: 3, 8: 48}","[8, 11, 14, 16, 32, 49]",8481114149163324494,Na14In4Si9Ge4S3O48
Na14Zr4In4Si9(SO16)3,mp-2714946,3.0763999999999996,2.18450692,0.07052226554878072,"{11: 14, 40: 4, 49: 4, 14: 9, 16: 3, 8: 48}","[8, 11, 14, 16, 40, 49]",8481114149163404494,Na14Zr4In4Si9S3O48
Na14La4Zr4Si9(SO16)3,mp-2715173,3.7045000000000003,1.88938172,0.08147657097560757,"{11: 14, 57: 4, 40: 4, 14: 9, 16: 3, 8: 48}","[8, 11, 14, 16, 40, 57]",8481114149163404574,Na14La4Zr4Si9S3O48
Na14Nb2In6Si9(SO16)3,mp-2714761,1.7987000000000002,2.51915597,0.08969806666158942,"{11: 14, 41: 2, 49: 6, 14: 9, 16: 3, 8: 48}","[8, 11, 14, 16, 41, 49]",8481114149163412496,Na14Nb2In6Si9S3O48
Na14La6Nb2Si9(SO16)3,mp-2714935,1.9673000000000003,2.10298722,0.11175844345528407,"{11: 14, 57: 6, 41: 2, 14: 9, 16: 3, 8: 48}","[8, 11, 14, 16, 41, 57]",8481114149163412576,Na14La6Nb2Si9S3O48
Na14In4Si9Sn4(SO16)3,mp-2714659,2.209,2.83631617,0.08474826204774288,"{11: 14, 49: 4, 14: 9, 50: 4, 16: 3, 8: 48}","[8, 11, 14, 16, 49, 50]",8481114149163494504,Na14In4Si9Sn4S3O48
Na14Hf4In4Si9(SO16)3,mp-2714654,3.1571999999999996,2.16760837,0.06437773672473757,"{11: 14, 72: 4, 49: 4, 14: 9, 16: 3, 8: 48}","[8, 11, 14, 16, 49, 72]",8481114149163494724,Na14Hf4In4Si9S3O48
Na14Ta2In6Si9(SO16)3,mp-2715203,2.7542999999999997,2.46593704,0.08601080103150682,"{11: 14, 73: 2, 49: 6, 14: 9, 16: 3, 8: 48}","[8, 11, 14, 16, 49, 73]",8481114149163496732,Na14Ta2In6Si9S3O48
Na14La4Si9Sn4(SO16)3,mp-2714878,2.0421,2.54087183,0.10607102129065016,"{11: 14, 57: 4, 14: 9, 50: 4, 16: 3, 8: 48}","[8, 11, 14, 16, 50, 57]",8481114149163504574,Na14La4Si9Sn4S3O48
Na14La4Hf4Si9(SO16)3,mp-2715213,3.758,2.01063667,0.07931234957723543,"{11: 14, 57: 4, 72: 4, 14: 9, 16: 3, 8: 48}","[8, 11, 14, 16, 57, 72]",8481114149163574724,Na14La4Hf4Si9S3O48
Na14La6Ta2Si9(SO16)3,mp-2714980,2.614,2.18050221,0.10758402266259992,"{11: 14, 57: 6, 73: 2, 14: 9, 16: 3, 8: 48}","[8, 11, 14, 16, 57, 73]",8481114149163576732,Na14La6Ta2Si9S3O48
Na2Mg2Ti6Si3(S3O16)3,mp-2716402,1.2569000000000001,1.33095904,0.033837588408164976,"{11: 2, 12: 2, 22: 6, 14: 3, 16: 9, 8: 48}","[8, 11, 12, 14, 16, 22]",848112122143169226,Na2Mg2Ti6Si3S9O48
Na2Mg2Si3Ge6(S3O16)3,mp-2716389,1.0755,2.13499402,0.10949642641369728,"{11: 2, 12: 2, 14: 3, 32: 6, 16: 9, 8: 48}","[8, 11, 12, 14, 16, 32]",848112122143169326,Na2Mg2Si3Ge6S9O48
Na2Mg2Zr6Si3(S3O16)3,mp-2716442,2.3417000000000003,1.22071462,0.03208424009523814,"{11: 2, 12: 2, 40: 6, 14: 3, 16: 9, 8: 48}","[8, 11, 12, 14, 16, 40]",848112122143169406,Na2Mg2Zr6Si3S9O48
Na2Mg2Si3Sn6(S3O16)3,mp-2716545,0.42510000000000003,2.65113229,0.06807542277082934,"{11: 2, 12: 2, 14: 3, 50: 6, 16: 9, 8: 48}","[8, 11, 12, 14, 16, 50]",848112122143169506,Na2Mg2Si3Sn6S9O48
Na2Hf6Mg2Si3(S3O16)3,mp-2716292,2.9356999999999998,1.52850711,0.03098082614285591,"{11: 2, 72: 6, 12: 2, 14: 3, 16: 9, 8: 48}","[8, 11, 12, 14, 16, 72]",848112122143169726,Na2Hf6Mg2Si3S9O48
Na2Mg4Ti4SiS11O48,mp-2714088,1.2167000000000001,1.50555597,0.013639770850339517,"{11: 2, 12: 4, 22: 4, 14: 1, 16: 11, 8: 48}","[8, 11, 12, 14, 16, 22]",8481121241411611224,Na2Mg4Ti4Si1S11O48
Na2Mg4SiGe4S11O48,mp-2714230,0.5554000000000001,2.46584224,0.07277396164583916,"{11: 2, 12: 4, 14: 1, 32: 4, 16: 11, 8: 48}","[8, 11, 12, 14, 16, 32]",8481121241411611324,Na2Mg4Si1Ge4S11O48
Na2Mg4Zr4SiS11O48,mp-2714080,2.2274,1.56027177,0.017024492728569207,"{11: 2, 12: 4, 40: 4, 14: 1, 16: 11, 8: 48}","[8, 11, 12, 14, 16, 40]",8481121241411611404,Na2Mg4Zr4Si1S11O48
Na2Mg4SiSn4S11O48,mp-2714233,0.5614999999999997,2.75032483,0.03047977341906627,"{11: 2, 12: 4, 14: 1, 50: 4, 16: 11, 8: 48}","[8, 11, 12, 14, 16, 50]",8481121241411611504,Na2Mg4Si1Sn4S11O48
Na2Hf4Mg4SiS11O48,mp-2714219,2.9038999999999997,1.70984776,0.016576830666649833,"{11: 2, 72: 4, 12: 4, 14: 1, 16: 11, 8: 48}","[8, 11, 12, 14, 16, 72]",8481121241411611724,Na2Hf4Mg4Si1S11O48
Na2Mg4Nb4Si3(S3O16)3,mp-2716350,0.7235,1.61199788,0.0544526354810575,"{11: 2, 12: 4, 41: 4, 14: 3, 16: 9, 8: 48}","[8, 11, 12, 14, 16, 41]",848112124143169414,Na2Mg4Nb4Si3S9O48
Na2Mg4Ta4Si3(S3O16)3,mp-2716496,1.0992,1.91842619,0.05695442794047434,"{11: 2, 12: 4, 73: 4, 14: 3, 16: 9, 8: 48}","[8, 11, 12, 14, 16, 73]",848112124143169734,Na2Mg4Ta4Si3S9O48
Na2Ca4Ti4SiS11O48,mp-2714024,1.3062,0.78857248,0.024660776446441268,"{11: 2, 20: 4, 22: 4, 14: 1, 16: 11, 8: 48}","[8, 11, 14, 16, 20, 22]",8481121411611204224,Na2Ca4Ti4Si1S11O48