formula,material_id,band_gap,efermi,energy_above_hull,comp_atoms,sorted_keys_comp_atoms,comp_number,new_formula
UReSi2Ru,mp-1216637,0.0,9.45435284,0.08405195861428538,"{92: 1, 75: 1, 14: 2, 44: 1}","[14, 44, 75, 92]",142441751921,U1Re1Si2Ru1
Si2OsRu,mp-972777,0.0,11.48788118,0.016472589374998847,"{14: 2, 76: 1, 44: 1}","[14, 44, 76]",142441761,Si2Os1Ru1
La(SiRu)2,mp-5105,0.0,8.50548209,0.0,"{57: 1, 14: 2, 44: 2}","[14, 44, 57]",142442571,La1Si2Ru2
Ce(SiRu)2,mp-3566,0.0,8.34323168,0.0,"{58: 1, 14: 2, 44: 2}","[14, 44, 58]",142442581,Ce1Si2Ru2
Pr(SiRu)2,mp-4904,0.0,6.71992915,0.0,"{59: 1, 14: 2, 44: 2}","[14, 44, 59]",142442591,Pr1Si2Ru2
Nd(SiRu)2,mp-4013,0.0,6.6948938,0.0,"{60: 1, 14: 2, 44: 2}","[14, 44, 60]",142442601,Nd1Si2Ru2
Sm(SiRu)2,mp-4072,0.0,6.6507523,0.0,"{62: 1, 14: 2, 44: 2}","[14, 44, 62]",142442621,Sm1Si2Ru2
Sm3(SiRu)2,mp-1208957,0.0,5.32750128,0.017059425169179576,"{62: 3, 14: 2, 44: 2}","[14, 44, 62]",142442623,Sm3Si2Ru2
Eu(SiRu)2,mp-581736,0.0,6.25523833,0.0,"{63: 1, 14: 2, 44: 2}","[14, 44, 63]",142442631,Eu1Si2Ru2
Gd(SiRu)2,mp-569302,0.0,6.77083497,0.0,"{64: 1, 14: 2, 44: 2}","[14, 44, 64]",142442641,Gd1Si2Ru2
Tb(SiRu)2,mp-3678,0.0,6.85590082,0.0,"{65: 1, 14: 2, 44: 2}","[14, 44, 65]",142442651,Tb1Si2Ru2
Dy(SiRu)2,mp-4177,0.0,6.83607036,0.0,"{66: 1, 14: 2, 44: 2}","[14, 44, 66]",142442661,Dy1Si2Ru2
Ho(SiRu)2,mp-5720,0.0,6.78673995,0.0,"{67: 1, 14: 2, 44: 2}","[14, 44, 67]",142442671,Ho1Si2Ru2
Er(SiRu)2,mp-5022,0.0,6.81343385,0.0,"{68: 1, 14: 2, 44: 2}","[14, 44, 68]",142442681,Er1Si2Ru2
Tm(SiRu)2,mp-568371,0.0,6.78221391,0.0,"{69: 1, 14: 2, 44: 2}","[14, 44, 69]",142442691,Tm1Si2Ru2
Lu(SiRu)2,mp-10453,0.0,6.78358781,0.0,"{71: 1, 14: 2, 44: 2}","[14, 44, 71]",142442711,Lu1Si2Ru2
Th(SiRu)2,mp-5165,0.0,8.47811509,0.0,"{90: 1, 14: 2, 44: 2}","[14, 44, 90]",142442901,Th1Si2Ru2
U(SiRu)2,mp-3388,0.0,9.51005104,0.0,"{92: 1, 14: 2, 44: 2}","[14, 44, 92]",142442921,U1Si2Ru2
Np(SiRu)2,mp-3106,0.0,9.74424278,0.0,"{93: 1, 14: 2, 44: 2}","[14, 44, 93]",142442931,Np1Si2Ru2
Pu(SiRu)2,mp-22559,0.0,9.27160458,0.0,"{94: 1, 14: 2, 44: 2}","[14, 44, 94]",142442941,Pu1Si2Ru2
LaSi2Ru3,mp-29240,0.0,8.54349609,0.08445120916666582,"{57: 1, 14: 2, 44: 3}","[14, 44, 57]",142443571,La1Si2Ru3
CeSi2Ru3,mp-30043,0.0,8.25178721,0.0288930266666636,"{58: 1, 14: 2, 44: 3}","[14, 44, 58]",142443581,Ce1Si2Ru3
NdSi2Ru3,mp-1025017,0.0,6.89320007,0.09231899833332946,"{60: 1, 14: 2, 44: 3}","[14, 44, 60]",142443601,Nd1Si2Ru3
SmSi2Ru3,mp-1206515,0.0,6.79120136,0.09380152666666319,"{62: 1, 14: 2, 44: 3}","[14, 44, 62]",142443621,Sm1Si2Ru3
ThSi2Ru3,mp-1025056,0.0,8.36043118,0.01400280333333015,"{90: 1, 14: 2, 44: 3}","[14, 44, 90]",142443901,Th1Si2Ru3
Si2Bi14RhI12,mp-568271,0.0,4.28674729,0.17866294901149393,"{14: 2, 83: 14, 45: 1, 53: 12}","[14, 45, 53, 83]",14245153128314,Si2Bi14Rh1I12
CeSi2Rh,mp-1025411,0.0,8.15669784,0.021401568124999493,"{58: 1, 14: 2, 45: 1}","[14, 45, 58]",142451581,Ce1Si2Rh1
PrSi2Rh,mp-1079815,0.0,6.392659,8.213187499883645e-05,"{59: 1, 14: 2, 45: 1}","[14, 45, 59]",142451591,Pr1Si2Rh1
NdSi2Rh,mp-1025495,0.0,6.40049272,0.010715297812495805,"{60: 1, 14: 2, 45: 1}","[14, 45, 60]",142451601,Nd1Si2Rh1
SmSi2Rh,mp-1025453,0.0,6.30969569,0.009311481874997973,"{62: 1, 14: 2, 45: 1}","[14, 45, 62]",142451621,Sm1Si2Rh1
TbSi2IrRh,mp-1217476,0.0,7.64443178,0.0,"{65: 1, 14: 2, 77: 1, 45: 1}","[14, 45, 65, 77]",142451651771,Tb1Si2Ir1Rh1
La(SiRh)2,mp-5936,0.0,8.56759413,0.0,"{57: 1, 14: 2, 45: 2}","[14, 45, 57]",142452571,La1Si2Rh2
Ce(SiRh)2,mp-4090,0.0,8.45082986,0.0,"{58: 1, 14: 2, 45: 2}","[14, 45, 58]",142452581,Ce1Si2Rh2
Ce3(SiRh)2,mp-978253,0.0,8.30279569,0.0,"{58: 3, 14: 2, 45: 2}","[14, 45, 58]",142452583,Ce3Si2Rh2
Pr(SiRh)2,mp-4815,0.0,6.91960513,0.0,"{59: 1, 14: 2, 45: 2}","[14, 45, 59]",142452591,Pr1Si2Rh2
Nd(SiRh)2,mp-3651,0.0,6.92122215,0.0,"{60: 1, 14: 2, 45: 2}","[14, 45, 60]",142452601,Nd1Si2Rh2
Sm(SiRh)2,mp-3882,0.0,6.87537089,0.0,"{62: 1, 14: 2, 45: 2}","[14, 45, 62]",142452621,Sm1Si2Rh2
Sm3(SiRh)2,mp-1208977,0.0,5.42944888,0.0,"{62: 3, 14: 2, 45: 2}","[14, 45, 62]",142452623,Sm3Si2Rh2
Eu(SiRh)2,mp-21383,0.0,6.25915842,0.0,"{63: 1, 14: 2, 45: 2}","[14, 45, 63]",142452631,Eu1Si2Rh2
Gd(SiRh)2,mp-21240,0.0,6.96961072,0.0,"{64: 1, 14: 2, 45: 2}","[14, 45, 64]",142452641,Gd1Si2Rh2
Tb(SiRh)2,mp-3097,0.0,7.11209439,0.0,"{65: 1, 14: 2, 45: 2}","[14, 45, 65]",142452651,Tb1Si2Rh2
Dy(SiRh)2,mp-2893,0.0,7.11560753,0.0,"{66: 1, 14: 2, 45: 2}","[14, 45, 66]",142452661,Dy1Si2Rh2
Ho(SiRh)2,mp-3895,0.0,7.0917583,0.0,"{67: 1, 14: 2, 45: 2}","[14, 45, 67]",142452671,Ho1Si2Rh2
Er(SiRh)2,mp-5386,0.0,7.11915874,0.0,"{68: 1, 14: 2, 45: 2}","[14, 45, 68]",142452681,Er1Si2Rh2
Tm(SiRh)2,mp-8528,0.0,7.11480341,0.0,"{69: 1, 14: 2, 45: 2}","[14, 45, 69]",142452691,Tm1Si2Rh2
Lu(SiRh)2,mp-3108,0.0,7.09768129,0.0,"{71: 1, 14: 2, 45: 2}","[14, 45, 71]",142452711,Lu1Si2Rh2
Th(SiRh)2,mp-4413,0.0,8.44707821,0.0,"{90: 1, 14: 2, 45: 2}","[14, 45, 90]",142452901,Th1Si2Rh2
U(SiRh)2,mp-5556,0.0,9.56855197,0.0,"{92: 1, 14: 2, 45: 2}","[14, 45, 92]",142452921,U1Si2Rh2
Np(SiRh)2,mp-20292,0.0,9.67800149,0.0,"{93: 1, 14: 2, 45: 2}","[14, 45, 93]",142452931,Np1Si2Rh2
Pu(SiRh)2,mp-22657,0.0,9.79268975,0.0,"{94: 1, 14: 2, 45: 2}","[14, 45, 94]",142452941,Pu1Si2Rh2
Si2Rh3,mp-1207013,0.0,7.98552817,0.0,"{14: 2, 45: 3}","[14, 45]",142453,Si2Rh3
LaSi2Rh3,mp-1102955,0.0,8.66233646,0.0,"{57: 1, 14: 2, 45: 3}","[14, 45, 57]",142453571,La1Si2Rh3
La3Si2Rh3,mp-601852,0.0,8.1469801,0.0,"{57: 3, 14: 2, 45: 3}","[14, 45, 57]",142453573,La3Si2Rh3
CeSi2Rh3,mp-1213768,0.0,8.77973005,0.0,"{58: 1, 14: 2, 45: 3}","[14, 45, 58]",142453581,Ce1Si2Rh3
Ce3Si2Rh3,mp-623044,0.0,7.92204349,0.0,"{58: 3, 14: 2, 45: 3}","[14, 45, 58]",142453583,Ce3Si2Rh3
NdSi2Rh3,mp-1103026,0.0,6.98862432,0.0,"{60: 1, 14: 2, 45: 3}","[14, 45, 60]",142453601,Nd1Si2Rh3
SmSi2Rh3,mp-568555,0.0,6.67040477,0.0,"{62: 1, 14: 2, 45: 3}","[14, 45, 62]",142453621,Sm1Si2Rh3
GdSi2Rh3,mp-622508,0.0,6.83263032,0.0,"{64: 1, 14: 2, 45: 3}","[14, 45, 64]",142453641,Gd1Si2Rh3
TbSi2Rh3,mp-754875,0.0,6.79127689,0.0,"{65: 1, 14: 2, 45: 3}","[14, 45, 65]",142453651,Tb1Si2Rh3
DySi2Rh3,mp-30621,0.0,6.74974964,0.0,"{66: 1, 14: 2, 45: 3}","[14, 45, 66]",142453661,Dy1Si2Rh3
HoSi2Rh3,mp-571071,0.0,6.78543857,0.0,"{67: 1, 14: 2, 45: 3}","[14, 45, 67]",142453671,Ho1Si2Rh3
ErSi2Rh3,mp-8535,0.0,7.01513761,0.0,"{68: 1, 14: 2, 45: 3}","[14, 45, 68]",142453681,Er1Si2Rh3
Si2Bi2Rh3,mp-1105123,0.0,7.09256465,0.4010184935714296,"{14: 2, 83: 2, 45: 3}","[14, 45, 83]",142453832,Si2Bi2Rh3
Ho3Si2(SnRh3)3,mp-1105133,0.0,7.35584767,0.0,"{67: 3, 14: 2, 50: 3, 45: 9}","[14, 45, 50, 67]",142459503673,Ho3Si2Sn3Rh9
EuSi2PdAu,mp-1225121,0.0,5.51522788,0.013079652999998359,"{63: 1, 14: 2, 46: 1, 79: 1}","[14, 46, 63, 79]",142461631791,Eu1Si2Pd1Au1
La(SiPd)2,mp-4954,0.0,7.58221723,0.0,"{57: 1, 14: 2, 46: 2}","[14, 46, 57]",142462571,La1Si2Pd2
Ce(SiPd)2,mp-3826,0.0,7.43495841,0.0,"{58: 1, 14: 2, 46: 2}","[14, 46, 58]",142462581,Ce1Si2Pd2
Pr(SiPd)2,mp-3278,0.0,6.0225546,0.0,"{59: 1, 14: 2, 46: 2}","[14, 46, 59]",142462591,Pr1Si2Pd2
Nd(SiPd)2,mp-4323,0.0,6.01614351,0.0,"{60: 1, 14: 2, 46: 2}","[14, 46, 60]",142462601,Nd1Si2Pd2
Sm(SiPd)2,mp-4275,0.0,5.82225452,0.0,"{62: 1, 14: 2, 46: 2}","[14, 46, 62]",142462621,Sm1Si2Pd2
Sm3(SiPd)2,mp-1208966,0.0,5.20099318,0.016869570476192308,"{62: 3, 14: 2, 46: 2}","[14, 46, 62]",142462623,Sm3Si2Pd2
Eu(SiPd)2,mp-20115,0.0,5.53294735,0.0,"{63: 1, 14: 2, 46: 2}","[14, 46, 63]",142462631,Eu1Si2Pd2
Gd(SiPd)2,mp-19753,0.0,5.88127043,0.0,"{64: 1, 14: 2, 46: 2}","[14, 46, 64]",142462641,Gd1Si2Pd2
Tb(SiPd)2,mp-4250,0.0,6.17288868,0.0,"{65: 1, 14: 2, 46: 2}","[14, 46, 65]",142462651,Tb1Si2Pd2
Dy(SiPd)2,mp-3301,0.0,6.02894999,0.0,"{66: 1, 14: 2, 46: 2}","[14, 46, 66]",142462661,Dy1Si2Pd2
Ho(SiPd)2,mp-4148,0.0,6.1666179,0.0,"{67: 1, 14: 2, 46: 2}","[14, 46, 67]",142462671,Ho1Si2Pd2
Er(SiPd)2,mp-3218,0.0,6.07152881,0.0,"{68: 1, 14: 2, 46: 2}","[14, 46, 68]",142462681,Er1Si2Pd2
Tm(SiPd)2,mp-571485,0.0,6.1371362,0.0,"{69: 1, 14: 2, 46: 2}","[14, 46, 69]",142462691,Tm1Si2Pd2
Lu(SiPd)2,mp-3507,0.0,6.06505373,0.0,"{71: 1, 14: 2, 46: 2}","[14, 46, 71]",142462711,Lu1Si2Pd2
Th(SiPd)2,mp-5508,0.0,7.59192116,0.0,"{90: 1, 14: 2, 46: 2}","[14, 46, 90]",142462901,Th1Si2Pd2
U(SiPd)2,mp-4793,0.0,8.72655733,0.0,"{92: 1, 14: 2, 46: 2}","[14, 46, 92]",142462921,U1Si2Pd2
Np(SiPd)2,mp-9042,0.0,8.85213964,0.0,"{93: 1, 14: 2, 46: 2}","[14, 46, 93]",142462931,Np1Si2Pd2
Pu(SiPd)2,mp-20047,0.0,8.9422145,0.0,"{94: 1, 14: 2, 46: 2}","[14, 46, 94]",142462941,Pu1Si2Pd2
Si2Pd9,mp-505071,0.0,5.66549297,0.0,"{14: 2, 46: 9}","[14, 46]",142469,Si2Pd9
LaSi2Ag,mp-1025390,0.0,7.85796674,0.0,"{57: 1, 14: 2, 47: 1}","[14, 47, 57]",142471571,La1Si2Ag1
CeSi2Ag,mp-1080480,0.0,7.57026617,0.0,"{58: 1, 14: 2, 47: 1}","[14, 47, 58]",142471581,Ce1Si2Ag1
PrSi2Ag,mp-1025554,0.0,6.30746657,0.0,"{59: 1, 14: 2, 47: 1}","[14, 47, 59]",142471591,Pr1Si2Ag1
NdSi2Ag,mp-1206055,0.0,6.16695483,0.0,"{60: 1, 14: 2, 47: 1}","[14, 47, 60]",142471601,Nd1Si2Ag1
La(SiAg)2,mp-16237,0.0,7.02297222,0.0038410246666655823,"{57: 1, 14: 2, 47: 2}","[14, 47, 57]",142472571,La1Si2Ag2
Ce(SiAg)2,mp-5605,0.0,6.94442795,0.035831257666666616,"{58: 1, 14: 2, 47: 2}","[14, 47, 58]",142472581,Ce1Si2Ag2
Pr(SiAg)2,mp-31203,0.0,5.83897745,0.002789522666665434,"{59: 1, 14: 2, 47: 2}","[14, 47, 59]",142472591,Pr1Si2Ag2
Nd(SiAg)2,mp-31204,0.0,5.7637208,0.0,"{60: 1, 14: 2, 47: 2}","[14, 47, 60]",142472601,Nd1Si2Ag2
Sm(SiAg)2,mp-567600,0.0,5.7070575,0.0,"{62: 1, 14: 2, 47: 2}","[14, 47, 62]",142472621,Sm1Si2Ag2
Eu(SiAg)2,mp-22653,0.0,4.83352068,0.0,"{63: 1, 14: 2, 47: 2}","[14, 47, 63]",142472631,Eu1Si2Ag2
Gd(SiAg)2,mp-21287,0.0,5.56994382,0.0,"{64: 1, 14: 2, 47: 2}","[14, 47, 64]",142472641,Gd1Si2Ag2
Tb(SiAg)2,mp-4614,0.0,5.88973237,0.0,"{65: 1, 14: 2, 47: 2}","[14, 47, 65]",142472651,Tb1Si2Ag2
Dy(SiAg)2,mp-1206850,0.0,5.86644834,0.0,"{66: 1, 14: 2, 47: 2}","[14, 47, 66]",142472661,Dy1Si2Ag2
La2InSi2,mp-1105259,0.0,8.12592253,0.0,"{57: 2, 49: 1, 14: 2}","[14, 49, 57]",142491572,La2In1Si2
Ce2Si2Sn,mp-1205534,0.0,8.58725095,0.0,"{58: 2, 14: 2, 50: 1}","[14, 50, 58]",142501582,Ce2Si2Sn1
Ce3Si2Sn3,mp-1213874,0.0,7.85768614,0.20447927268749932,"{58: 3, 14: 2, 50: 3}","[14, 50, 58]",142503583,Ce3Si2Sn3
Tb5(SiSb)2,mp-1208415,0.0,5.35211165,0.0,"{65: 5, 14: 2, 51: 2}","[14, 51, 65]",142512655,Tb5Si2Sb2
Dy5(SiSb)2,mp-1212829,0.0,5.36356734,0.0,"{66: 5, 14: 2, 51: 2}","[14, 51, 66]",142512665,Dy5Si2Sb2
Ho5(SiSb)2,mp-1212206,0.0,5.28585343,0.0,"{67: 5, 14: 2, 51: 2}","[14, 51, 67]",142512675,Ho5Si2Sb2
Er5(SiSb)2,mp-1213158,0.0,5.33519492,0.0,"{68: 5, 14: 2, 51: 2}","[14, 51, 68]",142512685,Er5Si2Sb2
Tm5(SiSb)2,mp-11749,0.0,5.32555827,0.0,"{69: 5, 14: 2, 51: 2}","[14, 51, 69]",142512695,Tm5Si2Sb2
Si2HgTe,mp-631331,0.0,6.54515691,0.7198140125000023,"{14: 2, 80: 1, 52: 1}","[14, 52, 80]",142521801,Si2Hg1Te1
Si2Bi14IrI12,mp-23615,0.0,4.22396068,0.18245431970114945,"{14: 2, 83: 14, 77: 1, 53: 12}","[14, 53, 77, 83]",14253127718314,Si2Bi14Ir1I12
LaSi2,mp-2062,0.0,8.95283268,0.0,"{57: 1, 14: 2}","[14, 57]",142571,La1Si2
LaCeSi2,mp-1223099,0.0,8.65299379,0.041015385625001954,"{57: 1, 58: 1, 14: 2}","[14, 57, 58]",142571581,La1Ce1Si2
La(ReSi)2,mp-612861,0.0,8.17259766,0.0,"{57: 1, 75: 2, 14: 2}","[14, 57, 75]",142571752,La1Re2Si2
La(SiOs)2,mp-567203,0.0,8.71836421,0.0,"{57: 1, 14: 2, 76: 2}","[14, 57, 76]",142571762,La1Si2Os2
La(SiIr)2,mp-3585,0.0,9.67564084,0.0,"{57: 1, 14: 2, 77: 2}","[14, 57, 77]",142571772,La1Si2Ir2
LaSi2Pt,mp-4283,0.0,8.76492351,0.0,"{57: 1, 14: 2, 78: 1}","[14, 57, 78]",142571781,La1Si2Pt1
La(SiPt)2,mp-1080606,0.0,8.69955576,0.0,"{57: 1, 14: 2, 78: 2}","[14, 57, 78]",142571782,La1Si2Pt2
La(SiAu)2,mp-11859,0.0,8.09514123,0.0,"{57: 1, 14: 2, 79: 2}","[14, 57, 79]",142571792,La1Si2Au2
La3Si2,mp-10162,0.0,8.01027986,0.003003086900001506,"{57: 3, 14: 2}","[14, 57]",142573,La3Si2
CeSi2,mp-1898,0.0,8.77943914,0.0,"{58: 1, 14: 2}","[14, 58]",142581,Ce1Si2
CeNdSi2,mp-1226607,0.0,6.52007598,0.004110998749997208,"{58: 1, 60: 1, 14: 2}","[14, 58, 60]",142581601,Ce1Nd1Si2
Ce(Re2Si)2,mp-27861,0.0,7.82020114,0.0,"{58: 1, 75: 4, 14: 2}","[14, 58, 75]",142581754,Ce1Re4Si2
Ce(SiOs)2,mp-4767,0.0,8.52787016,0.0,"{58: 1, 14: 2, 76: 2}","[14, 58, 76]",142581762,Ce1Si2Os2
CeSi2Ir,mp-1079402,0.0,8.63336054,0.0,"{58: 1, 14: 2, 77: 1}","[14, 58, 77]",142581771,Ce1Si2Ir1
Ce(SiIr)2,mp-21900,0.0,9.16477642,0.0,"{58: 1, 14: 2, 77: 2}","[14, 58, 77]",142581772,Ce1Si2Ir2
CeSi2Ir3,mp-13475,0.0,9.81592116,0.0,"{58: 1, 14: 2, 77: 3}","[14, 58, 77]",142581773,Ce1Si2Ir3
CeSi2Pt,mp-3284,0.0,8.32442654,0.0,"{58: 1, 14: 2, 78: 1}","[14, 58, 78]",142581781,Ce1Si2Pt1
Ce(SiPt)2,mp-22438,0.0,8.66381406,0.0,"{58: 1, 14: 2, 78: 2}","[14, 58, 78]",142581782,Ce1Si2Pt2
Ce(SiAu)2,mp-5173,0.0,7.89476372,0.0,"{58: 1, 14: 2, 79: 2}","[14, 58, 79]",142581792,Ce1Si2Au2
Ce(SiAu2)2,mp-569496,0.0,6.91060253,0.0,"{58: 1, 14: 2, 79: 4}","[14, 58, 79]",142581794,Ce1Si2Au4
Ce3Si2,mp-1079007,0.0,7.9412962,0.010537909499998221,"{58: 3, 14: 2}","[14, 58]",142583,Ce3Si2
PrSi2,mp-27760,0.0,7.06417817,0.0,"{59: 1, 14: 2}","[14, 59]",142591,Pr1Si2
Pr(Re2Si)2,mp-1025309,0.0,6.74224519,0.0,"{59: 1, 75: 4, 14: 2}","[14, 59, 75]",142591754,Pr1Re4Si2
Pr(SiOs)2,mp-5852,0.0,7.01200125,0.0,"{59: 1, 14: 2, 76: 2}","[14, 59, 76]",142591762,Pr1Si2Os2
PrSi2Ir3,mp-1209310,0.0,8.29466549,0.0,"{59: 1, 14: 2, 77: 3}","[14, 59, 77]",142591773,Pr1Si2Ir3
Pr(SiPt)2,mp-567338,0.0,7.0358954,0.0,"{59: 1, 14: 2, 78: 2}","[14, 59, 78]",142591782,Pr1Si2Pt2
Pr(SiAu)2,mp-31202,0.0,6.81431035,0.0,"{59: 1, 14: 2, 79: 2}","[14, 59, 79]",142591792,Pr1Si2Au2
Pr3Si2,mp-1079937,0.0,4.64219176,0.0,"{59: 3, 14: 2}","[14, 59]",142593,Pr3Si2
NdSi2,mp-884,0.0,6.84464515,0.0,"{60: 1, 14: 2}","[14, 60]",142601,Nd1Si2
Nd(Re2Si)2,mp-505513,0.0,6.81581261,0.0,"{60: 1, 75: 4, 14: 2}","[14, 60, 75]",142601754,Nd1Re4Si2
Nd(SiOs)2,mp-571586,0.0,6.99065953,0.0,"{60: 1, 14: 2, 76: 2}","[14, 60, 76]",142601762,Nd1Si2Os2
Nd(SiIr)2,mp-567130,0.0,8.11015876,0.0,"{60: 1, 14: 2, 77: 2}","[14, 60, 77]",142601772,Nd1Si2Ir2
NdSi2Ir3,mp-1209840,0.0,8.2372132,0.0,"{60: 1, 14: 2, 77: 3}","[14, 60, 77]",142601773,Nd1Si2Ir3
Nd(SiPt)2,mp-1084815,0.0,7.19179325,0.0,"{60: 1, 14: 2, 78: 2}","[14, 60, 78]",142601782,Nd1Si2Pt2
Nd(SiAu)2,mp-5057,0.0,6.84191371,0.0,"{60: 1, 14: 2, 79: 2}","[14, 60, 79]",142601792,Nd1Si2Au2
SmSi2,mp-13955,0.0,6.73100186,0.0,"{62: 1, 14: 2}","[14, 62]",142621,Sm1Si2
Sm(Re2Si)2,mp-1104658,0.0,7.02955256,0.0,"{62: 1, 75: 4, 14: 2}","[14, 62, 75]",142621754,Sm1Re4Si2
Sm(SiOs)2,mp-567408,0.0,6.94024009,0.0,"{62: 1, 14: 2, 76: 2}","[14, 62, 76]",142621762,Sm1Si2Os2
Sm(SiIr)2,mp-12097,0.0,8.03859972,0.0,"{62: 1, 14: 2, 77: 2}","[14, 62, 77]",142621772,Sm1Si2Ir2
Sm(SiPt)2,mp-10298,0.0,7.10874531,0.0,"{62: 1, 14: 2, 78: 2}","[14, 62, 78]",142621782,Sm1Si2Pt2
Sm(SiAu)2,mp-13466,0.0,6.77653213,0.0,"{62: 1, 14: 2, 79: 2}","[14, 62, 79]",142621792,Sm1Si2Au2
Sm3(SiIr)2,mp-29989,0.0,5.74415424,0.0,"{62: 3, 14: 2, 77: 2}","[14, 62, 77]",142623772,Sm3Si2Ir2
Mn15Si26,mp-752,0.0,9.60488475,0.004928698069107895,"{25: 15, 14: 26}","[14, 25]",14262515,Mn15Si26
EuSi2,mp-1072248,0.0,5.86239349,0.0,"{63: 1, 14: 2}","[14, 63]",142631,Eu1Si2
Eu(SiIr)2,mp-21849,0.0,7.47950299,0.0,"{63: 1, 14: 2, 77: 2}","[14, 63, 77]",142631772,Eu1Si2Ir2
EuSi2Pt,mp-1212688,0.0,6.16812962,0.0,"{63: 1, 14: 2, 78: 1}","[14, 63, 78]",142631781,Eu1Si2Pt1
Eu(SiPt)2,mp-1076931,0.0,6.55117814,0.0,"{63: 1, 14: 2, 78: 2}","[14, 63, 78]",142631782,Eu1Si2Pt2
Eu(SiAu)2,mp-21229,0.0,5.80758737,0.0,"{63: 1, 14: 2, 79: 2}","[14, 63, 79]",142631792,Eu1Si2Au2
GdSi2,mp-21192,0.0,6.73076708,0.0,"{64: 1, 14: 2}","[14, 64]",142641,Gd1Si2
Gd(Re2Si)2,mp-1105253,0.0,7.08112088,0.0,"{64: 1, 75: 4, 14: 2}","[14, 64, 75]",142641754,Gd1Re4Si2
Gd(SiOs)2,mp-21408,0.0,6.98101355,0.0,"{64: 1, 14: 2, 76: 2}","[14, 64, 76]",142641762,Gd1Si2Os2
Gd(SiIr)2,mp-20700,0.0,7.9405471,0.5832888170999979,"{64: 1, 14: 2, 77: 2}","[14, 64, 77]",142641772,Gd1Si2Ir2
Gd(SiPt)2,mp-637220,0.0,7.16591466,0.0,"{64: 1, 14: 2, 78: 2}","[14, 64, 78]",142641782,Gd1Si2Pt2
Gd(SiAu)2,mp-22615,0.0,6.59673339,0.0,"{64: 1, 14: 2, 79: 2}","[14, 64, 79]",142641792,Gd1Si2Au2
TbSi2,mp-1077398,0.0,7.03248766,0.02558120916666695,"{65: 1, 14: 2}","[14, 65]",142651,Tb1Si2
Tb(SiOs)2,mp-5429,0.0,7.11750372,0.0,"{65: 1, 14: 2, 76: 2}","[14, 65, 76]",142651762,Tb1Si2Os2
Tb(SiIr)2,mp-5752,0.0,8.17390356,0.0,"{65: 1, 14: 2, 77: 2}","[14, 65, 77]",142651772,Tb1Si2Ir2
Tb(SiPt)2,mp-569737,0.0,7.19029892,0.0,"{65: 1, 14: 2, 78: 2}","[14, 65, 78]",142651782,Tb1Si2Pt2
Tb(SiAu)2,mp-569577,0.0,6.96771319,0.0,"{65: 1, 14: 2, 79: 2}","[14, 65, 79]",142651792,Tb1Si2Au2
DySi2,mp-12770,0.0,6.97039949,0.08255008983333667,"{66: 1, 14: 2}","[14, 66]",142661,Dy1Si2
Dy(SiOs)2,mp-12088,0.0,7.10040965,0.0,"{66: 1, 14: 2, 76: 2}","[14, 66, 76]",142661762,Dy1Si2Os2
Dy(SiIr)2,mp-4065,0.0,8.17668794,0.0,"{66: 1, 14: 2, 77: 2}","[14, 66, 77]",142661772,Dy1Si2Ir2
Dy(SiPt)2,mp-1080061,0.0,7.38055765,0.0,"{66: 1, 14: 2, 78: 2}","[14, 66, 78]",142661782,Dy1Si2Pt2
Dy(SiAu)2,mp-2954,0.0,6.95819223,0.0,"{66: 1, 14: 2, 79: 2}","[14, 66, 79]",142661792,Dy1Si2Au2
HoSi2,mp-1077147,0.0,6.82809253,0.07827525833333482,"{67: 1, 14: 2}","[14, 67]",142671,Ho1Si2
Ho(SiOs)2,mp-5219,0.0,7.04700159,0.0,"{67: 1, 14: 2, 76: 2}","[14, 67, 76]",142671762,Ho1Si2Os2
Ho(SiIr)2,mp-567513,0.0,8.22151849,0.0,"{67: 1, 14: 2, 77: 2}","[14, 67, 77]",142671772,Ho1Si2Ir2
Ho(SiPt)2,mp-16377,0.0,7.3004278,0.0,"{67: 1, 14: 2, 78: 2}","[14, 67, 78]",142671782,Ho1Si2Pt2
Ho(SiAu)2,mp-569013,0.0,6.93465549,0.0,"{67: 1, 14: 2, 79: 2}","[14, 67, 79]",142671792,Ho1Si2Au2
ErSi2,mp-1077267,0.0,6.82850501,0.07016696666666533,"{68: 1, 14: 2}","[14, 68]",142681,Er1Si2
Er(SiOs)2,mp-3958,0.0,7.06847865,0.0,"{68: 1, 14: 2, 76: 2}","[14, 68, 76]",142681762,Er1Si2Os2
Er(SiIr)2,mp-3907,0.0,8.18495728,0.0,"{68: 1, 14: 2, 77: 2}","[14, 68, 77]",142681772,Er1Si2Ir2
Er(SiPt)2,mp-1079518,0.0,7.32404479,0.0,"{68: 1, 14: 2, 78: 2}","[14, 68, 78]",142681782,Er1Si2Pt2
Er(SiAu)2,mp-3147,0.0,6.94322884,0.019902354000006284,"{68: 1, 14: 2, 79: 2}","[14, 68, 79]",142681792,Er1Si2Au2
TmSi2,mp-772,0.0,6.76373791,0.09862506833333384,"{69: 1, 14: 2}","[14, 69]",142691,Tm1Si2
Tm(SiOs)2,mp-570217,0.0,7.04129,0.0,"{69: 1, 14: 2, 76: 2}","[14, 69, 76]",142691762,Tm1Si2Os2
Tm(SiPt)2,mp-7108,0.0,7.19481097,0.0,"{69: 1, 14: 2, 78: 2}","[14, 69, 78]",142691782,Tm1Si2Pt2
LuSi2,mp-1103,0.0,6.76886105,0.12804713666666956,"{71: 1, 14: 2}","[14, 71]",142711,Lu1Si2
Lu(SiOs)2,mp-12101,0.0,7.0164099,0.0,"{71: 1, 14: 2, 76: 2}","[14, 71, 76]",142711762,Lu1Si2Os2
Lu(SiPt)2,mp-7109,0.0,7.15269593,0.020590494499991507,"{71: 1, 14: 2, 78: 2}","[14, 71, 78]",142711782,Lu1Si2Pt2
HfSi2,mp-1069,0.0,8.34564161,0.011539529166668672,"{72: 1, 14: 2}","[14, 72]",142721,Hf1Si2
HfReSi2,mp-21569,0.0,8.27224578,0.03812861651785582,"{72: 1, 75: 1, 14: 2}","[14, 72, 75]",142721751,Hf1Re1Si2
Hf3Si2,mp-2105,0.0,6.47767337,0.0,"{72: 3, 14: 2}","[14, 72]",142723,Hf3Si2
TaSi2,mp-11192,0.0,9.28798202,0.0,"{73: 1, 14: 2}","[14, 73]",142731,Ta1Si2
Si2W,mp-1620,0.0,10.16406565,0.0,"{14: 2, 74: 1}","[14, 74]",142741,Si2W1
Si2W3,mp-1079377,0.0,9.01315848,0.23805510900000115,"{14: 2, 74: 3}","[14, 74]",142743,Si2W3
ReSi2,mp-12605,0.0,11.08904394,0.19829224458333172,"{75: 1, 14: 2}","[14, 75]",142751,Re1Si2
Th(Re2Si)2,mp-505429,0.0,8.0906864,0.0,"{90: 1, 75: 4, 14: 2}","[14, 75, 90]",142754901,Th1Re4Si2
Si2Os,mp-17123,0.6496999999999993,9.39199799,0.0,"{14: 2, 76: 1}","[14, 76]",142761,Si2Os1
Th(SiOs)2,mp-3166,0.0,8.57799335,0.0,"{90: 1, 14: 2, 76: 2}","[14, 76, 90]",142762901,Th1Si2Os2
U(SiOs)2,mp-5786,0.0,9.73129256,0.0,"{92: 1, 14: 2, 76: 2}","[14, 76, 92]",142762921,U1Si2Os2
Np(SiOs)2,mp-9033,0.0,9.89177709,0.0,"{93: 1, 14: 2, 76: 2}","[14, 76, 93]",142762931,Np1Si2Os2
Pu(SiOs)2,mp-21225,0.0,9.94325967,0.0,"{94: 1, 14: 2, 76: 2}","[14, 76, 94]",142762941,Pu1Si2Os2
Si2Ir,mp-1206741,0.0,8.96045621,0.058270887638890656,"{14: 2, 77: 1}","[14, 77]",142771,Si2Ir1
Th(SiIr)2,mp-1080037,0.0,9.06123696,0.0,"{90: 1, 14: 2, 77: 2}","[14, 77, 90]",142772901,Th1Si2Ir2