formula,material_id,band_gap,efermi,energy_above_hull,comp_atoms,sorted_keys_comp_atoms,comp_number,new_formula
Ho3Co2Si7,mp-1212314,0.0,7.00990266,0.018354277666666086,"{67: 3, 27: 2, 14: 7}","[14, 27, 67]",147272673,Ho3Co2Si7
U3Co2Si7,mp-1103185,0.0,10.30428408,0.0,"{92: 3, 27: 2, 14: 7}","[14, 27, 92]",147272923,U3Co2Si7
Nb4Co3Si7,mp-1220933,0.0,8.3588016,0.20286725476190082,"{41: 4, 27: 3, 14: 7}","[14, 27, 41]",147273414,Nb4Co3Si7
Zr4Co4Si7,mp-1194045,0.0,7.87305235,0.0,"{40: 4, 27: 4, 14: 7}","[14, 27, 40]",147274404,Zr4Co4Si7
Nb4Co4Si7,mp-984586,0.0,8.43539878,0.0,"{41: 4, 27: 4, 14: 7}","[14, 27, 41]",147274414,Nb4Co4Si7
Hf4Co4Si7,mp-976184,0.0,8.23264394,0.0,"{72: 4, 27: 4, 14: 7}","[14, 27, 72]",147274724,Hf4Co4Si7
Ta4Co4Si7,mp-1192706,0.0,8.92500367,0.0,"{73: 4, 27: 4, 14: 7}","[14, 27, 73]",147274734,Ta4Co4Si7
K2SiH4(NO)2,mp-697910,3.7996,0.31385142,0.0,"{19: 2, 14: 1, 1: 4, 7: 2, 8: 2}","[1, 7, 8, 14, 19]",147282141192,K2Si1H4N2O2
Si7Ge,mp-1094056,0.4266999999999994,5.53998032,0.0031988031250005378,"{14: 7, 32: 1}","[14, 32]",147321,Si7Ge1
La6Si7Br3,mp-29560,0.0,7.26028745,0.0,"{57: 6, 14: 7, 35: 3}","[14, 35, 57]",147353576,La6Si7Br3
Si7Tc4,mp-1203760,1.0648,10.93376325,0.0,"{14: 7, 43: 4}","[14, 43]",147434,Si7Tc4
U2Si7Ru12,mp-1208764,0.0,9.90698619,0.0,"{92: 2, 14: 7, 44: 12}","[14, 44, 92]",1474412922,U2Si7Ru12
Ce2Si7Rh15,mp-628614,0.0,8.2197624,0.0,"{58: 2, 14: 7, 45: 15}","[14, 45, 58]",1474515582,Ce2Si7Rh15
Nd6Cd5Si7,mp-1220271,0.0,4.82437961,0.05200868389730573,"{60: 6, 48: 5, 14: 7}","[14, 48, 60]",147485606,Nd6Cd5Si7
Ce2Si7,mp-1079241,0.0,9.64268133,0.09605580555555626,"{58: 2, 14: 7}","[14, 58]",147582,Ce2Si7
Nd4Si7,mp-1220187,0.0,6.11708744,0.007644316818183228,"{60: 4, 14: 7}","[14, 60]",147604,Nd4Si7
Tb4Si7,mp-1217739,0.0,6.47030732,0.009903245000000283,"{65: 4, 14: 7}","[14, 65]",147654,Tb4Si7
Re4Si7,mp-1190581,0.05030000000000001,9.75421994,0.0,"{75: 4, 14: 7}","[14, 75]",147754,Re4Si7
U2Si(H2O5)2,mp-23994,1.8967999999999998,1.02315425,0.04386155980391848,"{92: 2, 14: 1, 1: 4, 8: 10}","[1, 8, 14, 92]",14810141922,U2Si1H4O10
SrMn2Si2(H2O5)2,mp-1218288,0.8719999999999999,3.37048162,0.01998772387061898,"{38: 1, 25: 2, 14: 2, 1: 4, 8: 10}","[1, 8, 14, 25, 38]",14810142252381,Sr1Mn2Si2H4O10
KNaZrSi3H4O11,mp-773906,4.920400000000001,0.01197899,0.0,"{19: 1, 11: 1, 40: 1, 14: 3, 1: 4, 8: 11}","[1, 8, 11, 14, 19, 40]",14811111143191401,K1Na1Zr1Si3H4O11
CaZrSi3H4O11,mp-1227600,4.6716999999999995,5.1126183,0.023649949791663794,"{20: 1, 40: 1, 14: 3, 1: 4, 8: 11}","[1, 8, 14, 20, 40]",14811143201401,Ca1Zr1Si3H4O11
Na2Ga2Si3(HO3)4,mp-1173829,3.6402,0.00205944,0.0017438470652209048,"{11: 2, 31: 2, 14: 3, 1: 4, 8: 12}","[1, 8, 11, 14, 31]",14812112143312,Na2Ga2Si3H4O12
MgU2Si2(HO3)4,mp-1211032,0.33740000000000014,2.1243987,0.20538525219576087,"{12: 1, 92: 2, 14: 2, 1: 4, 8: 12}","[1, 8, 12, 14, 92]",14812121142922,Mg1U2Si2H4O12
CaU2Si2(HO3)4,mp-1215077,0.05569999999999986,2.51291998,0.23031772551586993,"{20: 1, 92: 2, 14: 2, 1: 4, 8: 12}","[1, 8, 14, 20, 92]",14812142201922,Ca1U2Si2H4O12
Na2TiSi4H4O13,mp-1200866,4.1008,0.02535697,0.005323224583333008,"{11: 2, 22: 1, 14: 4, 1: 4, 8: 13}","[1, 8, 11, 14, 22]",14813112144221,Na2Ti1Si4H4O13
Na2ZrSi4H4O13,mp-1210375,4.9217,0.27761763,0.0008443512499987094,"{11: 2, 40: 1, 14: 4, 1: 4, 8: 13}","[1, 8, 11, 14, 40]",14813112144401,Na2Zr1Si4H4O13
Ca3(Si4P7)2,mp-1195188,1.2361000000000004,6.39838617,0.0,"{20: 3, 14: 8, 15: 14}","[14, 15, 20]",1481514203,Ca3Si8P14
La9Ce3Si8(S8I)4,mp-1225117,0.4765000000000006,5.52386664,0.007294648482143451,"{57: 9, 58: 3, 14: 8, 16: 32, 53: 4}","[14, 16, 53, 57, 58]",1481632534579583,La9Ce3Si8S32I4
CaZrSi6H4O17,mp-1194879,4.8014,5.0952674,0.013144724166667565,"{20: 1, 40: 1, 14: 6, 1: 4, 8: 17}","[1, 8, 14, 20, 40]",14817146201401,Ca1Zr1Si6H4O17
Mg10Si3(H2O9)2,mp-695890,4.950699999999999,3.18154011,0.03271601199999985,"{12: 10, 14: 3, 1: 4, 8: 18}","[1, 8, 12, 14]",148181210143,Mg10Si3H4O18
K7(Si2Te5)4,mp-676920,0.0,2.43352347,0.09154277330612359,"{19: 7, 14: 8, 52: 20}","[14, 19, 52]",1481975220,K7Si8Te20
Sr3CaSi8,mp-1218331,0.0,5.44732289,0.016917204583334566,"{38: 3, 20: 1, 14: 8}","[14, 20, 38]",148201383,Sr3Ca1Si8
CaLa3Si8,mp-1227076,0.0,8.12627305,0.0084666233333337,"{20: 1, 57: 3, 14: 8}","[14, 20, 57]",148201573,Ca1La3Si8
Ca3LaSi8,mp-1227663,0.0,6.74714255,0.003043616666667859,"{20: 3, 57: 1, 14: 8}","[14, 20, 57]",148203571,Ca3La1Si8
HfSc3Si8,mp-1224342,0.0,7.29406734,0.030667269583332768,"{72: 1, 21: 3, 14: 8}","[14, 21, 72]",148213721,Hf1Sc3Si8
Nb4Cr7Si8,mp-1220824,0.0,8.30008989,0.01436890159672366,"{41: 4, 24: 7, 14: 8}","[14, 24, 41]",148247414,Nb4Cr7Si8
Ta4Cr7Si8,mp-1218263,0.0,8.5636871,0.013699215063159187,"{73: 4, 24: 7, 14: 8}","[14, 24, 73]",148247734,Ta4Cr7Si8
Nb3(CrSi)8,mp-1198196,0.0,8.39497164,0.02989902125177224,"{41: 3, 24: 8, 14: 8}","[14, 24, 41]",148248413,Nb3Cr8Si8
Ta3(CrSi)8,mp-1200627,0.0,8.66003743,0.011950297047373937,"{73: 3, 24: 8, 14: 8}","[14, 24, 73]",148248733,Ta3Cr8Si8
Mn6Si8Mo5,mp-1211554,0.0,9.34186954,0.0,"{25: 6, 14: 8, 42: 5}","[14, 25, 42]",148256425,Mn6Si8Mo5
Mn7(Si2Mo)4,mp-1222189,0.0,9.20478412,0.0026263066447373973,"{25: 7, 14: 8, 42: 4}","[14, 25, 42]",148257424,Mn7Si8Mo4
Mn8Si8Mo3,mp-1197207,0.0,9.07558675,0.010592255657895677,"{25: 8, 14: 8, 42: 3}","[14, 25, 42]",148258423,Mn8Si8Mo3
CaSiH4(OF3)2,mp-1198120,6.5428999999999995,-1.47389646,0.0,"{20: 1, 14: 1, 1: 4, 8: 2, 9: 6}","[1, 8, 9, 14, 20]",148296141201,Ca1Si1H4O2F6
Na4Ca7MnSi12(HO9)4,mp-1221263,4.1171,2.20879538,3.593266927204297e-05,"{11: 4, 20: 7, 25: 1, 14: 12, 1: 4, 8: 36}","[1, 8, 11, 14, 20, 25]",148361141412207251,Na4Ca7Mn1Si12H4O36
Re2Si8MoW,mp-1219131,0.0,10.98013595,0.09386283312499888,"{75: 2, 14: 8, 42: 1, 74: 1}","[14, 42, 74, 75]",148421741752,Re2Si8Mo1W1
K3Ca2Mg10Si16(HO12)4,mp-1260618,0.9773999999999998,4.11740501,0.4212260225884812,"{19: 3, 20: 2, 12: 10, 14: 16, 1: 4, 8: 48}","[1, 8, 12, 14, 19, 20]",1484812101416193202,K3Ca2Mg10Si16H4O48
CeNd3Si8,mp-1226596,0.0,7.21698586,0.0036302262499994242,"{58: 1, 60: 3, 14: 8}","[14, 58, 60]",148581603,Ce1Nd3Si8
Mn2Si(H2O3)2,mp-726397,2.299,2.47710989,0.010750467500000305,"{25: 2, 14: 1, 1: 4, 8: 6}","[1, 8, 14, 25]",1486141252,Mn2Si1H4O6
NaTi2SiH4O9,mp-1180541,0.0,0.17567641,0.2917765169117743,"{11: 1, 22: 2, 14: 1, 1: 4, 8: 9}","[1, 8, 11, 14, 22]",1489111141222,Na1Ti2Si1H4O9
Mg3Si2H4O9,mp-24097,4.2476,1.36514854,0.0,"{12: 3, 14: 2, 1: 4, 8: 9}","[1, 8, 12, 14]",1489123142,Mg3Si2H4O9
Ca11Si9As16,mp-1227537,0.5669,3.98267675,0.043727770995371174,"{20: 11, 14: 9, 33: 16}","[14, 20, 33]",14920113316,Ca11Si9As16
K15Si92,mp-1224497,0.0,6.18990045,0.05827078497663507,"{19: 15, 14: 92}","[14, 19]",14921915,K15Si92
Nd20(Si3Ru)3,mp-1220608,0.0,4.65608801,0.01538693169744576,"{60: 20, 14: 9, 44: 3}","[14, 44, 60]",1494436020,Nd20Si9Ru3
Ce4(Si3Rh)3,mp-1226886,0.0,8.50978257,0.04210954937500677,"{58: 4, 14: 9, 45: 3}","[14, 45, 58]",149453584,Ce4Si9Rh3
Er4Si9Ir13,mp-510706,0.0,8.3533755,0.0,"{68: 4, 14: 9, 77: 13}","[14, 68, 77]",1496847713,Er4Si9Ir13
U5Re5Si9,mp-5599,0.0,10.34058694,0.03966605413533841,"{92: 5, 75: 5, 14: 9}","[14, 75, 92]",149755925,U5Re5Si9
Na3SiH5O6,mp-703468,3.8850999999999996,0.25863843,0.007029467583341997,"{11: 3, 14: 1, 1: 5, 8: 6}","[1, 8, 11, 14]",1586113141,Na3Si1H5O6
Mg45Si32(H29O69)2,mp-1204533,4.3201,1.37604826,0.0,"{12: 45, 14: 32, 1: 58, 8: 138}","[1, 8, 12, 14]",158813812451432,Mg45Si32H58O138
Cs2TlSiH6,mp-989560,0.0,3.86657882,0.012647427166667669,"{55: 2, 81: 1, 14: 1, 1: 6}","[1, 14, 55, 81]",16141552811,Cs2Tl1Si1H6
Si2H6S,mp-29309,4.4871,-1.68848331,0.0,"{14: 2, 1: 6, 16: 1}","[1, 14, 16]",16142161,Si2H6S1
Si2H6Se,mp-29310,3.7464000000000004,-1.4496604,0.0,"{14: 2, 1: 6, 34: 1}","[1, 14, 34]",16142341,Si2H6Se1
Mg48Si34H62O147,mp-1205288,4.287100000000001,1.41083234,2.1985206090313625e-05,"{12: 48, 14: 34, 1: 62, 8: 147}","[1, 8, 12, 14]",162814712481434,Mg48Si34H62O147
K3Si6H6N11,mp-1212001,3.1132999999999997,2.58837047,0.0,"{19: 3, 14: 6, 1: 6, 7: 11}","[1, 7, 14, 19]",16711146193,K3Si6H6N11
SiH6(NF2)2,mp-643277,6.4284,-2.81882257,0.0,"{14: 1, 1: 6, 7: 2, 9: 4}","[1, 7, 9, 14]",167294141,Si1H6N2F4
SiH6(NF3)2,mp-1196212,7.129300000000001,-1.61884995,0.051804980444442705,"{14: 1, 1: 6, 7: 2, 9: 6}","[1, 7, 9, 14]",167296141,Si1H6N2F6
Ca3Si2(H3O5)2,mp-696156,4.856300000000001,1.25496274,0.006794938968248232,"{20: 3, 14: 2, 1: 6, 8: 10}","[1, 8, 14, 20]",16810142203,Ca3Si2H6O10
Si2H6O,mp-27949,5.2626,-2.84510086,0.045792779166667685,"{14: 2, 1: 6, 8: 1}","[1, 8, 14]",1681142,Si2H6O1
Ca6Si2H6O13,mp-697022,3.4957,0.79961982,0.006356209537047519,"{20: 6, 14: 2, 1: 6, 8: 13}","[1, 8, 14, 20]",16813142206,Ca6Si2H6O13
Mg7Si2(H3O7)2,mp-1180494,4.5577000000000005,2.21891027,0.0008753127586187404,"{12: 7, 14: 2, 1: 6, 8: 14}","[1, 8, 12, 14]",16814127142,Mg7Si2H6O14
CaVSi4(H2O5)3,mp-1201439,0.6960999999999999,0.73826802,0.12001472677469138,"{20: 1, 23: 1, 14: 4, 1: 6, 8: 15}","[1, 8, 14, 20, 23]",16815144201231,Ca1V1Si4H6O15
Mg4Si6H6O17,mp-1212371,0.0,-0.83160859,0.7107195148484662,"{12: 4, 14: 6, 1: 6, 8: 17}","[1, 8, 12, 14]",16817124146,Mg4Si6H6O17
Ca2Mn2Si4H6O17,mp-1248954,0.07420000000000004,1.47424083,0.05712273330644191,"{20: 2, 25: 2, 14: 4, 1: 6, 8: 17}","[1, 8, 14, 20, 25]",16817144202252,Ca2Mn2Si4H6O17
Na2ZrSi6(HO3)6,mp-1194692,4.9411000000000005,0.50710102,0.008442724797974144,"{11: 2, 40: 1, 14: 6, 1: 6, 8: 18}","[1, 8, 11, 14, 40]",16818112146401,Na2Zr1Si6H6O18
Na2CaSi10(H3O10)2,mp-1210899,1.4613999999999998,3.23451915,0.2878083143376031,"{11: 2, 20: 1, 14: 10, 1: 6, 8: 20}","[1, 8, 11, 14, 20]",168201121410201,Na2Ca1Si10H6O20
MgSi(HO)6,mp-1193955,5.5255,1.62866485,0.06249390008077693,"{12: 1, 14: 1, 1: 6, 8: 6}","[1, 8, 12, 14]",1686121141,Mg1Si1H6O6
Ti2Si(H2O3)3,mp-1203710,2.8953,-0.22445937,0.038239867916667336,"{22: 2, 14: 1, 1: 6, 8: 9}","[1, 8, 14, 22]",1689141222,Ti2Si1H6O9
SiH7N2F5,mp-1219374,7.1042000000000005,4.12186861,0.0,"{14: 1, 1: 7, 7: 2, 9: 5}","[1, 7, 9, 14]",177295141,Si1H7N2F5
NaSi8H7O20,mp-1197746,4.3225999999999996,-3.92832656,0.048940399999995776,"{11: 1, 14: 8, 1: 7, 8: 20}","[1, 8, 11, 14]",17820111148,Na1Si8H7O20
NaSi2H7O8,mp-1221121,4.9156,3.87355671,0.02358960638889407,"{11: 1, 14: 2, 1: 7, 8: 8}","[1, 8, 11, 14]",1788111142,Na1Si2H7O8
SiH8,mp-1188318,7.028499999999999,-4.65125577,0.0015423041666666748,"{14: 1, 1: 8}","[1, 14]",18141,Si1H8
Si(PH2)4,mp-29549,3.9290000000000003,-1.23856582,0.0,"{14: 1, 15: 4, 1: 8}","[1, 14, 15]",18141154,Si1P4H8
Si5(H2Cl)4,mp-1188581,3.7183,-0.53572694,0.13752079955882301,"{14: 5, 1: 8, 17: 4}","[1, 14, 17]",18145174,Si5H8Cl4
Na2BeSi4(H4O7)2,mp-1198346,5.3614999999999995,5.33732204,0.018280495977001543,"{11: 2, 4: 1, 14: 4, 1: 8, 8: 14}","[1, 4, 8, 11, 14]",1841814112144,Na2Be1Si4H8O14
SiH8(NF3)2,mp-759722,6.4741,-2.12874337,0.0,"{14: 1, 1: 8, 7: 2, 9: 6}","[1, 7, 9, 14]",187296141,Si1H8N2F6
CaVSi4H8O15,mp-1198008,3.1778999999999997,0.96569116,0.03383902534481731,"{20: 1, 23: 1, 14: 4, 1: 8, 8: 15}","[1, 8, 14, 20, 23]",18815144201231,Ca1V1Si4H8O15
Ca2Mn2Si4H8O17,mp-1195231,1.2933000000000001,3.18173385,0.03845653874577071,"{20: 2, 25: 2, 14: 4, 1: 8, 8: 17}","[1, 8, 14, 20, 25]",18817144202252,Ca2Mn2Si4H8O17
CrSiH8(O2F3)2,mp-1196749,0.03200000000000003,2.19161407,0.0,"{24: 1, 14: 1, 1: 8, 8: 4, 9: 6}","[1, 8, 9, 14, 24]",188496141241,Cr1Si1H8O4F6
Si3PH9,mp-28842,4.2301,-1.49638848,0.0006522017628194376,"{14: 3, 15: 1, 1: 9}","[1, 14, 15]",19143151,Si3P1H9
Si3H9N,mp-24026,4.1831,-1.47475377,0.021834889807689883,"{14: 3, 1: 9, 7: 1}","[1, 7, 14]",1971143,Si3H9N1
HeSiO2,mp-1143773,6.6052,-0.50922885,0.022063484374998943,"{2: 1, 14: 1, 8: 2}","[2, 8, 14]",2182141,He1Si1O2
BeSiP2,mp-1009085,0.8007,5.27498942,0.0,"{4: 1, 14: 1, 15: 2}","[4, 14, 15]",41141152,Be1Si1P2
CaBeSi,mp-1227218,0.0,4.11515501,0.047223444743589305,"{20: 1, 4: 1, 14: 1}","[4, 14, 20]",41141201,Ca1Be1Si1
BeCo2Si,mp-865901,0.0,8.41015446,0.0,"{4: 1, 27: 2, 14: 1}","[4, 14, 27]",41141272,Be1Co2Si1
BeSiAs2,mp-1009087,1.0226000000000006,4.40342348,0.0,"{4: 1, 14: 1, 33: 2}","[4, 14, 33]",41141332,Be1Si1As2
SrBeSi,mp-1218354,0.0,3.66896289,0.05701762333333393,"{38: 1, 4: 1, 14: 1}","[4, 14, 38]",41141381,Sr1Be1Si1
ZrBeSi,mp-10200,0.0,6.36478443,0.0,"{40: 1, 4: 1, 14: 1}","[4, 14, 40]",41141401,Zr1Be1Si1
BeSiTc2,mp-1093711,0.262,-2.95601974,3.5113369218749995,"{4: 1, 14: 1, 43: 2}","[4, 14, 43]",41141432,Be1Si1Tc2
BeSiRu2,mp-867835,0.0,8.61714697,0.0,"{4: 1, 14: 1, 44: 2}","[4, 14, 44]",41141442,Be1Si1Ru2
BeSiRh2,mp-867767,0.0,8.99796635,0.0,"{4: 1, 14: 1, 45: 2}","[4, 14, 45]",41141452,Be1Si1Rh2
HfBeSi,mp-12571,0.0,6.91301545,0.0,"{72: 1, 4: 1, 14: 1}","[4, 14, 72]",41141721,Hf1Be1Si1
BeSiOs2,mp-867107,0.0,9.06828527,0.0,"{4: 1, 14: 1, 76: 2}","[4, 14, 76]",41141762,Be1Si1Os2
BeSiIr2,mp-865904,0.0,10.68422547,0.0,"{4: 1, 14: 1, 77: 2}","[4, 14, 77]",41141772,Be1Si1Ir2
BeInSi2,mp-631467,0.0,7.70566981,0.7485456745833332,"{4: 1, 49: 1, 14: 2}","[4, 14, 49]",41142491,Be1In1Si2
BeSiN2,mp-7913,5.1459,5.98584974,0.0,"{4: 1, 14: 1, 7: 2}","[4, 7, 14]",4172141,Be1Si1N2
K2Be(Si2O5)2,mp-557802,4.401999999999999,0.76281438,0.0,"{19: 2, 4: 1, 14: 4, 8: 10}","[4, 8, 14, 19]",41810144192,K2Be1Si4O10
CaBe(SiO4)3,mp-1214917,0.0,-0.53606717,0.744298656078433,"{20: 1, 4: 1, 14: 3, 8: 12}","[4, 8, 14, 20]",41812143201,Ca1Be1Si3O12
K2BeSi4O13,mp-1202842,0.35500000000000004,0.0022278,0.32447582762500016,"{19: 2, 4: 1, 14: 4, 8: 13}","[4, 8, 14, 19]",41813144192,K2Be1Si4O13
BeSiO3,mp-1183445,0.2690999999999999,6.40012943,1.2456975709999965,"{4: 1, 14: 1, 8: 3}","[4, 8, 14]",4183141,Be1Si1O3
Na2BeSiO4,mp-17183,4.6341,2.05057822,0.0,"{11: 2, 4: 1, 14: 1, 8: 4}","[4, 8, 11, 14]",4184112141,Na2Be1Si1O4
BeSi(AgO2)2,mp-1214285,0.7882000000000002,3.40065512,0.05956114687499792,"{4: 1, 14: 1, 47: 2, 8: 4}","[4, 8, 14, 47]",4184141472,Be1Si1Ag2O4
Na2Be(SiO3)2,mp-556013,4.7889,1.15594371,0.0,"{11: 2, 4: 1, 14: 2, 8: 6}","[4, 8, 11, 14]",4186112142,Na2Be1Si2O6
NaCaBeSi2O6F,mp-560721,5.510999999999999,1.54882908,0.0,"{11: 1, 20: 1, 4: 1, 14: 2, 8: 6, 9: 1}","[4, 8, 9, 11, 14, 20]",418691111142201,Na1Ca1Be1Si2O6F1
Ca2BeSi2O7,mp-6208,4.9868,2.34252635,0.0003452848611047443,"{20: 2, 4: 1, 14: 2, 8: 7}","[4, 8, 14, 20]",4187142202,Ca2Be1Si2O7
NaBeSi3O8,mp-1202648,0.19079999999999997,0.8942654,0.08045988846155172,"{11: 1, 4: 1, 14: 3, 8: 8}","[4, 8, 11, 14]",4188111143,Na1Be1Si3O8
Be2Si,mp-1009829,0.0,5.97180899,0.25882476333333404,"{4: 2, 14: 1}","[4, 14]",42141,Be2Si1
Be2CoSi,mp-1227277,0.0,8.22862976,0.11335704312500106,"{4: 2, 27: 1, 14: 1}","[4, 14, 27]",42141271,Be2Co1Si1
K2Be2Zn2Si3O11,mp-557516,3.5046999999999997,1.39326313,0.003314014750007921,"{19: 2, 4: 2, 30: 2, 14: 3, 8: 11}","[4, 8, 14, 19, 30]",42811143192302,K2Be2Zn2Si3O11
K2Be2(Si2O5)3,mp-561549,4.83,0.78707454,0.0,"{19: 2, 4: 2, 14: 6, 8: 15}","[4, 8, 14, 19]",42815146192,K2Be2Si6O15
CaMnBe2Si5O17,mp-1182751,0.02259999999999973,2.77834949,0.3898359190170959,"{20: 1, 25: 1, 4: 2, 14: 5, 8: 17}","[4, 8, 14, 20, 25]",42817145201251,Ca1Mn1Be2Si5O17
Na4Be2Si6SnO20,mp-1196126,0.32940000000000014,1.49321345,0.13516650585859402,"{11: 4, 4: 2, 14: 6, 50: 1, 8: 20}","[4, 8, 11, 14, 50]",42820114146501,Na4Be2Si6Sn1O20
Ca3TiBe2Si2(As3O10)2,mp-558370,2.6361999999999997,2.20083463,0.0,"{20: 3, 22: 1, 4: 2, 14: 2, 33: 6, 8: 20}","[4, 8, 14, 20, 22, 33]",42820142203221336,Ca3Ti1Be2Si2As6O20
Be2SiO4,mp-3347,6.042000000000001,2.5660705,0.0,"{4: 2, 14: 1, 8: 4}","[4, 8, 14]",4284141,Be2Si1O4
Be2Si2O5,mp-1183429,0.42249999999999943,7.40528131,1.1026496387962936,"{4: 2, 14: 2, 8: 5}","[4, 8, 14]",4285142,Be2Si2O5
Nd2Be2SiO7,mp-9077,5.0227,2.6598016,0.0,"{60: 2, 4: 2, 14: 1, 8: 7}","[4, 8, 14, 60]",4287141602,Nd2Be2Si1O7
Sm2Be2SiO7,mp-1208884,5.1019,2.47991032,0.0,"{62: 2, 4: 2, 14: 1, 8: 7}","[4, 8, 14, 62]",4287141622,Sm2Be2Si1O7
Eu2Be2SiO7,mp-1212955,0.006099999999999994,2.49223609,0.07498242111110898,"{63: 2, 4: 2, 14: 1, 8: 7}","[4, 8, 14, 63]",4287141632,Eu2Be2Si1O7
Gd2Be2SiO7,mp-1212449,3.3147999999999995,2.65084795,0.0,"{64: 2, 4: 2, 14: 1, 8: 7}","[4, 8, 14, 64]",4287141642,Gd2Be2Si1O7
Tb2Be2SiO7,mp-1208515,5.1182,7.57944592,0.0,"{65: 2, 4: 2, 14: 1, 8: 7}","[4, 8, 14, 65]",4287141652,Tb2Be2Si1O7
Dy2Be2SiO7,mp-1213057,5.089600000000001,7.49708509,0.0,"{66: 2, 4: 2, 14: 1, 8: 7}","[4, 8, 14, 66]",4287141662,Dy2Be2Si1O7
Ho2Be2SiO7,mp-7013,5.0859000000000005,2.43544462,0.0,"{67: 2, 4: 2, 14: 1, 8: 7}","[4, 8, 14, 67]",4287141672,Ho2Be2Si1O7
Er2Be2SiO7,mp-1212878,5.3446,7.75666053,0.00038915416664586644,"{68: 2, 4: 2, 14: 1, 8: 7}","[4, 8, 14, 68]",4287141682,Er2Be2Si1O7
Tm2Be2SiO7,mp-1207992,5.3393,7.70232945,0.0,"{69: 2, 4: 2, 14: 1, 8: 7}","[4, 8, 14, 69]",4287141692,Tm2Be2Si1O7
Lu2Be2SiO7,mp-1210829,5.2839,7.61295577,0.013585066875016594,"{71: 2, 4: 2, 14: 1, 8: 7}","[4, 8, 14, 71]",4287141712,Lu2Be2Si1O7
Rb2Be2Si2O7,mp-557027,4.3938,0.22475146,0.0,"{37: 2, 4: 2, 14: 2, 8: 7}","[4, 8, 14, 37]",4287142372,Rb2Be2Si2O7
Na2Be2(SiO3)3,mp-555182,4.8522,2.29164178,0.0,"{11: 2, 4: 2, 14: 3, 8: 9}","[4, 8, 11, 14]",4289112143,Na2Be2Si3O9
K2Be2(SiO3)3,mp-557472,5.035,1.73835906,0.0,"{19: 2, 4: 2, 14: 3, 8: 9}","[4, 8, 14, 19]",4289143192,K2Be2Si3O9
Be3Si,mp-1183407,0.0,6.83595046,0.2871014037499995,"{4: 3, 14: 1}","[4, 14]",43141,Be3Si1
MgTi2Be3(SiO4)3,mp-1047872,0.0030999999999998806,7.00986228,0.2005838769614492,"{12: 1, 22: 2, 4: 3, 14: 3, 8: 12}","[4, 8, 12, 14, 22]",43812121143222,Mg1Ti2Be3Si3O12
Mn4Be3Si3SO12,mp-19314,3.3366,1.94723621,0.0,"{25: 4, 4: 3, 14: 3, 16: 1, 8: 12}","[4, 8, 14, 16, 25]",43812143161254,Mn4Be3Si3S1O12
Be3Zn4Si3SO12,mp-6856,4.2033,1.42853183,0.0,"{4: 3, 30: 4, 14: 3, 16: 1, 8: 12}","[4, 8, 14, 16, 30]",43812143161304,Be3Zn4Si3S1O12
Be3Cd4Si3SO12,mp-17493,0.9984000000000002,3.19589067,0.0,"{4: 3, 48: 4, 14: 3, 16: 1, 8: 12}","[4, 8, 14, 16, 48]",43812143161484,Be3Cd4Si3S1O12
CaTi2Be3(SiO4)3,mp-1048301,0.0005000000000006111,6.96965664,0.15395901569161197,"{20: 1, 22: 2, 4: 3, 14: 3, 8: 12}","[4, 8, 14, 20, 22]",43812143201222,Ca1Ti2Be3Si3O12
CaMn2Be3(SiO4)3,mp-15539,4.1417,3.24528225,0.0,"{20: 1, 25: 2, 4: 3, 14: 3, 8: 12}","[4, 8, 14, 20, 25]",43812143201252,Ca1Mn2Be3Si3O12
CaBe3Co2(SiO4)3,mp-1048770,2.8321000000000005,3.06213251,0.12047131047619075,"{20: 1, 4: 3, 27: 2, 14: 3, 8: 12}","[4, 8, 14, 20, 27]",43812143201272,Ca1Be3Co2Si3O12
Ti2Be3(SiO4)3,mp-1041165,0.009100000000000108,4.8864821,0.17627237012500352,"{22: 2, 4: 3, 14: 3, 8: 12}","[4, 8, 14, 22]",43812143222,Ti2Be3Si3O12
Ti2Be3Zn(SiO4)3,mp-1047879,0.0,6.06266446,0.2346099403571431,"{22: 2, 4: 3, 30: 1, 14: 3, 8: 12}","[4, 8, 14, 22, 30]",43812143222301,Ti2Be3Zn1Si3O12
Be3V2(SiO4)3,mp-1047935,1.6241999999999996,2.73767451,0.1337327626875009,"{4: 3, 23: 2, 14: 3, 8: 12}","[4, 8, 14, 23]",43812143232,Be3V2Si3O12
Be3Cr2(SiO4)3,mp-1047903,1.8222,4.50025235,0.15841646808332932,"{4: 3, 24: 2, 14: 3, 8: 12}","[4, 8, 14, 24]",43812143242,Be3Cr2Si3O12
Mn2Be3(SiO4)3,mp-1250945,0.2239,2.64289252,0.1556582875937469,"{25: 2, 4: 3, 14: 3, 8: 12}","[4, 8, 14, 25]",43812143252,Mn2Be3Si3O12
Mn4Be3Si3SeO12,mp-18554,3.1871,2.13013288,0.0,"{25: 4, 4: 3, 14: 3, 34: 1, 8: 12}","[4, 8, 14, 25, 34]",43812143254341,Mn4Be3Si3Se1O12
Mn4Be3Si3TeO12,mp-18320,3.1768000000000005,2.47188838,0.0,"{25: 4, 4: 3, 14: 3, 52: 1, 8: 12}","[4, 8, 14, 25, 52]",43812143254521,Mn4Be3Si3Te1O12
Be3Cd4Si3SeO12,mp-16793,3.0777,0.95251418,0.0,"{4: 3, 48: 4, 14: 3, 34: 1, 8: 12}","[4, 8, 14, 34, 48]",43812143341484,Be3Cd4Si3Se1O12
Be3Si3(MoO6)2,mp-1047811,3.8074000000000003,6.36532087,0.1160660283749948,"{4: 3, 14: 3, 42: 2, 8: 12}","[4, 8, 14, 42]",43812143422,Be3Si3Mo2O12
Be3Si3(AgO6)2,mp-1041173,0.0,0.90982367,0.18472661824999648,"{4: 3, 14: 3, 47: 2, 8: 12}","[4, 8, 14, 47]",43812143472,Be3Si3Ag2O12
Be3Cd4Si3TeO12,mp-17167,3.125,1.14641514,0.0,"{4: 3, 48: 4, 14: 3, 52: 1, 8: 12}","[4, 8, 14, 48, 52]",43812143484521,Be3Cd4Si3Te1O12
Be3Si3(SnO6)2,mp-1267034,2.3258,3.11542888,0.14834995493749403,"{4: 3, 14: 3, 50: 2, 8: 12}","[4, 8, 14, 50]",43812143502,Be3Si3Sn2O12