formula,material_id,band_gap,efermi,energy_above_hull,comp_atoms,sorted_keys_comp_atoms,comp_number,new_formula
Tb2Si3Pd,mp-1208531,0.0,6.73881952,0.0,"{65: 2, 14: 3, 46: 1}","[14, 46, 65]",143461652,Tb2Si3Pd1
Dy2Si3Pd,mp-1213111,0.0,6.75058114,0.0,"{66: 2, 14: 3, 46: 1}","[14, 46, 66]",143461662,Dy2Si3Pd1
Ho2Si3Pd,mp-1212362,0.0,6.72639951,0.0,"{67: 2, 14: 3, 46: 1}","[14, 46, 67]",143461672,Ho2Si3Pd1
Er2Si3Pd,mp-1212897,0.0,6.2795261,0.0,"{68: 2, 14: 3, 46: 1}","[14, 46, 68]",143461682,Er2Si3Pd1
Tm2Si3Pd,mp-1208008,0.0,6.29759629,0.0,"{69: 2, 14: 3, 46: 1}","[14, 46, 69]",143461692,Tm2Si3Pd1
Lu2Si3Pd,mp-1222316,0.0,6.10965369,0.0,"{71: 2, 14: 3, 46: 1}","[14, 46, 71]",143461712,Lu2Si3Pd1
U2Si3Pd,mp-1216905,0.0,9.77343225,0.0394650127083338,"{92: 2, 14: 3, 46: 1}","[14, 46, 92]",143461922,U2Si3Pd1
Sm4Si3Pd4,mp-680578,0.0,5.35664676,0.02851606318181865,"{62: 4, 14: 3, 46: 4}","[14, 46, 62]",143464624,Sm4Si3Pd4
Si3Ag,mp-1248087,0.0,7.22961738,0.44624430083333344,"{14: 3, 47: 1}","[14, 47]",143471,Si3Ag1
Nd2Si3Ag,mp-1220352,0.0,5.52888611,0.0,"{60: 2, 14: 3, 47: 1}","[14, 47, 60]",143471602,Nd2Si3Ag1
Eu2Si3Ag,mp-1191372,0.0,4.6253902,0.0,"{63: 2, 14: 3, 47: 1}","[14, 47, 63]",143471632,Eu2Si3Ag1
Tb10(SiSb)3,mp-1217831,0.0,5.07943398,0.0012207806250010833,"{65: 10, 14: 3, 51: 3}","[14, 51, 65]",1435136510,Tb10Si3Sb3
LaSi3Os,mp-1069882,0.0,8.9236972,0.0,"{57: 1, 14: 3, 76: 1}","[14, 57, 76]",143571761,La1Si3Os1
LaSi3Ir,mp-2914,0.0,9.45710192,0.0,"{57: 1, 14: 3, 77: 1}","[14, 57, 77]",143571771,La1Si3Ir1
La2Si3,mp-1223125,0.0,7.47535453,0.04147179799999989,"{57: 2, 14: 3}","[14, 57]",143572,La2Si3
La2(SiIr)3,mp-1207309,0.09099999999999997,-1.14662732,2.9072780893749997,"{57: 2, 14: 3, 77: 3}","[14, 57, 77]",143572773,La2Si3Ir3
La5Si3,mp-10961,0.0,8.29584897,0.0,"{57: 5, 14: 3}","[14, 57]",143575,La5Si3
CeSi3Os,mp-1068364,0.0,8.73921378,0.0,"{58: 1, 14: 3, 76: 1}","[14, 58, 76]",143581761,Ce1Si3Os1
CeSi3Ir,mp-1068906,0.0,9.36006481,0.0,"{58: 1, 14: 3, 77: 1}","[14, 58, 77]",143581771,Ce1Si3Ir1
CeSi3Pt,mp-1207122,0.0,9.42627082,0.0,"{58: 1, 14: 3, 78: 1}","[14, 58, 78]",143581781,Ce1Si3Pt1
Ce2Si3,mp-1226801,0.0,7.535854,0.07808822250000347,"{58: 2, 14: 3}","[14, 58]",143582,Ce2Si3
Ce2(SiPt)3,mp-1206942,0.0,7.44071677,1.337438381874998,"{58: 2, 14: 3, 78: 3}","[14, 58, 78]",143582783,Ce2Si3Pt3
Ce5Si3,mp-570175,0.0,8.28701619,0.0,"{58: 5, 14: 3}","[14, 58]",143585,Ce5Si3
Pr2Si3,mp-1219840,0.0,5.15115925,0.052062912499998504,"{59: 2, 14: 3}","[14, 59]",143592,Pr2Si3
Pr2(SiPt)3,mp-1206158,0.0,5.5376766,1.5233748418749933,"{59: 2, 14: 3, 78: 3}","[14, 59, 78]",143592783,Pr2Si3Pt3
Pr5Si3,mp-1105764,0.0,4.78564138,0.0006434873958314213,"{59: 5, 14: 3}","[14, 59]",143595,Pr5Si3
NdSi3Os,mp-1068775,0.0,7.36878828,0.0,"{60: 1, 14: 3, 76: 1}","[14, 60, 76]",143601761,Nd1Si3Os1
NdSi3Ir,mp-1070369,0.0,8.06698626,0.0,"{60: 1, 14: 3, 77: 1}","[14, 60, 77]",143601771,Nd1Si3Ir1
Nd2Si3,mp-1220308,0.0,5.16395317,0.034265729000001244,"{60: 2, 14: 3}","[14, 60]",143602,Nd2Si3
Nd2(SiIr)3,mp-1205894,0.0,5.78502863,1.7300755768749987,"{60: 2, 14: 3, 77: 3}","[14, 60, 77]",143602773,Nd2Si3Ir3
Nd2(SiPt)3,mp-1206205,0.0,5.58787202,1.5380610799999985,"{60: 2, 14: 3, 78: 3}","[14, 60, 78]",143602783,Nd2Si3Pt3
Nd5Si3,mp-567735,0.0,4.66671794,0.0,"{60: 5, 14: 3}","[14, 60]",143605,Nd5Si3
PmSi3,mp-865464,0.0,7.56112584,0.0,"{61: 1, 14: 3}","[14, 61]",143611,Pm1Si3
SmSi3Os,mp-1068782,0.0,7.32712573,0.0,"{62: 1, 14: 3, 76: 1}","[14, 62, 76]",143621761,Sm1Si3Os1
SmSi3Ir,mp-1068639,0.0,8.03439306,0.0,"{62: 1, 14: 3, 77: 1}","[14, 62, 77]",143621771,Sm1Si3Ir1
SmSi3Pt,mp-1207214,0.0,7.77960218,0.018858607500002122,"{62: 1, 14: 3, 78: 1}","[14, 62, 78]",143621781,Sm1Si3Pt1
SmSi3Pt5,mp-15442,0.0,7.81294501,0.015875962804225097,"{62: 1, 14: 3, 78: 5}","[14, 62, 78]",143621785,Sm1Si3Pt5
Sm2(SiIr)3,mp-1206112,0.0,5.79759522,1.726344445156247,"{62: 2, 14: 3, 77: 3}","[14, 62, 77]",143622773,Sm2Si3Ir3
Sm2Si3Pt,mp-1219183,0.0,5.85969984,0.0,"{62: 2, 14: 3, 78: 1}","[14, 62, 78]",143622781,Sm2Si3Pt1
Sm2(SiPt)3,mp-1206140,0.0,5.4747115,1.526258795624999,"{62: 2, 14: 3, 78: 3}","[14, 62, 78]",143622783,Sm2Si3Pt3
Sm5Si3,mp-1106373,0.0,4.07952156,0.0,"{62: 5, 14: 3}","[14, 62]",143625,Sm5Si3
EuSi3Ir,mp-1069707,0.0,7.27144223,0.0,"{63: 1, 14: 3, 77: 1}","[14, 63, 77]",143631771,Eu1Si3Ir1
Eu2Si3Au,mp-1225441,0.0,4.95404994,0.022966316249999785,"{63: 2, 14: 3, 79: 1}","[14, 63, 79]",143632791,Eu2Si3Au1
Eu5Si3,mp-1190061,0.0,3.53090181,0.0,"{63: 5, 14: 3}","[14, 63]",143635,Eu5Si3
GdSi3Ir,mp-1069477,0.0,8.04555365,0.0,"{64: 1, 14: 3, 77: 1}","[14, 64, 77]",143641771,Gd1Si3Ir1
Gd2Si3,mp-1224874,0.0,5.11807899,0.22031028200000158,"{64: 2, 14: 3}","[14, 64]",143642,Gd2Si3
TbSi3Ir,mp-1068588,0.0,8.28239326,0.0,"{65: 1, 14: 3, 77: 1}","[14, 65, 77]",143651771,Tb1Si3Ir1
Tb2Si3,mp-1205298,0.0,6.43568757,0.0,"{65: 2, 14: 3}","[14, 65]",143652,Tb2Si3
Tb2(SiIr)3,mp-1206089,0.0,7.92956265,0.6018917381250022,"{65: 2, 14: 3, 77: 3}","[14, 65, 77]",143652773,Tb2Si3Ir3
Tb2(SiPt)3,mp-1206324,0.0,5.44725346,1.49588576875,"{65: 2, 14: 3, 78: 3}","[14, 65, 78]",143652783,Tb2Si3Pt3
Tb5Si3,mp-206,0.0,4.37084729,0.0,"{65: 5, 14: 3}","[14, 65]",143655,Tb5Si3
DySi3Ir,mp-1070146,0.0,8.24393559,0.0,"{66: 1, 14: 3, 77: 1}","[14, 66, 77]",143661771,Dy1Si3Ir1
Dy2Si3,mp-1225291,0.0,5.51031934,0.09053059257142593,"{66: 2, 14: 3}","[14, 66]",143662,Dy2Si3
Dy2(SiIr)3,mp-1207292,0.0,5.82818256,1.7707099465624996,"{66: 2, 14: 3, 77: 3}","[14, 66, 77]",143662773,Dy2Si3Ir3
Dy2(SiPt)3,mp-1206186,0.0,5.37684791,1.5303093265624987,"{66: 2, 14: 3, 78: 3}","[14, 66, 78]",143662783,Dy2Si3Pt3
Dy5Si3,mp-2836,0.0,4.36212825,0.0,"{66: 5, 14: 3}","[14, 66]",143665,Dy5Si3
HoSi3,mp-1188513,0.0,7.7863615,0.12055201000000082,"{67: 1, 14: 3}","[14, 67]",143671,Ho1Si3
HoSi3Ir,mp-1069461,0.0,8.24833607,0.0,"{67: 1, 14: 3, 77: 1}","[14, 67, 77]",143671771,Ho1Si3Ir1
Ho2Si3,mp-1223930,0.0,5.53883943,0.09238448485714201,"{67: 2, 14: 3}","[14, 67]",143672,Ho2Si3
Ho2(SiPt)3,mp-1206224,0.0,5.31304705,1.5245290234374984,"{67: 2, 14: 3, 78: 3}","[14, 67, 78]",143672783,Ho2Si3Pt3
Ho5Si3,mp-13236,0.0,4.30727773,0.0,"{67: 5, 14: 3}","[14, 67]",143675,Ho5Si3
Er2Si3,mp-1225750,0.0,5.63845573,0.06231460699999758,"{68: 2, 14: 3}","[14, 68]",143682,Er2Si3
Er2(SiPt)3,mp-1206359,0.0,4.96786853,1.5035156006250006,"{68: 2, 14: 3, 78: 3}","[14, 68, 78]",143682783,Er2Si3Pt3
Er5Si3,mp-31167,0.0,4.3609071,0.0,"{68: 5, 14: 3}","[14, 68]",143685,Er5Si3
TmSi3,mp-980646,0.0,7.94864837,0.24373637875000043,"{69: 1, 14: 3}","[14, 69]",143691,Tm1Si3
Tm2(SiPt)3,mp-1206787,0.0,4.8805518,1.4574587249999986,"{69: 2, 14: 3, 78: 3}","[14, 69, 78]",143692783,Tm2Si3Pt3
Tm5Si3,mp-1189863,0.0,4.32553699,0.0,"{69: 5, 14: 3}","[14, 69]",143695,Tm5Si3
LuSi3,mp-973668,0.0,8.01425341,0.24585369999999784,"{71: 1, 14: 3}","[14, 71]",143711,Lu1Si3
Lu5Si3,mp-11908,0.0,4.38861841,0.0,"{71: 5, 14: 3}","[14, 71]",143715,Lu5Si3
Hf5Si3,mp-15965,0.0,6.43407582,0.03817166562499352,"{72: 5, 14: 3}","[14, 72]",143725,Hf5Si3
Ta5Si3,mp-1989,0.0,7.76619222,0.0,"{73: 5, 14: 3}","[14, 73]",143735,Ta5Si3
Si3W,mp-972748,0.0,9.86509095,0.713309967499999,"{14: 3, 74: 1}","[14, 74]",143741,Si3W1
Si3W5,mp-31219,0.0,9.09600734,0.025065460000000428,"{14: 3, 74: 5}","[14, 74]",143745,Si3W5
Re5Si3,mp-1105959,0.0,9.51817687,0.15830164888392595,"{75: 5, 14: 3}","[14, 75]",143755,Re5Si3
Si3Os,mp-1252369,0.0,10.32109365,0.620478515624999,"{14: 3, 76: 1}","[14, 76]",143761,Si3Os1
ThSi3Os,mp-1070572,0.0,9.00558326,0.0,"{90: 1, 14: 3, 76: 1}","[14, 76, 90]",143761901,Th1Si3Os1
Th2Si3Os,mp-1217276,0.0,8.02003949,0.0,"{90: 2, 14: 3, 76: 1}","[14, 76, 90]",143761902,Th2Si3Os1
U2Si3Os,mp-1216597,0.0,10.33246467,0.03091105722221954,"{92: 2, 14: 3, 76: 1}","[14, 76, 92]",143761922,U2Si3Os1
Si3Os2,mp-16608,0.8552999999999997,8.95147826,0.0,"{14: 3, 76: 2}","[14, 76]",143762,Si3Os2
Si3Ir,mp-569802,0.0,9.07763754,0.5103636208333313,"{14: 3, 77: 1}","[14, 77]",143771,Si3Ir1
ThSi3Ir,mp-1068869,0.0,9.50356986,0.0,"{90: 1, 14: 3, 77: 1}","[14, 77, 90]",143771901,Th1Si3Ir1
Th2Si3Ir,mp-1217279,0.0,8.27138249,0.0,"{90: 2, 14: 3, 77: 1}","[14, 77, 90]",143771902,Th2Si3Ir1
USi3Ir,mp-1068256,0.0,10.4294376,0.0,"{92: 1, 14: 3, 77: 1}","[14, 77, 92]",143771921,U1Si3Ir1
U2Si3Ir,mp-1216568,0.0,10.52366728,0.014061216875001392,"{92: 2, 14: 3, 77: 1}","[14, 77, 92]",143771922,U2Si3Ir1
Th2(SiIr)3,mp-1206947,0.0,6.77571656,1.8439245249999914,"{90: 2, 14: 3, 77: 3}","[14, 77, 90]",143773902,Th2Si3Ir3
Si3Pt,mp-972763,0.0,8.08657353,0.30647050187500113,"{14: 3, 78: 1}","[14, 78]",143781,Si3Pt1
Th2Si3Pt,mp-1217278,0.0,8.17664493,0.0,"{90: 2, 14: 3, 78: 1}","[14, 78, 90]",143781902,Th2Si3Pt1
U2Si3Pt,mp-1216606,0.0,10.14589847,0.0,"{92: 2, 14: 3, 78: 1}","[14, 78, 92]",143781922,U2Si3Pt1
Si3Pt2,mp-10744,0.0,8.66462143,0.013293738999998084,"{14: 3, 78: 2}","[14, 78]",143782,Si3Pt2
Th2(SiPt)3,mp-1206507,0.0,6.47180345,1.669748051875004,"{90: 2, 14: 3, 78: 3}","[14, 78, 90]",143783902,Th2Si3Pt3
Pu2(SiPt)3,mp-1206869,0.0,-0.00766098,2.518715620078125,"{94: 2, 14: 3, 78: 3}","[14, 78, 94]",143783942,Pu2Si3Pt3
Si3Au10,mp-1219349,0.0,6.03042495,0.0481247476923059,"{14: 3, 79: 10}","[14, 79]",1437910,Si3Au10
U2Si3Au,mp-1216862,0.0,9.67461779,0.05324109229166396,"{92: 2, 14: 3, 79: 1}","[14, 79, 92]",143791922,U2Si3Au1
U2(SiAu)3,mp-1206204,0.0,7.91983027,0.748329723750004,"{92: 2, 14: 3, 79: 3}","[14, 79, 92]",143793922,U2Si3Au3
AcSi3,mp-866222,0.0,8.43302594,0.0,"{89: 1, 14: 3}","[14, 89]",143891,Ac1Si3
PaSi3,mp-862820,0.0,10.77978143,0.0,"{91: 1, 14: 3}","[14, 91]",143911,Pa1Si3
USi3,mp-2800,0.0,11.48368046,0.0,"{92: 1, 14: 3}","[14, 92]",143921,U1Si3
NpSi3,mp-20425,0.0,11.8926732,0.13208968250000197,"{93: 1, 14: 3}","[14, 93]",143931,Np1Si3
Np2Si3,mp-1220075,0.0,10.53770794,0.21977292462499776,"{93: 2, 14: 3}","[14, 93]",143932,Np2Si3
PuSi3,mp-867907,0.0,11.25086279,0.08759733125000224,"{94: 1, 14: 3}","[14, 94]",143941,Pu1Si3
Si4P4Ru,mp-14983,1.4604,6.93331539,0.0,"{14: 4, 15: 4, 44: 1}","[14, 15, 44]",144154441,Si4P4Ru1
Si4P4Os,mp-1206699,1.4341,7.0462862,0.0,"{14: 4, 15: 4, 76: 1}","[14, 15, 76]",144154761,Si4P4Os1
Ce6Si4S17,mp-680697,0.5558999999999994,6.2324869,0.0177704733333357,"{58: 6, 14: 4, 16: 17}","[14, 16, 58]",1441617586,Ce6Si4S17
Pr6Si4S17,mp-559955,2.5372000000000003,3.35449687,0.0,"{59: 6, 14: 4, 16: 17}","[14, 16, 59]",1441617596,Pr6Si4S17
Nd6Si4S17,mp-555407,2.5163,3.35972511,0.0,"{60: 6, 14: 4, 16: 17}","[14, 16, 60]",1441617606,Nd6Si4S17
Sm6Si4S17,mp-557561,2.4769999999999994,3.46248589,0.0,"{62: 6, 14: 4, 16: 17}","[14, 16, 62]",1441617626,Sm6Si4S17
La12Si4SnS28,mp-1223487,1.4132000000000007,6.63357434,0.0,"{57: 12, 14: 4, 50: 1, 16: 28}","[14, 16, 50, 57]",14416285015712,La12Si4Sn1S28
K(SiPd)4,mp-1223845,0.0,5.54158704,0.0,"{19: 1, 14: 4, 46: 4}","[14, 19, 46]",144191464,K1Si4Pd4
K(SiPt)4,mp-1223832,0.0,6.54920584,0.0,"{19: 1, 14: 4, 78: 4}","[14, 19, 78]",144191784,K1Si4Pt4
SrCaSi4,mp-1218335,0.0,5.50363591,0.014822825833334718,"{38: 1, 20: 1, 14: 4}","[14, 20, 38]",144201381,Sr1Ca1Si4
CaLaSi4,mp-1227055,0.0,7.38400499,0.0018148183333313028,"{20: 1, 57: 1, 14: 4}","[14, 20, 57]",144201571,Ca1La1Si4
CaEuSi4,mp-1227177,0.0,5.68505283,0.006332042499998636,"{20: 1, 63: 1, 14: 4}","[14, 20, 63]",144201631,Ca1Eu1Si4
Ca3Si4,mp-1214046,0.4162000000000008,5.15950694,0.0018231876190490937,"{20: 3, 14: 4}","[14, 20]",144203,Ca3Si4
SrCa3Si4,mp-1218362,0.0,4.64630387,0.00982049249999939,"{38: 1, 20: 3, 14: 4}","[14, 20, 38]",144203381,Sr1Ca3Si4
Sr5Ca3Si4,mp-1218334,0.3858999999999999,2.91033534,0.00413481874999988,"{38: 5, 20: 3, 14: 4}","[14, 20, 38]",144203385,Sr5Ca3Si4
Ca3(SiIr)4,mp-11176,0.0,6.34168514,0.0,"{20: 3, 14: 4, 77: 4}","[14, 20, 77]",144203774,Ca3Si4Ir4
Ca5(Si2Au3)2,mp-1227364,0.0,5.18340517,0.0,"{20: 5, 14: 4, 79: 6}","[14, 20, 79]",144205796,Ca5Si4Au6
Hf3ScSi4,mp-1224346,0.0,7.06715077,0.014054195312503737,"{72: 3, 21: 1, 14: 4}","[14, 21, 72]",144211723,Hf3Sc1Si4
Hf5ScSi4,mp-1224366,0.0,6.38307858,0.020707379750000143,"{72: 5, 21: 1, 14: 4}","[14, 21, 72]",144211725,Hf5Sc1Si4
Sc2V3Si4,mp-504941,0.0,7.20067436,0.0,"{21: 2, 23: 3, 14: 4}","[14, 21, 23]",144212233,Sc2V3Si4
Sc2Nb3Si4,mp-1200765,0.0,6.53572149,0.0,"{21: 2, 41: 3, 14: 4}","[14, 21, 41]",144212413,Sc2Nb3Si4
Sc2Si4Mo3,mp-1195505,0.0,8.17219998,0.0,"{21: 2, 14: 4, 42: 3}","[14, 21, 42]",144212423,Sc2Si4Mo3
Sc2Si4W3,mp-1202662,0.0,7.94999056,0.0,"{21: 2, 14: 4, 74: 3}","[14, 21, 74]",144212743,Sc2Si4W3
Sc2Re3Si4,mp-16794,0.0,8.22063506,0.0,"{21: 2, 75: 3, 14: 4}","[14, 21, 75]",144212753,Sc2Re3Si4
LuSc3(MnSi)4,mp-1222360,0.0,5.90729709,0.019659292230388203,"{71: 1, 21: 3, 25: 4, 14: 4}","[14, 21, 25, 71]",144213254711,Lu1Sc3Mn4Si4
Sc3(NbSi2)2,mp-1209126,0.0,6.51690861,0.20882993638888614,"{21: 3, 41: 2, 14: 4}","[14, 21, 41]",144213412,Sc3Nb2Si4
Ce2Sc3Si4,mp-505512,0.0,6.73433051,0.0,"{58: 2, 21: 3, 14: 4}","[14, 21, 58]",144213582,Ce2Sc3Si4
Pr2Sc3Si4,mp-568831,0.0,5.49231953,0.0,"{59: 2, 21: 3, 14: 4}","[14, 21, 59]",144213592,Pr2Sc3Si4
Sm2Sc3Si4,mp-1208915,0.0,5.45168539,0.0,"{62: 2, 21: 3, 14: 4}","[14, 21, 62]",144213622,Sm2Sc3Si4
Gd2Sc3Si4,mp-1213579,0.0,5.88299012,0.0,"{64: 2, 21: 3, 14: 4}","[14, 21, 64]",144213642,Gd2Sc3Si4
Tb2Sc3Si4,mp-1208563,0.0,5.53644914,0.0,"{65: 2, 21: 3, 14: 4}","[14, 21, 65]",144213652,Tb2Sc3Si4
Dy2Sc3Si4,mp-1213190,0.0,5.523049,0.0,"{66: 2, 21: 3, 14: 4}","[14, 21, 66]",144213662,Dy2Sc3Si4
Ho2Sc3Si4,mp-1212379,0.0,5.50532766,0.0,"{67: 2, 21: 3, 14: 4}","[14, 21, 67]",144213672,Ho2Sc3Si4
Er2Sc3Si4,mp-1212960,0.0,5.53644051,0.0,"{68: 2, 21: 3, 14: 4}","[14, 21, 68]",144213682,Er2Sc3Si4
Tm2Sc3Si4,mp-1208051,0.0,5.52384968,0.0,"{69: 2, 21: 3, 14: 4}","[14, 21, 69]",144213692,Tm2Sc3Si4
Hf2Sc3Si4,mp-1200760,0.0,6.13681537,0.027372076388896716,"{72: 2, 21: 3, 14: 4}","[14, 21, 72]",144213722,Hf2Sc3Si4
Sc3(ReSi2)2,mp-31027,0.0,7.21697208,0.0,"{21: 3, 75: 2, 14: 4}","[14, 21, 75]",144213752,Sc3Re2Si4
Nd(ScSi)4,mp-1220582,0.0,5.64428443,0.004839021944443189,"{60: 1, 21: 4, 14: 4}","[14, 21, 60]",144214601,Nd1Sc4Si4
Sc5Si4,mp-1209086,0.0,5.73077789,0.04180378277777841,"{21: 5, 14: 4}","[14, 21]",144215,Sc5Si4
TiCrSi4,mp-1216927,0.0,9.7452127,0.047223883333332495,"{22: 1, 24: 1, 14: 4}","[14, 22, 24]",144221241,Ti1Cr1Si4
TiMnSi4,mp-1216867,0.0,9.9687717,0.080123436666665,"{22: 1, 25: 1, 14: 4}","[14, 22, 25]",144221251,Ti1Mn1Si4
Ti3Cr9Si4,mp-1217202,0.0,8.08230308,0.0475876573750007,"{22: 3, 24: 9, 14: 4}","[14, 22, 24]",144223249,Ti3Cr9Si4
Tb2Ti3Si4,mp-510083,0.0,6.27651425,0.0,"{65: 2, 22: 3, 14: 4}","[14, 22, 65]",144223652,Tb2Ti3Si4
Dy2Ti3Si4,mp-19950,0.0,6.27778935,0.0,"{66: 2, 22: 3, 14: 4}","[14, 22, 66]",144223662,Dy2Ti3Si4
Ho2Ti3Si4,mp-510084,0.0,6.25770849,0.0,"{67: 2, 22: 3, 14: 4}","[14, 22, 67]",144223672,Ho2Ti3Si4
Er2Ti3Si4,mp-510085,0.0,6.29062517,0.0,"{68: 2, 22: 3, 14: 4}","[14, 22, 68]",144223682,Er2Ti3Si4
U2Ti3Si4,mp-22814,0.0,9.30877751,0.01866661138888759,"{92: 2, 22: 3, 14: 4}","[14, 22, 92]",144223922,U2Ti3Si4
Ti5Si4,mp-505527,0.0,7.52436516,0.0,"{22: 5, 14: 4}","[14, 22]",144225,Ti5Si4
VCrSi4,mp-1216378,0.0,10.24375609,0.017843721666666923,"{23: 1, 24: 1, 14: 4}","[14, 23, 24]",144231241,V1Cr1Si4
NbVSi4,mp-1220458,0.0,9.17759733,0.026223168888888537,"{41: 1, 23: 1, 14: 4}","[14, 23, 41]",144231411,Nb1V1Si4
VSi4Mo,mp-1216278,0.0,10.24405147,0.03617586777777859,"{23: 1, 14: 4, 42: 1}","[14, 23, 42]",144231421,V1Si4Mo1
TaVSi4,mp-1217836,0.0,9.41327508,0.02174873166666913,"{73: 1, 23: 1, 14: 4}","[14, 23, 73]",144231731,Ta1V1Si4
Ce2MnSi4Pd3,mp-1226782,0.0,7.63721019,0.027677077250005233,"{58: 2, 25: 1, 14: 4, 46: 3}","[14, 25, 46, 58]",144251463582,Ce2Mn1Si4Pd3
Ce2Mn3Si4Pd,mp-1226880,0.0,7.7314789,0.0282969131250006,"{58: 2, 25: 3, 14: 4, 46: 1}","[14, 25, 46, 58]",144253461582,Ce2Mn3Si4Pd1
LaCe(MnSi)4,mp-1222964,0.0,7.93826563,0.0005001100000008307,"{57: 1, 58: 1, 25: 4, 14: 4}","[14, 25, 57, 58]",144254571581,La1Ce1Mn4Si4
LaPr(MnSi)4,mp-1222827,0.0,7.03911643,0.0,"{57: 1, 59: 1, 25: 4, 14: 4}","[14, 25, 57, 59]",144254571591,La1Pr1Mn4Si4
ThU(MnSi)4,mp-1217372,0.0,8.39143335,0.0,"{90: 1, 92: 1, 25: 4, 14: 4}","[14, 25, 90, 92]",144254901921,Th1U1Mn4Si4
SmCoSi4,mp-1219104,0.0,7.73982612,0.31232944999999823,"{62: 1, 27: 1, 14: 4}","[14, 27, 62]",144271621,Sm1Co1Si4
Hf2Co3Si4,mp-607990,0.0,8.14386266,0.0,"{72: 2, 27: 3, 14: 4}","[14, 27, 72]",144273722,Hf2Co3Si4
LaCo9Si4,mp-568056,0.0,7.96545913,0.0,"{57: 1, 27: 9, 14: 4}","[14, 27, 57]",144279571,La1Co9Si4
CeCo9Si4,mp-1193469,0.0,7.90011183,0.0,"{58: 1, 27: 9, 14: 4}","[14, 27, 58]",144279581,Ce1Co9Si4
PrCo9Si4,mp-18285,0.0,7.07642067,0.0,"{59: 1, 27: 9, 14: 4}","[14, 27, 59]",144279591,Pr1Co9Si4
NdCo9Si4,mp-17319,0.0,7.16968058,0.0,"{60: 1, 27: 9, 14: 4}","[14, 27, 60]",144279601,Nd1Co9Si4
SmCo9Si4,mp-567852,0.0,7.0653111,0.0,"{62: 1, 27: 9, 14: 4}","[14, 27, 62]",144279621,Sm1Co9Si4
GdCo9Si4,mp-1193590,0.0,7.12354117,0.004502592142856976,"{64: 1, 27: 9, 14: 4}","[14, 27, 64]",144279641,Gd1Co9Si4
TbCo9Si4,mp-4735,0.0,7.15804263,0.00649171892856959,"{65: 1, 27: 9, 14: 4}","[14, 27, 65]",144279651,Tb1Co9Si4
ErCo9Si4,mp-1213148,0.0,7.11817168,0.02608680642857575,"{68: 1, 27: 9, 14: 4}","[14, 27, 68]",144279681,Er1Co9Si4
Na4Be2Si6Sn(HO5)4,mp-706336,4.1247,1.59988408,0.0,"{11: 4, 4: 2, 14: 6, 50: 1, 1: 4, 8: 20}","[1, 4, 8, 11, 14, 50]",1442820114146501,Na4Be2Si6Sn1H4O20
Zr5(ZnSi)4,mp-1207383,0.0,5.56447959,0.07268942124999889,"{40: 5, 30: 4, 14: 4}","[14, 30, 40]",144304405,Zr5Zn4Si4
Rb(SiPt)4,mp-1219656,0.0,6.67827315,0.0,"{37: 1, 14: 4, 78: 4}","[14, 37, 78]",144371784,Rb1Si4Pt4
SrEuSi4,mp-1218293,0.0,5.32679602,0.01094008333333285,"{38: 1, 63: 1, 14: 4}","[14, 38, 63]",144381631,Sr1Eu1Si4
Zr2Si4Ru3,mp-510274,0.0,8.49770959,0.0,"{40: 2, 14: 4, 44: 3}","[14, 40, 44]",144402443,Zr2Si4Ru3
Zr5Si4,mp-1304,0.0,6.06798445,7.687833333491767e-05,"{40: 5, 14: 4}","[14, 40]",144405,Zr5Si4
NbSi4Mo,mp-1220436,0.0,9.65525509,0.047768870555554344,"{41: 1, 14: 4, 42: 1}","[14, 41, 42]",144411421,Nb1Si4Mo1
U2Nb3Si4,mp-1208053,0.0,8.81495549,0.0,"{92: 2, 41: 3, 14: 4}","[14, 41, 92]",144413922,U2Nb3Si4
TaSi4Mo,mp-1217926,0.0,9.91770597,0.05339059444444416,"{73: 1, 14: 4, 42: 1}","[14, 42, 73]",144421731,Ta1Si4Mo1
Si4MoW,mp-1219237,0.0,10.53442988,0.0,"{14: 4, 42: 1, 74: 1}","[14, 42, 74]",144421741,Si4Mo1W1
ReSi4Mo,mp-1219492,0.0,11.03847337,0.10618335229166576,"{75: 1, 14: 4, 42: 1}","[14, 42, 75]",144421751,Re1Si4Mo1
Si4MoPt3,mp-978785,0.0,9.18232642,0.0,"{14: 4, 42: 1, 78: 3}","[14, 42, 78]",144421783,Si4Mo1Pt3
Tb2Si4Mo3,mp-1190079,0.0,7.57993365,0.0,"{65: 2, 14: 4, 42: 3}","[14, 42, 65]",144423652,Tb2Si4Mo3
Dy2Si4Mo3,mp-1189145,0.0,7.62468083,0.0,"{66: 2, 14: 4, 42: 3}","[14, 42, 66]",144423662,Dy2Si4Mo3
Ho2Si4Mo3,mp-1105923,0.0,7.52695296,0.0,"{67: 2, 14: 4, 42: 3}","[14, 42, 67]",144423672,Ho2Si4Mo3
Er2Si4Mo3,mp-1106326,0.0,7.62320352,0.0,"{68: 2, 14: 4, 42: 3}","[14, 42, 68]",144423682,Er2Si4Mo3
Tm2Si4Mo3,mp-1188982,0.0,7.63098671,0.0,"{69: 2, 14: 4, 42: 3}","[14, 42, 69]",144423692,Tm2Si4Mo3
Lu2Si4Mo3,mp-1194888,0.0,7.57858486,0.0,"{71: 2, 14: 4, 42: 3}","[14, 42, 71]",144423712,Lu2Si4Mo3
Hf2Si4Mo3,mp-1212445,0.0,8.74792837,0.0,"{72: 2, 14: 4, 42: 3}","[14, 42, 72]",144423722,Hf2Si4Mo3
U2Si4Mo3,mp-9236,0.0,10.29709208,0.0,"{92: 2, 14: 4, 42: 3}","[14, 42, 92]",144423922,U2Si4Mo3
Np2Si4Mo3,mp-573390,0.0,10.62562205,0.0,"{93: 2, 14: 4, 42: 3}","[14, 42, 93]",144423932,Np2Si4Mo3
Pu2Si4Mo3,mp-1105772,0.0,10.76944254,0.2565146315873008,"{94: 2, 14: 4, 42: 3}","[14, 42, 94]",144423942,Pu2Si4Mo3
Si4Mo8Pt5,mp-1209151,0.0,8.45727813,0.15814015011764582,"{14: 4, 42: 8, 78: 5}","[14, 42, 78]",144428785,Si4Mo8Pt5
Np2Si4Tc3,mp-505267,0.0,10.53457419,0.0,"{93: 2, 14: 4, 43: 3}","[14, 43, 93]",144433932,Np2Si4Tc3
Pu2Si4Tc3,mp-20934,0.0,10.76223241,0.0,"{94: 2, 14: 4, 43: 3}","[14, 43, 94]",144433942,Pu2Si4Tc3
Nd2Si4RuRh3,mp-1220300,0.0,6.92832654,0.0,"{60: 2, 14: 4, 44: 1, 45: 3}","[14, 44, 45, 60]",144441453602,Nd2Si4Ru1Rh3
Nd2Si4Ru3Rh,mp-1220305,0.0,6.87421745,0.0,"{60: 2, 14: 4, 44: 3, 45: 1}","[14, 44, 45, 60]",144443451602,Nd2Si4Ru3Rh1