formula,material_id,band_gap,efermi,energy_above_hull,comp_atoms,sorted_keys_comp_atoms,comp_number,new_formula
Na4MgZrSi(PO6)2,mp-2714407,3.8014,2.11135738,0.0285105521428628,"{11: 4, 12: 1, 40: 1, 14: 1, 15: 2, 8: 12}","[8, 11, 12, 14, 15, 40]",812114121141152401,Na4Mg1Zr1Si1P2O12
Na4MgSiSn(PO6)2,mp-2714443,2.2228,2.78581498,0.042441876825400016,"{11: 4, 12: 1, 14: 1, 50: 1, 15: 2, 8: 12}","[8, 11, 12, 14, 15, 50]",812114121141152501,Na4Mg1Si1Sn1P2O12
Na4HfMgSi(PO6)2,mp-2714592,3.8942000000000005,2.32493897,0.025263707043655437,"{11: 4, 72: 1, 12: 1, 14: 1, 15: 2, 8: 12}","[8, 11, 12, 14, 15, 72]",812114121141152721,Na4Hf1Mg1Si1P2O12
Na4CaMgSi(SO6)2,mp-2713045,3.4277,2.19123514,0.09296955353174496,"{11: 4, 20: 1, 12: 1, 14: 1, 16: 2, 8: 12}","[8, 11, 12, 14, 16, 20]",812114121141162201,Na4Ca1Mg1Si1S2O12
Na4MgZnSi(SO6)2,mp-2713107,3.3461999999999996,2.30238185,0.10550048436507886,"{11: 4, 12: 1, 30: 1, 14: 1, 16: 2, 8: 12}","[8, 11, 12, 14, 16, 30]",812114121141162301,Na4Mg1Zn1Si1S2O12
Na4MgNbSi2PO12,mp-2715764,2.0381,2.28137073,0.06656851111111095,"{11: 4, 12: 1, 41: 1, 14: 2, 15: 1, 8: 12}","[8, 11, 12, 14, 15, 41]",812114121142151411,Na4Mg1Nb1Si2P1O12
Na4MgTaSi2PO12,mp-2715694,2.8166999999999995,2.38289065,0.06262023892857194,"{11: 4, 12: 1, 73: 1, 14: 2, 15: 1, 8: 12}","[8, 11, 12, 14, 15, 73]",812114121142151731,Na4Mg1Ta1Si2P1O12
Na4MgTiSi2SO12,mp-2714539,2.1628,2.46807671,0.08467285162698168,"{11: 4, 12: 1, 22: 1, 14: 2, 16: 1, 8: 12}","[8, 11, 12, 14, 16, 22]",812114121142161221,Na4Mg1Ti1Si2S1O12
Na4MgSi2GeSO12,mp-2714387,1.6126,2.60617677,0.12734204337301858,"{11: 4, 12: 1, 14: 2, 32: 1, 16: 1, 8: 12}","[8, 11, 12, 14, 16, 32]",812114121142161321,Na4Mg1Si2Ge1S1O12
Na4MgZrSi2SO12,mp-2714412,3.5494000000000003,2.17399268,0.08423139123016377,"{11: 4, 12: 1, 40: 1, 14: 2, 16: 1, 8: 12}","[8, 11, 12, 14, 16, 40]",812114121142161401,Na4Mg1Zr1Si2S1O12
Na4MgSi2SnSO12,mp-2714600,1.6911,2.79074467,0.09835333900793408,"{11: 4, 12: 1, 14: 2, 50: 1, 16: 1, 8: 12}","[8, 11, 12, 14, 16, 50]",812114121142161501,Na4Mg1Si2Sn1S1O12
Na4HfMgSi2SO12,mp-2714477,3.6297000000000006,2.3537423,0.08129737761904732,"{11: 4, 72: 1, 12: 1, 14: 2, 16: 1, 8: 12}","[8, 11, 12, 14, 16, 72]",812114121142161721,Na4Hf1Mg1Si2S1O12
Na4Mg2Si(SO6)2,mp-2713104,3.6311,2.5308923,0.08996662142857126,"{11: 4, 12: 2, 14: 1, 16: 2, 8: 12}","[8, 11, 12, 14, 16]",812114122141162,Na4Mg2Si1S2O12
Na4CaTiSi(PO6)2,mp-2714438,1.7475,1.97716187,0.09033303908200896,"{11: 4, 20: 1, 22: 1, 14: 1, 15: 2, 8: 12}","[8, 11, 14, 15, 20, 22]",812114141152201221,Na4Ca1Ti1Si1P2O12
Na4CaSiGe(PO6)2,mp-2714587,0.778,2.277642,0.14679324325396603,"{11: 4, 20: 1, 14: 1, 32: 1, 15: 2, 8: 12}","[8, 11, 14, 15, 20, 32]",812114141152201321,Na4Ca1Si1Ge1P2O12
Na4CaZrSi(PO6)2,mp-2714488,3.2374,1.88234519,0.05624630579365686,"{11: 4, 20: 1, 40: 1, 14: 1, 15: 2, 8: 12}","[8, 11, 14, 15, 20, 40]",812114141152201401,Na4Ca1Zr1Si1P2O12
Na4CaSiSn(PO6)2,mp-2714465,1.4788000000000001,2.52730847,0.07881288515872953,"{11: 4, 20: 1, 14: 1, 50: 1, 15: 2, 8: 12}","[8, 11, 14, 15, 20, 50]",812114141152201501,Na4Ca1Si1Sn1P2O12
Na4CaHfSi(PO6)2,mp-2714339,3.6323,2.02715749,0.053027311884920714,"{11: 4, 20: 1, 72: 1, 14: 1, 15: 2, 8: 12}","[8, 11, 14, 15, 20, 72]",812114141152201721,Na4Ca1Hf1Si1P2O12
Na4ScGaSi(PO6)2,mp-2714472,3.8192,1.92982753,0.04471619742063293,"{11: 4, 21: 1, 31: 1, 14: 1, 15: 2, 8: 12}","[8, 11, 14, 15, 21, 31]",812114141152211311,Na4Sc1Ga1Si1P2O12
Na4ScInSi(PO6)2,mp-2714522,3.5482999999999993,1.99714872,0.023035871567458344,"{11: 4, 21: 1, 49: 1, 14: 1, 15: 2, 8: 12}","[8, 11, 14, 15, 21, 49]",812114141152211491,Na4Sc1In1Si1P2O12
Na4LaScSi(PO6)2,mp-2714528,3.8235,2.06154912,0.05335398671131841,"{11: 4, 57: 1, 21: 1, 14: 1, 15: 2, 8: 12}","[8, 11, 14, 15, 21, 57]",812114141152211571,Na4La1Sc1Si1P2O12
Na4Sc2Si(PO6)2,mp-2714473,4.2491,1.69407701,0.00742391269841125,"{11: 4, 21: 2, 14: 1, 15: 2, 8: 12}","[8, 11, 14, 15, 21]",812114141152212,Na4Sc2Si1P2O12
Na4TiZnSi(PO6)2,mp-2714357,1.6168,2.44978476,0.07348593495502964,"{11: 4, 22: 1, 30: 1, 14: 1, 15: 2, 8: 12}","[8, 11, 14, 15, 22, 30]",812114141152221301,Na4Ti1Zn1Si1P2O12
Na4ZnSiGe(PO6)2,mp-2714417,1.2811,2.80067113,0.11649212595238456,"{11: 4, 30: 1, 14: 1, 32: 1, 15: 2, 8: 12}","[8, 11, 14, 15, 30, 32]",812114141152301321,Na4Zn1Si1Ge1P2O12
Na4ZrZnSi(PO6)2,mp-2714361,3.6021,2.02143377,0.05306316571428571,"{11: 4, 40: 1, 30: 1, 14: 1, 15: 2, 8: 12}","[8, 11, 14, 15, 30, 40]",812114141152301401,Na4Zr1Zn1Si1P2O12
Na4ZnSiSn(PO6)2,mp-2714367,1.9872999999999998,2.85236557,0.0694163816666693,"{11: 4, 30: 1, 14: 1, 50: 1, 15: 2, 8: 12}","[8, 11, 14, 15, 30, 50]",812114141152301501,Na4Zn1Si1Sn1P2O12
Na4HfZnSi(PO6)2,mp-2714601,3.5947999999999998,2.09898429,0.0485105551388898,"{11: 4, 72: 1, 30: 1, 14: 1, 15: 2, 8: 12}","[8, 11, 14, 15, 30, 72]",812114141152301721,Na4Hf1Zn1Si1P2O12
Na4InGaSi(PO6)2,mp-2714556,3.3790999999999998,2.42954484,0.05580535007936405,"{11: 4, 49: 1, 31: 1, 14: 1, 15: 2, 8: 12}","[8, 11, 14, 15, 31, 49]",812114141152311491,Na4In1Ga1Si1P2O12
Na4LaGaSi(PO6)2,mp-2714466,2.9452,2.27116124,0.10979488301587281,"{11: 4, 57: 1, 31: 1, 14: 1, 15: 2, 8: 12}","[8, 11, 14, 15, 31, 57]",812114141152311571,Na4La1Ga1Si1P2O12
Na4Ga2Si(PO6)2,mp-2714538,3.7871000000000006,2.21873009,0.05305832198413096,"{11: 4, 31: 2, 14: 1, 15: 2, 8: 12}","[8, 11, 14, 15, 31]",812114141152312,Na4Ga2Si1P2O12
Na4LaInSi(PO6)2,mp-2714521,2.9558,2.27098056,0.06991347454364938,"{11: 4, 57: 1, 49: 1, 14: 1, 15: 2, 8: 12}","[8, 11, 14, 15, 49, 57]",812114141152491571,Na4La1In1Si1P2O12
Na4In2Si(PO6)2,mp-2714510,3.2889,2.42883139,0.031134002817460704,"{11: 4, 49: 2, 14: 1, 15: 2, 8: 12}","[8, 11, 14, 15, 49]",812114141152492,Na4In2Si1P2O12
Na4CaZnSi(SO6)2,mp-2712867,3.1322,1.86857583,0.10894882464285605,"{11: 4, 20: 1, 30: 1, 14: 1, 16: 2, 8: 12}","[8, 11, 14, 16, 20, 30]",812114141162201301,Na4Ca1Zn1Si1S2O12
Na4Ca2Si(SO6)2,mp-2712933,3.3048,1.89046822,0.08053915996031957,"{11: 4, 20: 2, 14: 1, 16: 2, 8: 12}","[8, 11, 14, 16, 20]",812114141162202,Na4Ca2Si1S2O12
Na4Zn2Si(SO6)2,mp-2712942,3.3002,1.83549291,0.12761098690476214,"{11: 4, 30: 2, 14: 1, 16: 2, 8: 12}","[8, 11, 14, 16, 30]",812114141162302,Na4Zn2Si1S2O12
Na4CaNbSi2PO12,mp-2716257,1.7744,1.96695283,0.11116780261904857,"{11: 4, 20: 1, 41: 1, 14: 2, 15: 1, 8: 12}","[8, 11, 14, 15, 20, 41]",812114142151201411,Na4Ca1Nb1Si2P1O12
Na4CaTaSi2PO12,mp-2715712,2.6236999999999995,2.11956927,0.11022721448412831,"{11: 4, 20: 1, 73: 1, 14: 2, 15: 1, 8: 12}","[8, 11, 14, 15, 20, 73]",812114142151201731,Na4Ca1Ta1Si2P1O12
Na4ScTiSi2PO12,mp-2716142,2.4717000000000002,2.10928618,0.03900843839285528,"{11: 4, 21: 1, 22: 1, 14: 2, 15: 1, 8: 12}","[8, 11, 14, 15, 21, 22]",812114142151211221,Na4Sc1Ti1Si2P1O12
Na4ScSi2GePO12,mp-2715597,2.3302000000000005,2.12597217,0.07873007650793795,"{11: 4, 21: 1, 14: 2, 32: 1, 15: 1, 8: 12}","[8, 11, 14, 15, 21, 32]",812114142151211321,Na4Sc1Si2Ge1P1O12
Na4ZrScSi2PO12,mp-2715799,4.092499999999999,1.66304654,0.02495946119047776,"{11: 4, 40: 1, 21: 1, 14: 2, 15: 1, 8: 12}","[8, 11, 14, 15, 21, 40]",812114142151211401,Na4Zr1Sc1Si2P1O12
Na4ScSi2SnPO12,mp-2716168,2.8186,2.42075481,0.03275684388888944,"{11: 4, 21: 1, 14: 2, 50: 1, 15: 1, 8: 12}","[8, 11, 14, 15, 21, 50]",812114142151211501,Na4Sc1Si2Sn1P1O12
Na4HfScSi2PO12,mp-2715521,4.071899999999999,1.87279681,0.018657920674604256,"{11: 4, 72: 1, 21: 1, 14: 2, 15: 1, 8: 12}","[8, 11, 14, 15, 21, 72]",812114142151211721,Na4Hf1Sc1Si2P1O12
Na4TiGaSi2PO12,mp-2715821,2.5818,2.18036427,0.05462787269312841,"{11: 4, 22: 1, 31: 1, 14: 2, 15: 1, 8: 12}","[8, 11, 14, 15, 22, 31]",812114142151221311,Na4Ti1Ga1Si2P1O12
Na4TiInSi2PO12,mp-2716227,2.2745,2.39940318,0.05180045912697828,"{11: 4, 22: 1, 49: 1, 14: 2, 15: 1, 8: 12}","[8, 11, 14, 15, 22, 49]",812114142151221491,Na4Ti1In1Si2P1O12
Na4LaTiSi2PO12,mp-2715727,1.9218999999999995,2.62735739,0.12580167499999906,"{11: 4, 57: 1, 22: 1, 14: 2, 15: 1, 8: 12}","[8, 11, 14, 15, 22, 57]",812114142151221571,Na4La1Ti1Si2P1O12
Na4NbZnSi2PO12,mp-2715754,1.7332999999999998,2.23096261,0.09169771698412887,"{11: 4, 41: 1, 30: 1, 14: 2, 15: 1, 8: 12}","[8, 11, 14, 15, 30, 41]",812114142151301411,Na4Nb1Zn1Si2P1O12
Na4TaZnSi2PO12,mp-2715542,2.6495999999999995,2.33804012,0.08532895123016182,"{11: 4, 73: 1, 30: 1, 14: 2, 15: 1, 8: 12}","[8, 11, 14, 15, 30, 73]",812114142151301731,Na4Ta1Zn1Si2P1O12
Na4GaSi2GePO12,mp-2715732,2.8409,2.30047238,0.0809477394047633,"{11: 4, 31: 1, 14: 2, 32: 1, 15: 1, 8: 12}","[8, 11, 14, 15, 31, 32]",812114142151311321,Na4Ga1Si2Ge1P1O12
Na4ZrGaSi2PO12,mp-2716125,3.6841,1.80423591,0.05314597107143548,"{11: 4, 40: 1, 31: 1, 14: 2, 15: 1, 8: 12}","[8, 11, 14, 15, 31, 40]",812114142151311401,Na4Zr1Ga1Si2P1O12
Na4GaSi2SnPO12,mp-2715772,3.2135999999999996,2.494231,0.05524375051587427,"{11: 4, 31: 1, 14: 2, 50: 1, 15: 1, 8: 12}","[8, 11, 14, 15, 31, 50]",812114142151311501,Na4Ga1Si2Sn1P1O12
Na4HfGaSi2PO12,mp-2716258,3.7489999999999997,1.91004807,0.04484416398810431,"{11: 4, 72: 1, 31: 1, 14: 2, 15: 1, 8: 12}","[8, 11, 14, 15, 31, 72]",812114142151311721,Na4Hf1Ga1Si2P1O12
Na4InSi2GePO12,mp-2715717,2.0256,2.56541387,0.09495615071428176,"{11: 4, 49: 1, 14: 2, 32: 1, 15: 1, 8: 12}","[8, 11, 14, 15, 32, 49]",812114142151321491,Na4In1Si2Ge1P1O12
Na4LaSi2GePO12,mp-2716182,1.3723,2.72113068,0.18121781980158325,"{11: 4, 57: 1, 14: 2, 32: 1, 15: 1, 8: 12}","[8, 11, 14, 15, 32, 57]",812114142151321571,Na4La1Si2Ge1P1O12
Na4ZrInSi2PO12,mp-2715791,3.6457,2.10919032,0.031399826507932715,"{11: 4, 40: 1, 49: 1, 14: 2, 15: 1, 8: 12}","[8, 11, 14, 15, 40, 49]",812114142151401491,Na4Zr1In1Si2P1O12
Na4LaZrSi2PO12,mp-2715586,3.6128,2.20056219,0.07272630805555202,"{11: 4, 57: 1, 40: 1, 14: 2, 15: 1, 8: 12}","[8, 11, 14, 15, 40, 57]",812114142151401571,Na4La1Zr1Si2P1O12
Na4InSi2SnPO12,mp-2715794,2.5387000000000004,2.65427732,0.042427393968254457,"{11: 4, 49: 1, 14: 2, 50: 1, 15: 1, 8: 12}","[8, 11, 14, 15, 49, 50]",812114142151491501,Na4In1Si2Sn1P1O12
Na4HfInSi2PO12,mp-2716235,3.6346000000000003,2.1396763,0.026478047757934497,"{11: 4, 72: 1, 49: 1, 14: 2, 15: 1, 8: 12}","[8, 11, 14, 15, 49, 72]",812114142151491721,Na4Hf1In1Si2P1O12
Na4LaSi2SnPO12,mp-2715643,1.7317999999999998,2.80177609,0.10145883325396632,"{11: 4, 57: 1, 14: 2, 50: 1, 15: 1, 8: 12}","[8, 11, 14, 15, 50, 57]",812114142151501571,Na4La1Si2Sn1P1O12
Na4LaHfSi2PO12,mp-2715756,3.528,2.37603169,0.07721634462301985,"{11: 4, 57: 1, 72: 1, 14: 2, 15: 1, 8: 12}","[8, 11, 14, 15, 57, 72]",812114142151571721,Na4La1Hf1Si2P1O12
Na4CaTiSi2SO12,mp-2714360,2.0465999999999998,1.9449401,0.12090694043650885,"{11: 4, 20: 1, 22: 1, 14: 2, 16: 1, 8: 12}","[8, 11, 14, 16, 20, 22]",812114142161201221,Na4Ca1Ti1Si2S1O12
Na4CaSi2GeSO12,mp-2714568,1.5690999999999997,1.97833983,0.14496235561508097,"{11: 4, 20: 1, 14: 2, 32: 1, 16: 1, 8: 12}","[8, 11, 14, 16, 20, 32]",812114142161201321,Na4Ca1Si2Ge1S1O12
Na4CaZrSi2SO12,mp-2714608,3.4503000000000004,1.89347336,0.09437585904760937,"{11: 4, 20: 1, 40: 1, 14: 2, 16: 1, 8: 12}","[8, 11, 14, 16, 20, 40]",812114142161201401,Na4Ca1Zr1Si2S1O12
Na4CaSi2SnSO12,mp-2714382,1.1873,2.38800732,0.12347189150794158,"{11: 4, 20: 1, 14: 2, 50: 1, 16: 1, 8: 12}","[8, 11, 14, 16, 20, 50]",812114142161201501,Na4Ca1Si2Sn1S1O12
Na4CaHfSi2SO12,mp-2714569,3.3274,2.02913144,0.10045022279099225,"{11: 4, 20: 1, 72: 1, 14: 2, 16: 1, 8: 12}","[8, 11, 14, 16, 20, 72]",812114142161201721,Na4Ca1Hf1Si2S1O12
Na4ScGaSi2SO12,mp-2714460,3.5228,2.03685333,0.09343448060019632,"{11: 4, 21: 1, 31: 1, 14: 2, 16: 1, 8: 12}","[8, 11, 14, 16, 21, 31]",812114142161211311,Na4Sc1Ga1Si2S1O12
Na4ScInSi2SO12,mp-2714461,3.1681999999999997,2.26599996,0.07803110757936516,"{11: 4, 21: 1, 49: 1, 14: 2, 16: 1, 8: 12}","[8, 11, 14, 16, 21, 49]",812114142161211491,Na4Sc1In1Si2S1O12
Na4LaScSi2SO12,mp-2714590,3.6449,2.30771378,0.08513328062003378,"{11: 4, 57: 1, 21: 1, 14: 2, 16: 1, 8: 12}","[8, 11, 14, 16, 21, 57]",812114142161211571,Na4La1Sc1Si2S1O12
Na4Sc2Si2SO12,mp-2714335,4.0564,1.93892907,0.05677259366071219,"{11: 4, 21: 2, 14: 2, 16: 1, 8: 12}","[8, 11, 14, 16, 21]",812114142161212,Na4Sc2Si2S1O12
Na4TiZnSi2SO12,mp-2714597,1.8309000000000002,2.46154858,0.10695961041666902,"{11: 4, 22: 1, 30: 1, 14: 2, 16: 1, 8: 12}","[8, 11, 14, 16, 22, 30]",812114142161221301,Na4Ti1Zn1Si2S1O12
Na4ZnSi2GeSO12,mp-2714530,1.0622000000000003,2.68290513,0.15335976142857355,"{11: 4, 30: 1, 14: 2, 32: 1, 16: 1, 8: 12}","[8, 11, 14, 16, 30, 32]",812114142161301321,Na4Zn1Si2Ge1S1O12
Na4ZrZnSi2SO12,mp-2714435,3.1654,2.2675643,0.10386875962963327,"{11: 4, 40: 1, 30: 1, 14: 2, 16: 1, 8: 12}","[8, 11, 14, 16, 30, 40]",812114142161301401,Na4Zr1Zn1Si2S1O12
Na4ZnSi2SnSO12,mp-2714570,1.3967,2.94184298,0.1268728291269854,"{11: 4, 30: 1, 14: 2, 50: 1, 16: 1, 8: 12}","[8, 11, 14, 16, 30, 50]",812114142161301501,Na4Zn1Si2Sn1S1O12
Na4HfZnSi2SO12,mp-2714462,3.1067999999999993,2.41481342,0.10183746595238219,"{11: 4, 72: 1, 30: 1, 14: 2, 16: 1, 8: 12}","[8, 11, 14, 16, 30, 72]",812114142161301721,Na4Hf1Zn1Si2S1O12
Na4InGaSi2SO12,mp-2714529,3.1304000000000003,2.327654,0.10643022470238162,"{11: 4, 49: 1, 31: 1, 14: 2, 16: 1, 8: 12}","[8, 11, 14, 16, 31, 49]",812114142161311491,Na4In1Ga1Si2S1O12
Na4Ga2Si2SO12,mp-2714392,3.4128,2.22415468,0.12180291253968445,"{11: 4, 31: 2, 14: 2, 16: 1, 8: 12}","[8, 11, 14, 16, 31]",812114142161312,Na4Ga2Si2S1O12
Na4LaInSi2SO12,mp-2714484,2.7542000000000004,2.45997941,0.10451270210317265,"{11: 4, 57: 1, 49: 1, 14: 2, 16: 1, 8: 12}","[8, 11, 14, 16, 49, 57]",812114142161491571,Na4La1In1Si2S1O12
Na4In2Si2SO12,mp-2714596,2.8914,2.45502942,0.08395695543650294,"{11: 4, 49: 2, 14: 2, 16: 1, 8: 12}","[8, 11, 14, 16, 49]",812114142161492,Na4In2Si2S1O12
Na4La2Si2SO12,mp-2714486,3.4126,2.17054489,0.09596647436507943,"{11: 4, 57: 2, 14: 2, 16: 1, 8: 12}","[8, 11, 14, 16, 57]",812114142161572,Na4La2Si2S1O12
Na4Ga3Si3ClO12,mp-23656,4.1073,-0.58860908,0.0,"{11: 4, 31: 3, 14: 3, 17: 1, 8: 12}","[8, 11, 14, 17, 31]",812114143171313,Na4Ga3Si3Cl1O12
Na4ScNb(SiO4)3,mp-2716353,2.6053000000000006,1.80588294,0.03509436603174443,"{11: 4, 21: 1, 41: 1, 14: 3, 8: 12}","[8, 11, 14, 21, 41]",812114143211411,Na4Sc1Nb1Si3O12
Na4ScTa(SiO4)3,mp-2716396,3.5375,1.90035404,0.028208351865077752,"{11: 4, 21: 1, 73: 1, 14: 3, 8: 12}","[8, 11, 14, 21, 73]",812114143211731,Na4Sc1Ta1Si3O12
Na4TiSi3GeO12,mp-2716461,2.8717,2.3316354,0.04258579218254255,"{11: 4, 22: 1, 14: 3, 32: 1, 8: 12}","[8, 11, 14, 22, 32]",812114143221321,Na4Ti1Si3Ge1O12
Na4ZrTi(SiO4)3,mp-2716339,2.8093999999999997,2.0508348,0.02257985785714034,"{11: 4, 40: 1, 22: 1, 14: 3, 8: 12}","[8, 11, 14, 22, 40]",812114143221401,Na4Zr1Ti1Si3O12
Na4TiSi3SnO12,mp-2716530,2.7877,2.42600139,0.019562244007937934,"{11: 4, 22: 1, 14: 3, 50: 1, 8: 12}","[8, 11, 14, 22, 50]",812114143221501,Na4Ti1Si3Sn1O12
Na4HfTi(SiO4)3,mp-2716526,2.8654,2.02930182,0.013136736230161539,"{11: 4, 72: 1, 22: 1, 14: 3, 8: 12}","[8, 11, 14, 22, 72]",812114143221721,Na4Hf1Ti1Si3O12
Na4Ti2(SiO4)3,mp-2716309,2.8214,2.15538554,0.019421001269840588,"{11: 4, 22: 2, 14: 3, 8: 12}","[8, 11, 14, 22]",812114143222,Na4Ti2Si3O12
Na4NbGa(SiO4)3,mp-2716409,2.8199000000000005,2.05648094,0.056177998293645004,"{11: 4, 41: 1, 31: 1, 14: 3, 8: 12}","[8, 11, 14, 31, 41]",812114143311411,Na4Nb1Ga1Si3O12
Na4TaGa(SiO4)3,mp-2716303,3.455,2.06338805,0.047922389761909656,"{11: 4, 73: 1, 31: 1, 14: 3, 8: 12}","[8, 11, 14, 31, 73]",812114143311731,Na4Ta1Ga1Si3O12
Na4Ga3Si3BrO12,mp-23659,4.0513,-0.62206798,0.0,"{11: 4, 31: 3, 14: 3, 35: 1, 8: 12}","[8, 11, 14, 31, 35]",812114143313351,Na4Ga3Si3Br1O12
Na4Ga3Si3IO12,mp-40226,3.6294,0.01111519,0.0,"{11: 4, 31: 3, 14: 3, 53: 1, 8: 12}","[8, 11, 14, 31, 53]",812114143313531,Na4Ga3Si3I1O12
Na4ZrSi3GeO12,mp-2716573,3.1049999999999995,1.99977429,0.04488619668650706,"{11: 4, 40: 1, 14: 3, 32: 1, 8: 12}","[8, 11, 14, 32, 40]",812114143321401,Na4Zr1Si3Ge1O12
Na4Si3SnGeO12,mp-2716376,3.0057000000000005,2.6844811,0.040334965932539824,"{11: 4, 14: 3, 50: 1, 32: 1, 8: 12}","[8, 11, 14, 32, 50]",812114143321501,Na4Si3Sn1Ge1O12
Na4HfSi3GeO12,mp-2716509,3.1318,2.07333198,0.03501103229166613,"{11: 4, 72: 1, 14: 3, 32: 1, 8: 12}","[8, 11, 14, 32, 72]",812114143321721,Na4Hf1Si3Ge1O12
Na4Si3(GeO6)2,mp-2716361,3.2143999999999995,2.46690659,0.05704322109126725,"{11: 4, 14: 3, 32: 2, 8: 12}","[8, 11, 14, 32]",812114143322,Na4Si3Ge2O12
Na4ZrSi3SnO12,mp-2716539,3.3348000000000004,2.17106682,0.010913529999994509,"{11: 4, 40: 1, 14: 3, 50: 1, 8: 12}","[8, 11, 14, 40, 50]",812114143401501,Na4Zr1Si3Sn1O12
Na4HfZr(SiO4)3,mp-2716347,4.174799999999999,1.64948845,0.0033413396428558784,"{11: 4, 72: 1, 40: 1, 14: 3, 8: 12}","[8, 11, 14, 40, 72]",812114143401721,Na4Hf1Zr1Si3O12
Na4Zr2(SiO4)3,mp-6150,4.321199999999999,1.33753023,0.0,"{11: 4, 40: 2, 14: 3, 8: 12}","[8, 11, 14, 40]",812114143402,Na4Zr2Si3O12
Na4NbIn(SiO4)3,mp-2716423,2.4753000000000003,2.30361152,0.04453996513889091,"{11: 4, 41: 1, 49: 1, 14: 3, 8: 12}","[8, 11, 14, 41, 49]",812114143411491,Na4Nb1In1Si3O12
Na4LaNb(SiO4)3,mp-2716462,2.2371999999999996,2.37851322,0.10350999045633902,"{11: 4, 57: 1, 41: 1, 14: 3, 8: 12}","[8, 11, 14, 41, 57]",812114143411571,Na4La1Nb1Si3O12
Na4TaIn(SiO4)3,mp-2716549,3.3406999999999996,2.39822971,0.03815580851190248,"{11: 4, 73: 1, 49: 1, 14: 3, 8: 12}","[8, 11, 14, 49, 73]",812114143491731,Na4Ta1In1Si3O12
Na4HfSi3SnO12,mp-2716570,3.2923999999999998,2.09845742,0.004912234404758742,"{11: 4, 72: 1, 14: 3, 50: 1, 8: 12}","[8, 11, 14, 50, 72]",812114143501721,Na4Hf1Si3Sn1O12
Na4Si3(SnO6)2,mp-554853,3.0661000000000005,2.54761613,0.004773580238095043,"{11: 4, 14: 3, 50: 2, 8: 12}","[8, 11, 14, 50]",812114143502,Na4Si3Sn2O12
Na4LaTa(SiO4)3,mp-2716482,2.9959,2.59844018,0.10188128946428332,"{11: 4, 57: 1, 73: 1, 14: 3, 8: 12}","[8, 11, 14, 57, 73]",812114143571731,Na4La1Ta1Si3O12
Na4Hf2(SiO4)3,mp-2716478,4.1442,1.53101544,0.0,"{11: 4, 72: 2, 14: 3, 8: 12}","[8, 11, 14, 72]",812114143722,Na4Hf2Si3O12
Na4ZnCd(SiO3)4,mp-1221167,3.4754,0.68660161,0.013973854727281854,"{11: 4, 30: 1, 48: 1, 14: 4, 8: 12}","[8, 11, 14, 30, 48]",812114144301481,Na4Zn1Cd1Si4O12
Na5Lu(SiO3)4,mp-1133325,3.8211000000000004,1.11510688,0.007801699962120878,"{11: 5, 71: 1, 14: 4, 8: 12}","[8, 11, 14, 71]",812115144711,Na5Lu1Si4O12
MgV2(SiO4)3,mp-1261307,1.4533,2.18408421,0.19825448847222304,"{12: 1, 23: 2, 14: 3, 8: 12}","[8, 12, 14, 23]",812121143232,Mg1V2Si3O12
MgCr2(SiO4)3,mp-1157835,0.0,2.15168596,0.2555805894444392,"{12: 1, 24: 2, 14: 3, 8: 12}","[8, 12, 14, 24]",812121143242,Mg1Cr2Si3O12
MgTi2(SiO3)4,mp-2230845,0.09389999999999965,6.08580192,0.07289594478070249,"{12: 1, 22: 2, 14: 4, 8: 12}","[8, 12, 14, 22]",812121144222,Mg1Ti2Si4O12
MgV2(SiO3)4,mp-2230687,0.0,4.45345458,0.09532763063596583,"{12: 1, 23: 2, 14: 4, 8: 12}","[8, 12, 14, 23]",812121144232,Mg1V2Si4O12
MgMn2(SiO3)4,mp-2230268,1.0387,3.20753466,0.07530908882310783,"{12: 1, 25: 2, 14: 4, 8: 12}","[8, 12, 14, 25]",812121144252,Mg1Mn2Si4O12
MgCo2(SiO3)4,mp-2230491,1.1806999999999999,2.69599234,0.11416650140350271,"{12: 1, 27: 2, 14: 4, 8: 12}","[8, 12, 14, 27]",812121144272,Mg1Co2Si4O12
MgSi4(MoO6)2,mp-2230886,3.3331,3.67176682,0.044347703859648036,"{12: 1, 14: 4, 42: 2, 8: 12}","[8, 12, 14, 42]",812121144422,Mg1Si4Mo2O12
K2MgSi5O12,mp-667292,4.8799,4.95426696,0.0,"{19: 2, 12: 1, 14: 5, 8: 12}","[8, 12, 14, 19]",812121145192,K2Mg1Si5O12
Rb2MgSi5O12,mp-1020860,4.4847,4.72537433,0.0,"{37: 2, 12: 1, 14: 5, 8: 12}","[8, 12, 14, 37]",812121145372,Rb2Mg1Si5O12
Cs2MgSi5O12,mp-1019610,4.5828,5.23026963,0.0,"{55: 2, 12: 1, 14: 5, 8: 12}","[8, 12, 14, 55]",812121145552,Cs2Mg1Si5O12
Mg(SiO2)6,mp-1233493,4.892099999999999,0.82196355,0.16121555710526003,"{12: 1, 14: 6, 8: 12}","[8, 12, 14]",812121146,Mg1Si6O12
Mg2V2(SiO4)3,mp-1250278,1.7534999999999994,3.29658997,0.112272534254382,"{12: 2, 23: 2, 14: 3, 8: 12}","[8, 12, 14, 23]",812122143232,Mg2V2Si3O12
Mg2Cr2(SiO4)3,mp-1261423,0.7938000000000001,3.16474534,0.13273644036549825,"{12: 2, 24: 2, 14: 3, 8: 12}","[8, 12, 14, 24]",812122143242,Mg2Cr2Si3O12