formula,material_id,band_gap,efermi,energy_above_hull,comp_atoms,sorted_keys_comp_atoms,comp_number,new_formula
Na5Zr2Si3Sn2(PO8)3,mp-2714225,3.0915999999999997,1.68999426,0.04168063647863551,"{11: 5, 40: 2, 14: 3, 50: 2, 15: 3, 8: 24}","[8, 11, 14, 15, 40, 50]",824115143153402502,Na5Zr2Si3Sn2P3O24
Na5Hf2Zr2Si3(PO8)3,mp-2714218,4.2942,1.08232975,0.01840262321581143,"{11: 5, 72: 2, 40: 2, 14: 3, 15: 3, 8: 24}","[8, 11, 14, 15, 40, 72]",824115143153402722,Na5Hf2Zr2Si3P3O24
Na5Zr4Si3(PO8)3,mp-686583,4.1737,0.80989486,0.019901006153839162,"{11: 5, 40: 4, 14: 3, 15: 3, 8: 24}","[8, 11, 14, 15, 40]",824115143153404,Na5Zr4Si3P3O24
Na5Nb2In2Si3(PO8)3,mp-2714140,2.2259,1.67629543,0.07497459427351671,"{11: 5, 41: 2, 49: 2, 14: 3, 15: 3, 8: 24}","[8, 11, 14, 15, 41, 49]",824115143153412492,Na5Nb2In2Si3P3O24
Na5La2Nb2Si3(PO8)3,mp-2714066,1.8738,1.72140193,0.153115645662397,"{11: 5, 57: 2, 41: 2, 14: 3, 15: 3, 8: 24}","[8, 11, 14, 15, 41, 57]",824115143153412572,Na5La2Nb2Si3P3O24
Na5Ta2In2Si3(PO8)3,mp-2714305,2.9925000000000006,1.79130234,0.07118019696581346,"{11: 5, 73: 2, 49: 2, 14: 3, 15: 3, 8: 24}","[8, 11, 14, 15, 49, 73]",824115143153492732,Na5Ta2In2Si3P3O24
Na5Hf2Si3Sn2(PO8)3,mp-2714289,3.2253999999999996,1.6529211,0.03170645336182165,"{11: 5, 72: 2, 14: 3, 50: 2, 15: 3, 8: 24}","[8, 11, 14, 15, 50, 72]",824115143153502722,Na5Hf2Si3Sn2P3O24
Na5Si3Sn4(PO8)3,mp-2714269,2.8952999999999998,2.33313916,0.04848897544444508,"{11: 5, 14: 3, 50: 4, 15: 3, 8: 24}","[8, 11, 14, 15, 50]",824115143153504,Na5Si3Sn4P3O24
Na5La2Ta2Si3(PO8)3,mp-2714285,2.4905000000000004,2.01559648,0.15635996972222355,"{11: 5, 57: 2, 73: 2, 14: 3, 15: 3, 8: 24}","[8, 11, 14, 15, 57, 73]",824115143153572732,Na5La2Ta2Si3P3O24
Na5Hf4Si3(PO8)3,mp-2714052,4.6801,1.1801675,0.010449454732905039,"{11: 5, 72: 4, 14: 3, 15: 3, 8: 24}","[8, 11, 14, 15, 72]",824115143153724,Na5Hf4Si3P3O24
Na5Sc3TiSi3(SO8)3,mp-2713487,1.842,1.77638191,0.08843881300570011,"{11: 5, 21: 3, 22: 1, 14: 3, 16: 3, 8: 24}","[8, 11, 14, 16, 21, 22]",824115143163213221,Na5Sc3Ti1Si3S3O24
Na5Sc3Si3Ge(SO8)3,mp-2713516,2.2696,1.78051718,0.11585870059116221,"{11: 5, 21: 3, 14: 3, 32: 1, 16: 3, 8: 24}","[8, 11, 14, 16, 21, 32]",824115143163213321,Na5Sc3Si3Ge1S3O24
Na5ZrSc3Si3(SO8)3,mp-2713432,3.3157,1.53003528,0.08438732044871777,"{11: 5, 40: 1, 21: 3, 14: 3, 16: 3, 8: 24}","[8, 11, 14, 16, 21, 40]",824115143163213401,Na5Zr1Sc3Si3S3O24
Na5Sc3Si3Sn(SO8)3,mp-2716541,2.524,1.99619278,0.09919723772791311,"{11: 5, 21: 3, 14: 3, 50: 1, 16: 3, 8: 24}","[8, 11, 14, 16, 21, 50]",824115143163213501,Na5Sc3Si3Sn1S3O24
Na5HfSc3Si3(SO8)3,mp-2716334,3.7436000000000007,1.74463255,0.08462941356837739,"{11: 5, 72: 1, 21: 3, 14: 3, 16: 3, 8: 24}","[8, 11, 14, 16, 21, 72]",824115143163213721,Na5Hf1Sc3Si3S3O24
Na5TiGa3Si3(SO8)3,mp-2713489,1.9600999999999997,1.85921768,0.12401779822648962,"{11: 5, 22: 1, 31: 3, 14: 3, 16: 3, 8: 24}","[8, 11, 14, 16, 22, 31]",824115143163221313,Na5Ti1Ga3Si3S3O24
Na5TiIn3Si3(SO8)3,mp-2716327,1.8049,2.22313526,0.11144483245726722,"{11: 5, 22: 1, 49: 3, 14: 3, 16: 3, 8: 24}","[8, 11, 14, 16, 22, 49]",824115143163221493,Na5Ti1In3Si3S3O24
Na5La3TiSi3(SO8)3,mp-2713143,1.7487000000000001,1.91849007,0.12982518695870127,"{11: 5, 57: 3, 22: 1, 14: 3, 16: 3, 8: 24}","[8, 11, 14, 16, 22, 57]",824115143163221573,Na5La3Ti1Si3S3O24
Na5Ga3Si3Ge(SO8)3,mp-2716287,2.3012,2.13375399,0.14950372444443882,"{11: 5, 31: 3, 14: 3, 32: 1, 16: 3, 8: 24}","[8, 11, 14, 16, 31, 32]",824115143163313321,Na5Ga3Si3Ge1S3O24
Na5ZrGa3Si3(SO8)3,mp-2716485,2.9718,1.68004168,0.1274012994017042,"{11: 5, 40: 1, 31: 3, 14: 3, 16: 3, 8: 24}","[8, 11, 14, 16, 31, 40]",824115143163313401,Na5Zr1Ga3Si3S3O24
Na5Ga3Si3Sn(SO8)3,mp-2713348,2.5322000000000005,2.20143095,0.14005290576923013,"{11: 5, 31: 3, 14: 3, 50: 1, 16: 3, 8: 24}","[8, 11, 14, 16, 31, 50]",824115143163313501,Na5Ga3Si3Sn1S3O24
Na5HfGa3Si3(SO8)3,mp-2716432,2.9863,1.77595602,0.12417823094017066,"{11: 5, 72: 1, 31: 3, 14: 3, 16: 3, 8: 24}","[8, 11, 14, 16, 31, 72]",824115143163313721,Na5Hf1Ga3Si3S3O24
Na5In3Si3Ge(SO8)3,mp-2713154,1.9629,2.18212285,0.13971285209401962,"{11: 5, 49: 3, 14: 3, 32: 1, 16: 3, 8: 24}","[8, 11, 14, 16, 32, 49]",824115143163321493,Na5In3Si3Ge1S3O24
Na5La3Si3Ge(SO8)3,mp-2716455,1.9578999999999998,1.87279819,0.15338002334757395,"{11: 5, 57: 3, 14: 3, 32: 1, 16: 3, 8: 24}","[8, 11, 14, 16, 32, 57]",824115143163321573,Na5La3Si3Ge1S3O24
Na5ZrIn3Si3(SO8)3,mp-2713469,2.6583999999999994,2.1224564,0.10617973970085437,"{11: 5, 40: 1, 49: 3, 14: 3, 16: 3, 8: 24}","[8, 11, 14, 16, 40, 49]",824115143163401493,Na5Zr1In3Si3S3O24
Na5La3ZrSi3(SO8)3,mp-2713438,3.2601999999999998,1.88239063,0.11892990944444026,"{11: 5, 57: 3, 40: 1, 14: 3, 16: 3, 8: 24}","[8, 11, 14, 16, 40, 57]",824115143163401573,Na5La3Zr1Si3S3O24
Na5In3Si3Sn(SO8)3,mp-2713198,2.1169,2.32619351,0.12228888709401708,"{11: 5, 49: 3, 14: 3, 50: 1, 16: 3, 8: 24}","[8, 11, 14, 16, 49, 50]",824115143163493501,Na5In3Si3Sn1S3O24
Na5HfIn3Si3(SO8)3,mp-2713170,2.6925000000000003,2.06542842,0.10423111585469957,"{11: 5, 72: 1, 49: 3, 14: 3, 16: 3, 8: 24}","[8, 11, 14, 16, 49, 72]",824115143163493721,Na5Hf1In3Si3S3O24
Na5La3Si3Sn(SO8)3,mp-2713461,1.8647000000000002,2.09103313,0.13326000903133473,"{11: 5, 57: 3, 14: 3, 50: 1, 16: 3, 8: 24}","[8, 11, 14, 16, 50, 57]",824115143163501573,Na5La3Si3Sn1S3O24
Na5La3HfSi3(SO8)3,mp-2713176,3.5225,1.9620646,0.12052179769230609,"{11: 5, 57: 3, 72: 1, 14: 3, 16: 3, 8: 24}","[8, 11, 14, 16, 57, 72]",824115143163573721,Na5La3Hf1Si3S3O24
Na5ScNb3Si5PO24,mp-2716487,2.5048,1.39661425,0.046365265217957585,"{11: 5, 21: 1, 41: 3, 14: 5, 15: 1, 8: 24}","[8, 11, 14, 15, 21, 41]",824115145151211413,Na5Sc1Nb3Si5P1O24
Na5ScTa3Si5PO24,mp-2716404,3.3710999999999998,1.52819438,0.031116426905981598,"{11: 5, 21: 1, 73: 3, 14: 5, 15: 1, 8: 24}","[8, 11, 14, 15, 21, 73]",824115145151211733,Na5Sc1Ta3Si5P1O24
Na5Ti2Nb2Si5PO24,mp-2716518,2.4532,1.69086925,0.04619520407691713,"{11: 5, 22: 2, 41: 2, 14: 5, 15: 1, 8: 24}","[8, 11, 14, 15, 22, 41]",824115145151222412,Na5Ti2Nb2Si5P1O24
Na5Ta2Ti2Si5PO24,mp-2716500,2.4451,1.82512621,0.03414492599999441,"{11: 5, 73: 2, 22: 2, 14: 5, 15: 1, 8: 24}","[8, 11, 14, 15, 22, 73]",824115145151222732,Na5Ta2Ti2Si5P1O24
Na5Nb3GaSi5PO24,mp-2716516,2.5221,1.43887463,0.0528187722649518,"{11: 5, 41: 3, 31: 1, 14: 5, 15: 1, 8: 24}","[8, 11, 14, 15, 31, 41]",824115145151311413,Na5Nb3Ga1Si5P1O24
Na5Ta3GaSi5PO24,mp-2716304,3.3522000000000003,1.61630022,0.039142260363252745,"{11: 5, 73: 3, 31: 1, 14: 5, 15: 1, 8: 24}","[8, 11, 14, 15, 31, 73]",824115145151311733,Na5Ta3Ga1Si5P1O24
Na5Nb2Si5Ge2PO24,mp-2716534,2.5656,1.91973042,0.07750251027777733,"{11: 5, 41: 2, 14: 5, 32: 2, 15: 1, 8: 24}","[8, 11, 14, 15, 32, 41]",824115145151322412,Na5Nb2Si5Ge2P1O24
Na5Ta2Si5Ge2PO24,mp-2716542,2.9507000000000003,2.19998319,0.07008616241452881,"{11: 5, 73: 2, 14: 5, 32: 2, 15: 1, 8: 24}","[8, 11, 14, 15, 32, 73]",824115145151322732,Na5Ta2Si5Ge2P1O24
Na5Zr2Nb2Si5PO24,mp-2716529,2.5216000000000003,1.29960705,0.03759703518161572,"{11: 5, 40: 2, 41: 2, 14: 5, 15: 1, 8: 24}","[8, 11, 14, 15, 40, 41]",824115145151402412,Na5Zr2Nb2Si5P1O24
Na5Zr2Ta2Si5PO24,mp-2716324,3.3735,1.54608021,0.030136788301279083,"{11: 5, 40: 2, 73: 2, 14: 5, 15: 1, 8: 24}","[8, 11, 14, 15, 40, 73]",824115145151402732,Na5Zr2Ta2Si5P1O24
Na5Nb2Si5Sn2PO24,mp-2716328,2.4776,2.02535555,0.04480281993589674,"{11: 5, 41: 2, 14: 5, 50: 2, 15: 1, 8: 24}","[8, 11, 14, 15, 41, 50]",824115145151412502,Na5Nb2Si5Sn2P1O24
Na5Hf2Nb2Si5PO24,mp-2716379,2.6021,1.47227127,0.028901816260683333,"{11: 5, 72: 2, 41: 2, 14: 5, 15: 1, 8: 24}","[8, 11, 14, 15, 41, 72]",824115145151412722,Na5Hf2Nb2Si5P1O24
Na5Nb3InSi5PO24,mp-2716535,2.3467,1.51728778,0.0508103339529935,"{11: 5, 41: 3, 49: 1, 14: 5, 15: 1, 8: 24}","[8, 11, 14, 15, 41, 49]",824115145151413491,Na5Nb3In1Si5P1O24
Na5LaNb3Si5PO24,mp-2716445,2.1656,1.63773867,0.08590835126068264,"{11: 5, 57: 1, 41: 3, 14: 5, 15: 1, 8: 24}","[8, 11, 14, 15, 41, 57]",824115145151413571,Na5La1Nb3Si5P1O24
Na5Ta3InSi5PO24,mp-2716281,3.2640000000000002,1.62964417,0.034899504444448226,"{11: 5, 73: 3, 49: 1, 14: 5, 15: 1, 8: 24}","[8, 11, 14, 15, 49, 73]",824115145151491733,Na5Ta3In1Si5P1O24
Na5Ta2Si5Sn2PO24,mp-2716449,3.1332,2.23561233,0.03442579391025724,"{11: 5, 73: 2, 14: 5, 50: 2, 15: 1, 8: 24}","[8, 11, 14, 15, 50, 73]",824115145151502732,Na5Ta2Si5Sn2P1O24
Na5LaTa3Si5PO24,mp-2716359,3.0730999999999993,1.63158228,0.07111992944444445,"{11: 5, 57: 1, 73: 3, 14: 5, 15: 1, 8: 24}","[8, 11, 14, 15, 57, 73]",824115145151571733,Na5La1Ta3Si5P1O24
Na5Hf2Ta2Si5PO24,mp-2716426,3.3790999999999998,1.61499612,0.02015595185898178,"{11: 5, 72: 2, 73: 2, 14: 5, 15: 1, 8: 24}","[8, 11, 14, 15, 72, 73]",824115145151722732,Na5Hf2Ta2Si5P1O24
Na5TiNb3(SiO4)6,mp-2713212,2.8110999999999997,1.42230532,0.03311958051282815,"{11: 5, 22: 1, 41: 3, 14: 6, 8: 24}","[8, 11, 14, 22, 41]",824115146221413,Na5Ti1Nb3Si6O24
Na5Ta3Ti(SiO4)6,mp-2713408,3.1691000000000003,1.47293867,0.01649990049144634,"{11: 5, 73: 3, 22: 1, 14: 6, 8: 24}","[8, 11, 14, 22, 73]",824115146221733,Na5Ta3Ti1Si6O24
Na5Nb3Si6GeO24,mp-2713174,2.7862999999999998,1.51087887,0.04406315339743916,"{11: 5, 41: 3, 14: 6, 32: 1, 8: 24}","[8, 11, 14, 32, 41]",824115146321413,Na5Nb3Si6Ge1O24
Na5Ta3Si6GeO24,mp-2713392,3.6164000000000005,1.63921527,0.028808379465806055,"{11: 5, 73: 3, 14: 6, 32: 1, 8: 24}","[8, 11, 14, 32, 73]",824115146321733,Na5Ta3Si6Ge1O24
Na5ZrNb3(SiO4)6,mp-2713520,2.8966,1.30944825,0.03328707927350827,"{11: 5, 40: 1, 41: 3, 14: 6, 8: 24}","[8, 11, 14, 40, 41]",824115146401413,Na5Zr1Nb3Si6O24
Na5ZrTa3(SiO4)6,mp-2713527,3.7680000000000007,1.27420434,0.017804328311957107,"{11: 5, 40: 1, 73: 3, 14: 6, 8: 24}","[8, 11, 14, 40, 73]",824115146401733,Na5Zr1Ta3Si6O24
Na5Nb3Si6SnO24,mp-2713210,2.9025,1.48111336,0.028133896517097412,"{11: 5, 41: 3, 14: 6, 50: 1, 8: 24}","[8, 11, 14, 41, 50]",824115146413501,Na5Nb3Si6Sn1O24
Na5HfNb3(SiO4)6,mp-2713403,2.8645,1.31103179,0.0249484225000014,"{11: 5, 72: 1, 41: 3, 14: 6, 8: 24}","[8, 11, 14, 41, 72]",824115146413721,Na5Hf1Nb3Si6O24
Na5Ta3Si6SnO24,mp-2713168,3.7204999999999995,1.66240224,0.010452150598291965,"{11: 5, 73: 3, 14: 6, 50: 1, 8: 24}","[8, 11, 14, 50, 73]",824115146501733,Na5Ta3Si6Sn1O24
Na5HfTa3(SiO4)6,mp-2713519,3.7719000000000005,1.35420347,0.008653554615385417,"{11: 5, 72: 1, 73: 3, 14: 6, 8: 24}","[8, 11, 14, 72, 73]",824115146721733,Na5Hf1Ta3Si6O24
Na6MgTi3Si2(PO6)4,mp-2715397,2.2076,1.87351921,0.033696091901669334,"{11: 6, 12: 1, 22: 3, 14: 2, 15: 4, 8: 24}","[8, 11, 12, 14, 15, 22]",824116121142154223,Na6Mg1Ti3Si2P4O24
Na6MgSi2Ge3(PO6)4,mp-2715306,2.3133,2.43732184,0.09281293449305927,"{11: 6, 12: 1, 14: 2, 32: 3, 15: 4, 8: 24}","[8, 11, 12, 14, 15, 32]",824116121142154323,Na6Mg1Si2Ge3P4O24
Na6MgZr3Si2(PO6)4,mp-2715235,3.6107999999999993,1.7512699,0.018384227395834785,"{11: 6, 12: 1, 40: 3, 14: 2, 15: 4, 8: 24}","[8, 11, 12, 14, 15, 40]",824116121142154403,Na6Mg1Zr3Si2P4O24
Na6MgSi2Sn3(PO6)4,mp-2715344,2.3661,2.69880732,0.044180384004167905,"{11: 6, 12: 1, 14: 2, 50: 3, 15: 4, 8: 24}","[8, 11, 12, 14, 15, 50]",824116121142154503,Na6Mg1Si2Sn3P4O24
Na6Hf3MgSi2(PO6)4,mp-2715407,4.2515,1.83592363,0.011671295479166233,"{11: 6, 72: 3, 12: 1, 14: 2, 15: 4, 8: 24}","[8, 11, 12, 14, 15, 72]",824116121142154723,Na6Hf3Mg1Si2P4O24
Na6MgTi3Si4(SO12)2,mp-2714467,1.8478,2.20476927,0.08953471902083443,"{11: 6, 12: 1, 22: 3, 14: 4, 16: 2, 8: 24}","[8, 11, 12, 14, 16, 22]",824116121144162223,Na6Mg1Ti3Si4S2O24
Na6MgSi4Ge3(SO12)2,mp-2714478,1.2315,2.73211947,0.14834097360416543,"{11: 6, 12: 1, 14: 4, 32: 3, 16: 2, 8: 24}","[8, 11, 12, 14, 16, 32]",824116121144162323,Na6Mg1Si4Ge3S2O24
Na6MgZr3Si4(SO12)2,mp-2714454,3.1742,1.92652994,0.08947200902083452,"{11: 6, 12: 1, 40: 3, 14: 4, 16: 2, 8: 24}","[8, 11, 12, 14, 16, 40]",824116121144162403,Na6Mg1Zr3Si4S2O24
Na6MgSi4Sn3(SO12)2,mp-2714471,1.5613000000000001,2.97913513,0.11198008545833016,"{11: 6, 12: 1, 14: 4, 50: 3, 16: 2, 8: 24}","[8, 11, 12, 14, 16, 50]",824116121144162503,Na6Mg1Si4Sn3S2O24
Na6Hf3MgSi4(SO12)2,mp-2714531,3.4372,2.02590179,0.08131953054166541,"{11: 6, 72: 3, 12: 1, 14: 4, 16: 2, 8: 24}","[8, 11, 12, 14, 16, 72]",824116121144162723,Na6Hf3Mg1Si4S2O24
Na6Ca2Mg2SiS5O24,mp-2713935,3.6694000000000004,2.06744804,0.07966362674999505,"{11: 6, 20: 2, 12: 2, 14: 1, 16: 5, 8: 24}","[8, 11, 12, 14, 16, 20]",824116122141165202,Na6Ca2Mg2Si1S5O24
Na6Mg2Zn2SiS5O24,mp-2713829,3.3569,2.10629821,0.07879254179166573,"{11: 6, 12: 2, 30: 2, 14: 1, 16: 5, 8: 24}","[8, 11, 12, 14, 16, 30]",824116122141165302,Na6Mg2Zn2Si1S5O24
Na6Mg2Ti2Si3(SO8)3,mp-2716140,0.36919999999999975,2.49842455,0.12188538112500602,"{11: 6, 12: 2, 22: 2, 14: 3, 16: 3, 8: 24}","[8, 11, 12, 14, 16, 22]",824116122143163222,Na6Mg2Ti2Si3S3O24
Na6Mg2Si3Ge2(SO8)3,mp-2716146,0.9359999999999999,2.33653645,0.17059616070833084,"{11: 6, 12: 2, 14: 3, 32: 2, 16: 3, 8: 24}","[8, 11, 12, 14, 16, 32]",824116122143163322,Na6Mg2Si3Ge2S3O24
Na6Mg2Zr2Si3(SO8)3,mp-2716268,1.8865999999999996,2.27196429,0.12031760591666263,"{11: 6, 12: 2, 40: 2, 14: 3, 16: 3, 8: 24}","[8, 11, 12, 14, 16, 40]",824116122143163402,Na6Mg2Zr2Si3S3O24
Na6Mg2Si3Sn2(SO8)3,mp-2716259,0.6643999999999997,3.18300717,0.13865815658333158,"{11: 6, 12: 2, 14: 3, 50: 2, 16: 3, 8: 24}","[8, 11, 12, 14, 16, 50]",824116122143163502,Na6Mg2Si3Sn2S3O24
Na6Hf2Mg2Si3(SO8)3,mp-2716190,2.6546000000000003,2.40878959,0.11538653341666372,"{11: 6, 72: 2, 12: 2, 14: 3, 16: 3, 8: 24}","[8, 11, 12, 14, 16, 72]",824116122143163722,Na6Hf2Mg2Si3S3O24
Na6Mg3TiSi2(SO6)4,mp-2712530,1.0297,2.62891224,0.0965200604375056,"{11: 6, 12: 3, 22: 1, 14: 2, 16: 4, 8: 24}","[8, 11, 12, 14, 16, 22]",824116123142164221,Na6Mg3Ti1Si2S4O24
Na6Mg3Si2Ge(SO6)4,mp-2712786,1.6824999999999997,2.5678954,0.1255198062083318,"{11: 6, 12: 3, 14: 2, 32: 1, 16: 4, 8: 24}","[8, 11, 12, 14, 16, 32]",824116123142164321,Na6Mg3Si2Ge1S4O24
Na6Mg3ZrSi2(SO6)4,mp-2712628,2.2899999999999996,2.52519615,0.10104192800000344,"{11: 6, 12: 3, 40: 1, 14: 2, 16: 4, 8: 24}","[8, 11, 12, 14, 16, 40]",824116123142164401,Na6Mg3Zr1Si2S4O24
Na6Mg3Si2Sn(SO6)4,mp-2712579,1.8509000000000002,2.78903776,0.1079773804583386,"{11: 6, 12: 3, 14: 2, 50: 1, 16: 4, 8: 24}","[8, 11, 12, 14, 16, 50]",824116123142164501,Na6Mg3Si2Sn1S4O24
Na6HfMg3Si2(SO6)4,mp-2712732,3.0403000000000002,2.69536743,0.0992396843333383,"{11: 6, 72: 1, 12: 3, 14: 2, 16: 4, 8: 24}","[8, 11, 12, 14, 16, 72]",824116123142164721,Na6Hf1Mg3Si2S4O24
Na6Mg4SiS5O24,mp-2713967,3.7085,2.44310582,0.0554633157083364,"{11: 6, 12: 4, 14: 1, 16: 5, 8: 24}","[8, 11, 12, 14, 16]",824116124141165,Na6Mg4Si1S5O24
Na6Ca2Zn2SiS5O24,mp-2713723,3.1066000000000003,1.40470254,0.1123529117500004,"{11: 6, 20: 2, 30: 2, 14: 1, 16: 5, 8: 24}","[8, 11, 14, 16, 20, 30]",824116141165202302,Na6Ca2Zn2Si1S5O24
Na6Ca4SiS5O24,mp-2714549,3.2897000000000003,1.55020692,0.05094120872916896,"{11: 6, 20: 4, 14: 1, 16: 5, 8: 24}","[8, 11, 14, 16, 20]",824116141165204,Na6Ca4Si1S5O24
Na6Zn4SiS5O24,mp-2713930,3.3817000000000004,1.51873438,0.0854047023541682,"{11: 6, 30: 4, 14: 1, 16: 5, 8: 24}","[8, 11, 14, 16, 30]",824116141165304,Na6Zn4Si1S5O24
Na6CaTi3Si2(PO6)4,mp-2715370,2.5165999999999995,1.5618905,0.046543598586330504,"{11: 6, 20: 1, 22: 3, 14: 2, 15: 4, 8: 24}","[8, 11, 14, 15, 20, 22]",824116142154201223,Na6Ca1Ti3Si2P4O24
Na6CaSi2Ge3(PO6)4,mp-2715304,2.153,1.96391647,0.12345605302083129,"{11: 6, 20: 1, 14: 2, 32: 3, 15: 4, 8: 24}","[8, 11, 14, 15, 20, 32]",824116142154201323,Na6Ca1Si2Ge3P4O24
Na6CaZr3Si2(PO6)4,mp-2715323,3.5844000000000005,1.39062981,0.024034620437504373,"{11: 6, 20: 1, 40: 3, 14: 2, 15: 4, 8: 24}","[8, 11, 14, 15, 20, 40]",824116142154201403,Na6Ca1Zr3Si2P4O24
Na6CaSi2Sn3(PO6)4,mp-2715348,2.0352,2.54300447,0.05678069177083511,"{11: 6, 20: 1, 14: 2, 50: 3, 15: 4, 8: 24}","[8, 11, 14, 15, 20, 50]",824116142154201503,Na6Ca1Si2Sn3P4O24
Na6CaHf3Si2(PO6)4,mp-2715307,4.1996,1.61675362,0.02071226077083299,"{11: 6, 20: 1, 72: 3, 14: 2, 15: 4, 8: 24}","[8, 11, 14, 15, 20, 72]",824116142154201723,Na6Ca1Hf3Si2P4O24
Na6Sc3NbSi2(PO6)4,mp-2715236,2.7390999999999996,1.47379757,0.03781413692083557,"{11: 6, 21: 3, 41: 1, 14: 2, 15: 4, 8: 24}","[8, 11, 14, 15, 21, 41]",824116142154213411,Na6Sc3Nb1Si2P4O24
Na6Sc3TaSi2(PO6)4,mp-2715380,3.3914999999999997,1.64826991,0.03348203948333328,"{11: 6, 21: 3, 73: 1, 14: 2, 15: 4, 8: 24}","[8, 11, 14, 15, 21, 73]",824116142154213731,Na6Sc3Ta1Si2P4O24
Na6Ti3ZnSi2(PO6)4,mp-2715325,2.1868,1.78712356,0.04782756606499561,"{11: 6, 22: 3, 30: 1, 14: 2, 15: 4, 8: 24}","[8, 11, 14, 15, 22, 30]",824116142154223301,Na6Ti3Zn1Si2P4O24
Na6ZnSi2Ge3(PO6)4,mp-2715511,2.3596000000000004,2.14603422,0.10567119266666758,"{11: 6, 30: 1, 14: 2, 32: 3, 15: 4, 8: 24}","[8, 11, 14, 15, 30, 32]",824116142154301323,Na6Zn1Si2Ge3P4O24
Na6Zr3ZnSi2(PO6)4,mp-2715277,3.6668000000000003,1.40089001,0.03218173747916797,"{11: 6, 40: 3, 30: 1, 14: 2, 15: 4, 8: 24}","[8, 11, 14, 15, 30, 40]",824116142154301403,Na6Zr3Zn1Si2P4O24
Na6ZnSi2Sn3(PO6)4,mp-2715400,2.3312,2.40970715,0.05732065849583723,"{11: 6, 30: 1, 14: 2, 50: 3, 15: 4, 8: 24}","[8, 11, 14, 15, 30, 50]",824116142154301503,Na6Zn1Si2Sn3P4O24
Na6Hf3ZnSi2(PO6)4,mp-2715320,4.2102,1.62862452,0.025634975479165156,"{11: 6, 72: 3, 30: 1, 14: 2, 15: 4, 8: 24}","[8, 11, 14, 15, 30, 72]",824116142154301723,Na6Hf3Zn1Si2P4O24
Na6NbGa3Si2(PO6)4,mp-2715354,2.5424,1.86731323,0.05497381046666838,"{11: 6, 41: 1, 31: 3, 14: 2, 15: 4, 8: 24}","[8, 11, 14, 15, 31, 41]",824116142154313411,Na6Nb1Ga3Si2P4O24
Na6TaGa3Si2(PO6)4,mp-2715253,3.3629,1.9171865,0.052200229654168595,"{11: 6, 73: 1, 31: 3, 14: 2, 15: 4, 8: 24}","[8, 11, 14, 15, 31, 73]",824116142154313731,Na6Ta1Ga3Si2P4O24
Na6NbIn3Si2(PO6)4,mp-2715469,2.6242,2.03142146,0.04470424825000219,"{11: 6, 41: 1, 49: 3, 14: 2, 15: 4, 8: 24}","[8, 11, 14, 15, 41, 49]",824116142154411493,Na6Nb1In3Si2P4O24
Na6La3NbSi2(PO6)4,mp-2715294,2.449,1.94279303,0.09314510114583818,"{11: 6, 57: 3, 41: 1, 14: 2, 15: 4, 8: 24}","[8, 11, 14, 15, 41, 57]",824116142154411573,Na6La3Nb1Si2P4O24
Na6TaIn3Si2(PO6)4,mp-2715278,3.3595,2.05624947,0.04066690360416825,"{11: 6, 73: 1, 49: 3, 14: 2, 15: 4, 8: 24}","[8, 11, 14, 15, 49, 73]",824116142154493731,Na6Ta1In3Si2P4O24
Na6La3TaSi2(PO6)4,mp-2715276,3.17,2.04759956,0.09557065108333873,"{11: 6, 57: 3, 73: 1, 14: 2, 15: 4, 8: 24}","[8, 11, 14, 15, 57, 73]",824116142154573731,Na6La3Ta1Si2P4O24
Na6Ca3TiSi2(SO6)4,mp-2712659,1.0464,1.87731699,0.10818498197916249,"{11: 6, 20: 3, 22: 1, 14: 2, 16: 4, 8: 24}","[8, 11, 14, 16, 20, 22]",824116142164203221,Na6Ca3Ti1Si2S4O24
Na6Ca3Si2Ge(SO6)4,mp-2712601,1.419,1.92085045,0.1286191432916679,"{11: 6, 20: 3, 14: 2, 32: 1, 16: 4, 8: 24}","[8, 11, 14, 16, 20, 32]",824116142164203321,Na6Ca3Si2Ge1S4O24
Na6Ca3ZrSi2(SO6)4,mp-2712803,2.5256,1.79976398,0.10006048879166496,"{11: 6, 20: 3, 40: 1, 14: 2, 16: 4, 8: 24}","[8, 11, 14, 16, 20, 40]",824116142164203401,Na6Ca3Zr1Si2S4O24
Na6Ca3Si2Sn(SO6)4,mp-2712795,1.6861000000000002,2.0501585,0.11441145416667098,"{11: 6, 20: 3, 14: 2, 50: 1, 16: 4, 8: 24}","[8, 11, 14, 16, 20, 50]",824116142164203501,Na6Ca3Si2Sn1S4O24
Na6Ca3HfSi2(SO6)4,mp-2712735,3.0976,1.98446318,0.10161804431250232,"{11: 6, 20: 3, 72: 1, 14: 2, 16: 4, 8: 24}","[8, 11, 14, 16, 20, 72]",824116142164203721,Na6Ca3Hf1Si2S4O24
Na6TiZn3Si2(SO6)4,mp-2712791,1.3663999999999998,2.00065361,0.11675200703125466,"{11: 6, 22: 1, 30: 3, 14: 2, 16: 4, 8: 24}","[8, 11, 14, 16, 22, 30]",824116142164221303,Na6Ti1Zn3Si2S4O24
Na6Zn3Si2Ge(SO6)4,mp-2712616,1.9695,1.93687069,0.1423749457187533,"{11: 6, 30: 3, 14: 2, 32: 1, 16: 4, 8: 24}","[8, 11, 14, 16, 30, 32]",824116142164303321,Na6Zn3Si2Ge1S4O24
Na6ZrZn3Si2(SO6)4,mp-2712789,2.6860999999999997,1.88971451,0.1212601637604136,"{11: 6, 40: 1, 30: 3, 14: 2, 16: 4, 8: 24}","[8, 11, 14, 16, 30, 40]",824116142164303401,Na6Zr1Zn3Si2S4O24
Na6Zn3Si2Sn(SO6)4,mp-2712651,2.1078,2.04183166,0.12513404463541988,"{11: 6, 30: 3, 14: 2, 50: 1, 16: 4, 8: 24}","[8, 11, 14, 16, 30, 50]",824116142164303501,Na6Zn3Si2Sn1S4O24