formula,material_id,band_gap,efermi,energy_above_hull,comp_atoms,sorted_keys_comp_atoms,comp_number,new_formula
NaCaTaSi(SO6)2,mp-2712757,1.3099,1.45527335,0.177774030509263,"{11: 1, 20: 1, 73: 1, 14: 1, 16: 2, 8: 12}","[8, 11, 14, 16, 20, 73]",812111141162201731,Na1Ca1Ta1Si1S2O12
NaScTiSi(SO6)2,mp-2712602,1.9722,0.90294083,0.06719542629629771,"{11: 1, 21: 1, 22: 1, 14: 1, 16: 2, 8: 12}","[8, 11, 14, 16, 21, 22]",812111141162211221,Na1Sc1Ti1Si1S2O12
NaScSiGe(SO6)2,mp-2712555,1.2133000000000003,1.20248362,0.14823847115741184,"{11: 1, 21: 1, 14: 1, 32: 1, 16: 2, 8: 12}","[8, 11, 14, 16, 21, 32]",812111141162211321,Na1Sc1Si1Ge1S2O12
NaZrScSi(SO6)2,mp-2712623,3.4774,0.80349889,0.05843282680555628,"{11: 1, 40: 1, 21: 1, 14: 1, 16: 2, 8: 12}","[8, 11, 14, 16, 21, 40]",812111141162211401,Na1Zr1Sc1Si1S2O12
NaScSiSn(SO6)2,mp-2712559,1.8200999999999998,1.57715148,0.09942217893519079,"{11: 1, 21: 1, 14: 1, 50: 1, 16: 2, 8: 12}","[8, 11, 14, 16, 21, 50]",812111141162211501,Na1Sc1Si1Sn1S2O12
NaHfScSi(SO6)2,mp-2712608,4.1632,0.87182548,0.05595417652777801,"{11: 1, 72: 1, 21: 1, 14: 1, 16: 2, 8: 12}","[8, 11, 14, 16, 21, 72]",812111141162211721,Na1Hf1Sc1Si1S2O12
NaTiGaSi(SO6)2,mp-2712648,2.1717,1.20009959,0.05184209912036852,"{11: 1, 22: 1, 31: 1, 14: 1, 16: 2, 8: 12}","[8, 11, 14, 16, 22, 31]",812111141162221311,Na1Ti1Ga1Si1S2O12
NaTiInSi(SO6)2,mp-2712697,1.7024,1.31298611,0.07399098041666718,"{11: 1, 22: 1, 49: 1, 14: 1, 16: 2, 8: 12}","[8, 11, 14, 16, 22, 49]",812111141162221491,Na1Ti1In1Si1S2O12
NaLaTiSi(SO6)2,mp-2712642,1.5088,0.96310498,0.16584966949073454,"{11: 1, 57: 1, 22: 1, 14: 1, 16: 2, 8: 12}","[8, 11, 14, 16, 22, 57]",812111141162221571,Na1La1Ti1Si1S2O12
NaNbZnSi(SO6)2,mp-2712749,1.1397,1.16637727,0.10363629896858662,"{11: 1, 41: 1, 30: 1, 14: 1, 16: 2, 8: 12}","[8, 11, 14, 16, 30, 41]",812111141162301411,Na1Nb1Zn1Si1S2O12
NaTaZnSi(SO6)2,mp-2712612,1.7409999999999999,1.49824407,0.10682447850694832,"{11: 1, 73: 1, 30: 1, 14: 1, 16: 2, 8: 12}","[8, 11, 14, 16, 30, 73]",812111141162301731,Na1Ta1Zn1Si1S2O12
NaGaSiGe(SO6)2,mp-2712713,1.8034999999999999,1.33387036,0.1256055853703657,"{11: 1, 31: 1, 14: 1, 32: 1, 16: 2, 8: 12}","[8, 11, 14, 16, 31, 32]",812111141162311321,Na1Ga1Si1Ge1S2O12
NaZrGaSi(SO6)2,mp-2712609,3.3795,0.7860212,0.05400481564814896,"{11: 1, 40: 1, 31: 1, 14: 1, 16: 2, 8: 12}","[8, 11, 14, 16, 31, 40]",812111141162311401,Na1Zr1Ga1Si1S2O12
NaGaSiSn(SO6)2,mp-2712773,2.4940999999999995,1.58781341,0.08890393814814157,"{11: 1, 31: 1, 14: 1, 50: 1, 16: 2, 8: 12}","[8, 11, 14, 16, 31, 50]",812111141162311501,Na1Ga1Si1Sn1S2O12
NaHfGaSi(SO6)2,mp-2712690,3.5321000000000002,1.02855085,0.0489722881481498,"{11: 1, 72: 1, 31: 1, 14: 1, 16: 2, 8: 12}","[8, 11, 14, 16, 31, 72]",812111141162311721,Na1Hf1Ga1Si1S2O12
NaLaSiGe(SO6)2,mp-2712688,0.04670000000000002,0.43843136,0.22228273953703592,"{11: 1, 57: 1, 14: 1, 32: 1, 16: 2, 8: 12}","[8, 11, 14, 16, 32, 57]",812111141162321571,Na1La1Si1Ge1S2O12
NaZrInSi(SO6)2,mp-2712568,3.3449,1.16082939,0.05100139962962835,"{11: 1, 40: 1, 49: 1, 14: 1, 16: 2, 8: 12}","[8, 11, 14, 16, 40, 49]",812111141162401491,Na1Zr1In1Si1S2O12
NaLaZrSi(SO6)2,mp-2712741,2.8202000000000003,1.04385357,0.12399481944443913,"{11: 1, 57: 1, 40: 1, 14: 1, 16: 2, 8: 12}","[8, 11, 14, 16, 40, 57]",812111141162401571,Na1La1Zr1Si1S2O12
NaInSiSn(SO6)2,mp-2712550,1.6593,1.88760922,0.09631173351851796,"{11: 1, 49: 1, 14: 1, 50: 1, 16: 2, 8: 12}","[8, 11, 14, 16, 49, 50]",812111141162491501,Na1In1Si1Sn1S2O12
NaHfInSi(SO6)2,mp-2712693,3.4972999999999996,1.31151076,0.05163648916666741,"{11: 1, 72: 1, 49: 1, 14: 1, 16: 2, 8: 12}","[8, 11, 14, 16, 49, 72]",812111141162491721,Na1Hf1In1Si1S2O12
NaLaSiSn(SO6)2,mp-2712778,0.7739000000000003,1.4989626,0.16988084277778004,"{11: 1, 57: 1, 14: 1, 50: 1, 16: 2, 8: 12}","[8, 11, 14, 16, 50, 57]",812111141162501571,Na1La1Si1Sn1S2O12
NaLaHfSi(SO6)2,mp-2712766,3.6217000000000006,1.20538426,0.13125394277777236,"{11: 1, 57: 1, 72: 1, 14: 1, 16: 2, 8: 12}","[8, 11, 14, 16, 57, 72]",812111141162571721,Na1La1Hf1Si1S2O12
NaTaNbSi2PO12,mp-2713379,3.032,0.69726876,0.010002585787034945,"{11: 1, 73: 1, 41: 1, 14: 2, 15: 1, 8: 12}","[8, 11, 14, 15, 41, 73]",812111142151411731,Na1Ta1Nb1Si2P1O12
NaNb2Si2PO12,mp-2713518,2.9846000000000004,0.60818615,0.014593173333327769,"{11: 1, 41: 2, 14: 2, 15: 1, 8: 12}","[8, 11, 14, 15, 41]",812111142151412,Na1Nb2Si2P1O12
NaTa2Si2PO12,mp-2713211,3.8376,0.86553818,0.0,"{11: 1, 73: 2, 14: 2, 15: 1, 8: 12}","[8, 11, 14, 15, 73]",812111142151732,Na1Ta2Si2P1O12
NaTiNbSi2SO12,mp-2715810,2.7750000000000004,0.7626067,0.05082318219742277,"{11: 1, 22: 1, 41: 1, 14: 2, 16: 1, 8: 12}","[8, 11, 14, 16, 22, 41]",812111142161221411,Na1Ti1Nb1Si2S1O12
NaTaTiSi2SO12,mp-2715603,3.3152,0.88790989,0.04094390758101518,"{11: 1, 73: 1, 22: 1, 14: 2, 16: 1, 8: 12}","[8, 11, 14, 16, 22, 73]",812111142161221731,Na1Ta1Ti1Si2S1O12
NaNbSi2GeSO12,mp-2715734,2.8414,0.89595132,0.0997977388293636,"{11: 1, 41: 1, 14: 2, 32: 1, 16: 1, 8: 12}","[8, 11, 14, 16, 32, 41]",812111142161321411,Na1Nb1Si2Ge1S1O12
NaTaSi2GeSO12,mp-2715526,3.2737000000000003,0.92634041,0.08366666060185146,"{11: 1, 73: 1, 14: 2, 32: 1, 16: 1, 8: 12}","[8, 11, 14, 16, 32, 73]",812111142161321731,Na1Ta1Si2Ge1S1O12
NaZrNbSi2SO12,mp-2715804,2.5824000000000003,0.49595888,0.05940543158399336,"{11: 1, 40: 1, 41: 1, 14: 2, 16: 1, 8: 12}","[8, 11, 14, 16, 40, 41]",812111142161401411,Na1Zr1Nb1Si2S1O12
NaZrTaSi2SO12,mp-2715547,3.381,0.68042549,0.05105353900463072,"{11: 1, 40: 1, 73: 1, 14: 2, 16: 1, 8: 12}","[8, 11, 14, 16, 40, 73]",812111142161401731,Na1Zr1Ta1Si2S1O12
NaNbSi2SnSO12,mp-2715587,2.6601,1.31771214,0.07888564132936349,"{11: 1, 41: 1, 14: 2, 50: 1, 16: 1, 8: 12}","[8, 11, 14, 16, 41, 50]",812111142161411501,Na1Nb1Si2Sn1S1O12
NaHfNbSi2SO12,mp-2715722,2.6247,0.611522,0.048437622833995775,"{11: 1, 72: 1, 41: 1, 14: 2, 16: 1, 8: 12}","[8, 11, 14, 16, 41, 72]",812111142161411721,Na1Hf1Nb1Si2S1O12
NaTaSi2SnSO12,mp-2715528,3.1971,1.32603204,0.0716495769907386,"{11: 1, 73: 1, 14: 2, 50: 1, 16: 1, 8: 12}","[8, 11, 14, 16, 50, 73]",812111142161501731,Na1Ta1Si2Sn1S1O12
NaHfTaSi2SO12,mp-2715650,3.4003,0.76823334,0.04214958905092736,"{11: 1, 72: 1, 73: 1, 14: 2, 16: 1, 8: 12}","[8, 11, 14, 16, 72, 73]",812111142161721731,Na1Hf1Ta1Si2S1O12
K3NaTi2(SiO4)3,mp-2716502,2.5908000000000007,1.97525856,0.06680919501190363,"{19: 3, 11: 1, 22: 2, 14: 3, 8: 12}","[8, 11, 14, 19, 22]",812111143193222,K3Na1Ti2Si3O12
K3NaSi3(GeO6)2,mp-2716368,2.4875,2.25535436,0.1576474707936546,"{19: 3, 11: 1, 14: 3, 32: 2, 8: 12}","[8, 11, 14, 19, 32]",812111143193322,K3Na1Si3Ge2O12
K3NaZr2(SiO4)3,mp-2716298,4.2645,1.42497745,0.023746646210314637,"{19: 3, 11: 1, 40: 2, 14: 3, 8: 12}","[8, 11, 14, 19, 40]",812111143193402,K3Na1Zr2Si3O12
K3NaSi3(SnO6)2,mp-2716393,2.707,2.43027766,0.06046506191610046,"{19: 3, 11: 1, 14: 3, 50: 2, 8: 12}","[8, 11, 14, 19, 50]",812111143193502,K3Na1Si3Sn2O12
K3NaHf2(SiO4)3,mp-2716365,4.6751,1.57344664,0.0,"{19: 3, 11: 1, 72: 2, 14: 3, 8: 12}","[8, 11, 14, 19, 72]",812111143193722,K3Na1Hf2Si3O12
NaCaScZn(SiO3)4,mp-684991,4.549300000000001,2.66153486,0.019179824750003682,"{11: 1, 20: 1, 21: 1, 30: 1, 14: 4, 8: 12}","[8, 11, 14, 20, 21, 30]",812111144201211301,Na1Ca1Sc1Zn1Si4O12
Na(SiO2)6,mp-1212197,0.06919999999999993,3.1385208,0.10453785861841425,"{11: 1, 14: 6, 8: 12}","[8, 11, 14]",812111146,Na1Si6O12
Na2MgTiSi(SO6)2,mp-2713623,1.3868,1.86836415,0.10652530750000366,"{11: 2, 12: 1, 22: 1, 14: 1, 16: 2, 8: 12}","[8, 11, 12, 14, 16, 22]",812112121141162221,Na2Mg1Ti1Si1S2O12
Na2MgSiGe(SO6)2,mp-2713695,0.8302,2.2040363,0.18207941464912736,"{11: 2, 12: 1, 14: 1, 32: 1, 16: 2, 8: 12}","[8, 11, 12, 14, 16, 32]",812112121141162321,Na2Mg1Si1Ge1S2O12
Na2MgZrSi(SO6)2,mp-2713226,2.9789,1.64449943,0.0983475931578992,"{11: 2, 12: 1, 40: 1, 14: 1, 16: 2, 8: 12}","[8, 11, 12, 14, 16, 40]",812112121141162401,Na2Mg1Zr1Si1S2O12
Na2MgSiSn(SO6)2,mp-2713293,1.2487,2.28068505,0.13429116587719747,"{11: 2, 12: 1, 14: 1, 50: 1, 16: 2, 8: 12}","[8, 11, 12, 14, 16, 50]",812112121141162501,Na2Mg1Si1Sn1S2O12
Na2HfMgSi(SO6)2,mp-2713314,3.6257,1.90943625,0.096102250087724,"{11: 2, 72: 1, 12: 1, 14: 1, 16: 2, 8: 12}","[8, 11, 12, 14, 16, 72]",812112121141162721,Na2Hf1Mg1Si1S2O12
Na2MgSi5O12,mp-560603,4.8278,3.40537546,0.045618825083335146,"{11: 2, 12: 1, 14: 5, 8: 12}","[8, 11, 12, 14]",812112121145,Na2Mg1Si5O12
Na2SiO12,mp-1205057,0.0,-0.21524453,0.5072047617500006,"{11: 2, 14: 1, 8: 12}","[8, 11, 14]",812112141,Na2Si1O12
Na2ScNbSi(PO6)2,mp-2712586,2.2304000000000004,1.29148223,0.0538923228946917,"{11: 2, 21: 1, 41: 1, 14: 1, 15: 2, 8: 12}","[8, 11, 14, 15, 21, 41]",812112141152211411,Na2Sc1Nb1Si1P2O12
Na2ScTaSi(PO6)2,mp-2712661,3.0332,1.411976,0.052585387763166125,"{11: 2, 21: 1, 73: 1, 14: 1, 15: 2, 8: 12}","[8, 11, 14, 15, 21, 73]",812112141152211731,Na2Sc1Ta1Si1P2O12
Na2TiSiGe(PO6)2,mp-2712542,2.6407,1.67455189,0.06805767009298513,"{11: 2, 22: 1, 14: 1, 32: 1, 15: 2, 8: 12}","[8, 11, 14, 15, 22, 32]",812112141152221321,Na2Ti1Si1Ge1P2O12
Na2ZrTiSi(PO6)2,mp-2712751,2.5704000000000002,1.20060419,0.03145549356315591,"{11: 2, 40: 1, 22: 1, 14: 1, 15: 2, 8: 12}","[8, 11, 14, 15, 22, 40]",812112141152221401,Na2Zr1Ti1Si1P2O12
Na2TiSiSn(PO6)2,mp-2712704,2.5292000000000003,1.90105226,0.037645671057895846,"{11: 2, 22: 1, 14: 1, 50: 1, 15: 2, 8: 12}","[8, 11, 14, 15, 22, 50]",812112141152221501,Na2Ti1Si1Sn1P2O12
Na2HfTiSi(PO6)2,mp-2712614,2.5477999999999996,1.27129716,0.029079260236837712,"{11: 2, 72: 1, 22: 1, 14: 1, 15: 2, 8: 12}","[8, 11, 14, 15, 22, 72]",812112141152221721,Na2Hf1Ti1Si1P2O12
Na2Ti2Si(PO6)2,mp-2712538,2.5624000000000002,1.51325195,0.027798666098249214,"{11: 2, 22: 2, 14: 1, 15: 2, 8: 12}","[8, 11, 14, 15, 22]",812112141152222,Na2Ti2Si1P2O12
Na2NbGaSi(PO6)2,mp-2712547,2.3453,1.44214803,0.055393619342104294,"{11: 2, 41: 1, 31: 1, 14: 1, 15: 2, 8: 12}","[8, 11, 14, 15, 31, 41]",812112141152311411,Na2Nb1Ga1Si1P2O12
Na2TaGaSi(PO6)2,mp-2712796,3.1936999999999998,1.54189105,0.051037051842103054,"{11: 2, 73: 1, 31: 1, 14: 1, 15: 2, 8: 12}","[8, 11, 14, 15, 31, 73]",812112141152311731,Na2Ta1Ga1Si1P2O12
Na2ZrSiGe(PO6)2,mp-2712729,2.9274999999999993,1.43743007,0.07835830685964851,"{11: 2, 40: 1, 14: 1, 32: 1, 15: 2, 8: 12}","[8, 11, 14, 15, 32, 40]",812112141152321401,Na2Zr1Si1Ge1P2O12
Na2SiSnGe(PO6)2,mp-2712730,2.8774999999999995,2.10189909,0.07269046384210665,"{11: 2, 14: 1, 50: 1, 32: 1, 15: 2, 8: 12}","[8, 11, 14, 15, 32, 50]",812112141152321501,Na2Si1Sn1Ge1P2O12
Na2HfSiGe(PO6)2,mp-2712719,2.8291000000000004,1.50327913,0.07918783124634388,"{11: 2, 72: 1, 14: 1, 32: 1, 15: 2, 8: 12}","[8, 11, 14, 15, 32, 72]",812112141152321721,Na2Hf1Si1Ge1P2O12
Na2SiGe2(PO6)2,mp-2712760,3.0792,1.95958755,0.08536244605264276,"{11: 2, 14: 1, 32: 2, 15: 2, 8: 12}","[8, 11, 14, 15, 32]",812112141152322,Na2Si1Ge2P2O12
Na2ZrSiSn(PO6)2,mp-2712558,3.2171999999999996,1.47113004,0.03767350747368425,"{11: 2, 40: 1, 14: 1, 50: 1, 15: 2, 8: 12}","[8, 11, 14, 15, 40, 50]",812112141152401501,Na2Zr1Si1Sn1P2O12
Na2HfZrSi(PO6)2,mp-2712783,4.2804,0.91184858,0.015292430833335757,"{11: 2, 72: 1, 40: 1, 14: 1, 15: 2, 8: 12}","[8, 11, 14, 15, 40, 72]",812112141152401721,Na2Hf1Zr1Si1P2O12
Na2Zr2Si(PO6)2,mp-2712624,4.2617,0.810872,0.016276347368414434,"{11: 2, 40: 2, 14: 1, 15: 2, 8: 12}","[8, 11, 14, 15, 40]",812112141152402,Na2Zr2Si1P2O12
Na2NbInSi(PO6)2,mp-2712807,2.0915999999999997,1.53582546,0.06781918302631063,"{11: 2, 41: 1, 49: 1, 14: 1, 15: 2, 8: 12}","[8, 11, 14, 15, 41, 49]",812112141152411491,Na2Nb1In1Si1P2O12
Na2LaNbSi(PO6)2,mp-2712710,1.7258,1.57174899,0.14807614434210592,"{11: 2, 57: 1, 41: 1, 14: 1, 15: 2, 8: 12}","[8, 11, 14, 15, 41, 57]",812112141152411571,Na2La1Nb1Si1P2O12
Na2TaInSi(PO6)2,mp-2712650,2.8994,1.63519305,0.06062058043859686,"{11: 2, 73: 1, 49: 1, 14: 1, 15: 2, 8: 12}","[8, 11, 14, 15, 49, 73]",812112141152491731,Na2Ta1In1Si1P2O12
Na2HfSiSn(PO6)2,mp-2712691,3.1059,1.60062226,0.03578078028143139,"{11: 2, 72: 1, 14: 1, 50: 1, 15: 2, 8: 12}","[8, 11, 14, 15, 50, 72]",812112141152501721,Na2Hf1Si1Sn1P2O12
Na2SiSn2(PO6)2,mp-2712646,2.8962,2.21291967,0.0365457590175442,"{11: 2, 14: 1, 50: 2, 15: 2, 8: 12}","[8, 11, 14, 15, 50]",812112141152502,Na2Si1Sn2P2O12
Na2LaTaSi(PO6)2,mp-2712816,2.4922000000000004,1.71698819,0.1519556793859671,"{11: 2, 57: 1, 73: 1, 14: 1, 15: 2, 8: 12}","[8, 11, 14, 15, 57, 73]",812112141152571731,Na2La1Ta1Si1P2O12
Na2Hf2Si(PO6)2,mp-2712619,4.9018999999999995,0.99214294,0.008408966513156813,"{11: 2, 72: 2, 14: 1, 15: 2, 8: 12}","[8, 11, 14, 15, 72]",812112141152722,Na2Hf2Si1P2O12
Na2CaTiSi(SO6)2,mp-2713689,1.1554,1.36000754,0.16505668486841785,"{11: 2, 20: 1, 22: 1, 14: 1, 16: 2, 8: 12}","[8, 11, 14, 16, 20, 22]",812112141162201221,Na2Ca1Ti1Si1S2O12
Na2CaSiGe(SO6)2,mp-2713323,0.07099999999999995,0.74836789,0.24411315938596267,"{11: 2, 20: 1, 14: 1, 32: 1, 16: 2, 8: 12}","[8, 11, 14, 16, 20, 32]",812112141162201321,Na2Ca1Si1Ge1S2O12
Na2CaZrSi(SO6)2,mp-2713259,2.6139,1.33058842,0.13441470947368117,"{11: 2, 20: 1, 40: 1, 14: 1, 16: 2, 8: 12}","[8, 11, 14, 16, 20, 40]",812112141162201401,Na2Ca1Zr1Si1S2O12
Na2CaSiSn(SO6)2,mp-2713701,0.8249,1.76907366,0.17150640236841852,"{11: 2, 20: 1, 14: 1, 50: 1, 16: 2, 8: 12}","[8, 11, 14, 16, 20, 50]",812112141162201501,Na2Ca1Si1Sn1S2O12
Na2CaHfSi(SO6)2,mp-2713222,3.4756000000000005,1.36289927,0.135157490175434,"{11: 2, 20: 1, 72: 1, 14: 1, 16: 2, 8: 12}","[8, 11, 14, 16, 20, 72]",812112141162201721,Na2Ca1Hf1Si1S2O12
Na2ScGaSi(SO6)2,mp-2713277,3.3556999999999997,1.41509461,0.09461914597953136,"{11: 2, 21: 1, 31: 1, 14: 1, 16: 2, 8: 12}","[8, 11, 14, 16, 21, 31]",812112141162211311,Na2Sc1Ga1Si1S2O12
Na2ScInSi(SO6)2,mp-2713221,3.2113000000000005,1.690584,0.07283540409356792,"{11: 2, 21: 1, 49: 1, 14: 1, 16: 2, 8: 12}","[8, 11, 14, 16, 21, 49]",812112141162211491,Na2Sc1In1Si1S2O12
Na2LaScSi(SO6)2,mp-2713581,3.6534,1.4776536,0.08636982678728256,"{11: 2, 57: 1, 21: 1, 14: 1, 16: 2, 8: 12}","[8, 11, 14, 16, 21, 57]",812112141162211571,Na2La1Sc1Si1S2O12
Na2Sc2Si(SO6)2,mp-2713687,4.1215,1.2411617,0.05279507700658126,"{11: 2, 21: 2, 14: 1, 16: 2, 8: 12}","[8, 11, 14, 16, 21]",812112141162212,Na2Sc2Si1S2O12
Na2TiZnSi(SO6)2,mp-2713578,1.5338999999999998,1.55188261,0.1113234522587776,"{11: 2, 22: 1, 30: 1, 14: 1, 16: 2, 8: 12}","[8, 11, 14, 16, 22, 30]",812112141162221301,Na2Ti1Zn1Si1S2O12
Na2ZnSiGe(SO6)2,mp-2713588,0.8429000000000002,1.78212013,0.18749117405701732,"{11: 2, 30: 1, 14: 1, 32: 1, 16: 2, 8: 12}","[8, 11, 14, 16, 30, 32]",812112141162301321,Na2Zn1Si1Ge1S2O12
Na2ZrZnSi(SO6)2,mp-2713663,3.0972,1.39479511,0.09990780317982217,"{11: 2, 40: 1, 30: 1, 14: 1, 16: 2, 8: 12}","[8, 11, 14, 16, 30, 40]",812112141162301401,Na2Zr1Zn1Si1S2O12
Na2ZnSiSn(SO6)2,mp-2713220,1.4367,1.987137,0.13539695028509247,"{11: 2, 30: 1, 14: 1, 50: 1, 16: 2, 8: 12}","[8, 11, 14, 16, 30, 50]",812112141162301501,Na2Zn1Si1Sn1S2O12
Na2HfZnSi(SO6)2,mp-2713679,3.7429,1.55627164,0.09879425730262525,"{11: 2, 72: 1, 30: 1, 14: 1, 16: 2, 8: 12}","[8, 11, 14, 16, 30, 72]",812112141162301721,Na2Hf1Zn1Si1S2O12
Na2InGaSi(SO6)2,mp-2713657,2.9076000000000004,1.82821515,0.09856427767543874,"{11: 2, 49: 1, 31: 1, 14: 1, 16: 2, 8: 12}","[8, 11, 14, 16, 31, 49]",812112141162311491,Na2In1Ga1Si1S2O12
Na2LaGaSi(SO6)2,mp-2713608,2.8192,1.54612327,0.13633069233918427,"{11: 2, 57: 1, 31: 1, 14: 1, 16: 2, 8: 12}","[8, 11, 14, 16, 31, 57]",812112141162311571,Na2La1Ga1Si1S2O12
Na2Ga2Si(SO6)2,mp-2713580,3.3822,1.55792632,0.09449927824561488,"{11: 2, 31: 2, 14: 1, 16: 2, 8: 12}","[8, 11, 14, 16, 31]",812112141162312,Na2Ga2Si1S2O12
Na2LaInSi(SO6)2,mp-2713257,2.5999999999999996,1.84304744,0.10825190790935935,"{11: 2, 57: 1, 49: 1, 14: 1, 16: 2, 8: 12}","[8, 11, 14, 16, 49, 57]",812112141162491571,Na2La1In1Si1S2O12
Na2In2Si(SO6)2,mp-2713280,2.7031,1.88056185,0.07616095728070427,"{11: 2, 49: 2, 14: 1, 16: 2, 8: 12}","[8, 11, 14, 16, 49]",812112141162492,Na2In2Si1S2O12
Na2La2Si(SO6)2,mp-2713667,4.119199999999999,1.44062618,0.08040186583333409,"{11: 2, 57: 2, 14: 1, 16: 2, 8: 12}","[8, 11, 14, 16, 57]",812112141162572,Na2La2Si1S2O12
Na2TiNbSi2PO12,mp-2713031,2.7782,1.221933,0.03765098970168346,"{11: 2, 22: 1, 41: 1, 14: 2, 15: 1, 8: 12}","[8, 11, 14, 15, 22, 41]",812112142151221411,Na2Ti1Nb1Si2P1O12
Na2TaTiSi2PO12,mp-2714998,2.8919,1.33577449,0.031340939921053135,"{11: 2, 73: 1, 22: 1, 14: 2, 15: 1, 8: 12}","[8, 11, 14, 15, 22, 73]",812112142151221731,Na2Ta1Ti1Si2P1O12
Na2NbSi2GePO12,mp-2715158,2.9252000000000002,1.37066096,0.0817675258333308,"{11: 2, 41: 1, 14: 2, 32: 1, 15: 1, 8: 12}","[8, 11, 14, 15, 32, 41]",812112142151321411,Na2Nb1Si2Ge1P1O12
Na2TaSi2GePO12,mp-2715133,3.3213999999999997,1.51148197,0.07211410232456306,"{11: 2, 73: 1, 14: 2, 32: 1, 15: 1, 8: 12}","[8, 11, 14, 15, 32, 73]",812112142151321731,Na2Ta1Si2Ge1P1O12
Na2ZrNbSi2PO12,mp-2712826,2.6761,0.90584052,0.042339743517540995,"{11: 2, 40: 1, 41: 1, 14: 2, 15: 1, 8: 12}","[8, 11, 14, 15, 40, 41]",812112142151401411,Na2Zr1Nb1Si2P1O12
Na2ZrTaSi2PO12,mp-2715193,3.57,0.99701682,0.0374873775964879,"{11: 2, 40: 1, 73: 1, 14: 2, 15: 1, 8: 12}","[8, 11, 14, 15, 40, 73]",812112142151401731,Na2Zr1Ta1Si2P1O12
Na2NbSi2SnPO12,mp-2715108,2.7818000000000005,1.54895667,0.04497064451754085,"{11: 2, 41: 1, 14: 2, 50: 1, 15: 1, 8: 12}","[8, 11, 14, 15, 41, 50]",812112142151411501,Na2Nb1Si2Sn1P1O12
Na2HfNbSi2PO12,mp-2714938,2.7702999999999998,0.87592039,0.03372477466008483,"{11: 2, 72: 1, 41: 1, 14: 2, 15: 1, 8: 12}","[8, 11, 14, 15, 41, 72]",812112142151411721,Na2Hf1Nb1Si2P1O12
Na2TaSi2SnPO12,mp-2715149,3.6088000000000005,1.65504257,0.04012378342105194,"{11: 2, 73: 1, 14: 2, 50: 1, 15: 1, 8: 12}","[8, 11, 14, 15, 50, 73]",812112142151501731,Na2Ta1Si2Sn1P1O12
Na2HfTaSi2PO12,mp-2714945,3.6208,1.0162835,0.025637526984654713,"{11: 2, 72: 1, 73: 1, 14: 2, 15: 1, 8: 12}","[8, 11, 14, 15, 72, 73]",812112142151721731,Na2Hf1Ta1Si2P1O12
Na2ScNbSi2SO12,mp-2712604,2.2677,1.211031,0.11122398061403427,"{11: 2, 21: 1, 41: 1, 14: 2, 16: 1, 8: 12}","[8, 11, 14, 16, 21, 41]",812112142161211411,Na2Sc1Nb1Si2S1O12
Na2ScTaSi2SO12,mp-2712566,2.9726999999999997,1.3493401,0.11374567780701561,"{11: 2, 21: 1, 73: 1, 14: 2, 16: 1, 8: 12}","[8, 11, 14, 16, 21, 73]",812112142161211731,Na2Sc1Ta1Si2S1O12
Na2TiSi2GeSO12,mp-2712667,2.6483,1.68807327,0.13628849267543863,"{11: 2, 22: 1, 14: 2, 32: 1, 16: 1, 8: 12}","[8, 11, 14, 16, 22, 32]",812112142161221321,Na2Ti1Si2Ge1S1O12
Na2ZrTiSi2SO12,mp-2712525,2.6654,1.20465387,0.08998388328947371,"{11: 2, 40: 1, 22: 1, 14: 2, 16: 1, 8: 12}","[8, 11, 14, 16, 22, 40]",812112142161221401,Na2Zr1Ti1Si2S1O12
Na2TiSi2SnSO12,mp-2712715,2.5789,1.95279149,0.11081698179824606,"{11: 2, 22: 1, 14: 2, 50: 1, 16: 1, 8: 12}","[8, 11, 14, 16, 22, 50]",812112142161221501,Na2Ti1Si2Sn1S1O12
Na2HfTiSi2SO12,mp-2712682,2.5544000000000002,1.36467188,0.0851651302192975,"{11: 2, 72: 1, 22: 1, 14: 2, 16: 1, 8: 12}","[8, 11, 14, 16, 22, 72]",812112142161221721,Na2Hf1Ti1Si2S1O12
Na2Ti2Si2SO12,mp-2712636,2.6968,1.55034849,0.08979541710526551,"{11: 2, 22: 2, 14: 2, 16: 1, 8: 12}","[8, 11, 14, 16, 22]",812112142161222,Na2Ti2Si2S1O12
Na2NbGaSi2SO12,mp-2712722,2.39,1.36916369,0.12674088885964352,"{11: 2, 41: 1, 31: 1, 14: 2, 16: 1, 8: 12}","[8, 11, 14, 16, 31, 41]",812112142161311411,Na2Nb1Ga1Si2S1O12
Na2TaGaSi2SO12,mp-2712621,3.1940999999999997,1.42059611,0.11926118666666685,"{11: 2, 73: 1, 31: 1, 14: 2, 16: 1, 8: 12}","[8, 11, 14, 16, 31, 73]",812112142161311731,Na2Ta1Ga1Si2S1O12
Na2ZrSi2GeSO12,mp-2712552,2.58,1.39477508,0.14019035789473655,"{11: 2, 40: 1, 14: 2, 32: 1, 16: 1, 8: 12}","[8, 11, 14, 16, 32, 40]",812112142161321401,Na2Zr1Si2Ge1S1O12
Na2Si2SnGeSO12,mp-2712707,2.4497999999999998,2.07894987,0.15821965535087656,"{11: 2, 14: 2, 50: 1, 32: 1, 16: 1, 8: 12}","[8, 11, 14, 16, 32, 50]",812112142161321501,Na2Si2Sn1Ge1S1O12
Na2HfSi2GeSO12,mp-2712698,2.813,1.48806506,0.1343645823684234,"{11: 2, 72: 1, 14: 2, 32: 1, 16: 1, 8: 12}","[8, 11, 14, 16, 32, 72]",812112142161321721,Na2Hf1Si2Ge1S1O12
Na2Si2Ge2SO12,mp-2712759,2.701,1.92758894,0.18088316964912288,"{11: 2, 14: 2, 32: 2, 16: 1, 8: 12}","[8, 11, 14, 16, 32]",812112142161322,Na2Si2Ge2S1O12