formula,material_id,band_gap,efermi,energy_above_hull,comp_atoms,sorted_keys_comp_atoms,comp_number,new_formula
Na2Ca4SiGe4S11O48,mp-2714290,0.3254999999999999,1.56133635,0.08746644205357423,"{11: 2, 20: 4, 14: 1, 32: 4, 16: 11, 8: 48}","[8, 11, 14, 16, 20, 32]",8481121411611204324,Na2Ca4Si1Ge4S11O48
Na2Ca4Zr4SiS11O48,mp-2714296,2.2645,0.94633365,0.01185683530951831,"{11: 2, 20: 4, 40: 4, 14: 1, 16: 11, 8: 48}","[8, 11, 14, 16, 20, 40]",8481121411611204404,Na2Ca4Zr4Si1S11O48
Na2Ca4SiSn4S11O48,mp-2714106,0.44630000000000014,1.84648486,0.04231878797618016,"{11: 2, 20: 4, 14: 1, 50: 4, 16: 11, 8: 48}","[8, 11, 14, 16, 20, 50]",8481121411611204504,Na2Ca4Si1Sn4S11O48
Na2Ca4Hf4SiS11O48,mp-2714277,3.0267,1.09234997,0.013530188214283534,"{11: 2, 20: 4, 72: 4, 14: 1, 16: 11, 8: 48}","[8, 11, 14, 16, 20, 72]",8481121411611204724,Na2Ca4Hf4Si1S11O48
Na2Sc4Ga4SiS11O48,mp-2714050,2.0242000000000004,1.30005581,0.05100672892857183,"{11: 2, 21: 4, 31: 4, 14: 1, 16: 11, 8: 48}","[8, 11, 14, 16, 21, 31]",8481121411611214314,Na2Sc4Ga4Si1S11O48
Na2Sc4In4SiS11O48,mp-2714217,1.9709,2.39715966,0.03242100797619152,"{11: 2, 21: 4, 49: 4, 14: 1, 16: 11, 8: 48}","[8, 11, 14, 16, 21, 49]",8481121411611214494,Na2Sc4In4Si1S11O48
Na2La4Sc4SiS11O48,mp-2714152,2.2303,1.23756484,0.04809062290178989,"{11: 2, 57: 4, 21: 4, 14: 1, 16: 11, 8: 48}","[8, 11, 14, 16, 21, 57]",8481121411611214574,Na2La4Sc4Si1S11O48
Na2Sc8SiS11O48,mp-2714043,3.138,0.88039771,0.014135076997022544,"{11: 2, 21: 8, 14: 1, 16: 11, 8: 48}","[8, 11, 14, 16, 21]",8481121411611218,Na2Sc8Si1S11O48
Na2Ti4Zn4SiS11O48,mp-2714022,1.4635000000000002,1.01278956,0.014009312263885576,"{11: 2, 22: 4, 30: 4, 14: 1, 16: 11, 8: 48}","[8, 11, 14, 16, 22, 30]",8481121411611224304,Na2Ti4Zn4Si1S11O48
Na2Zn4SiGe4S11O48,mp-2714112,0.6192000000000002,2.11877056,0.056096893821417027,"{11: 2, 30: 4, 14: 1, 32: 4, 16: 11, 8: 48}","[8, 11, 14, 16, 30, 32]",8481121411611304324,Na2Zn4Si1Ge4S11O48
Na2Zr4Zn4SiS11O48,mp-2714173,2.4402,1.20277457,0.014918250291664492,"{11: 2, 40: 4, 30: 4, 14: 1, 16: 11, 8: 48}","[8, 11, 14, 16, 30, 40]",8481121411611304404,Na2Zr4Zn4Si1S11O48
Na2Zn4SiSn4S11O48,mp-2714090,0.7490999999999999,2.35545142,0.02851844939877335,"{11: 2, 30: 4, 14: 1, 50: 4, 16: 11, 8: 48}","[8, 11, 14, 16, 30, 50]",8481121411611304504,Na2Zn4Si1Sn4S11O48
Na2Hf4Zn4SiS11O48,mp-2714085,3.0768999999999993,1.53754961,0.014931312625002136,"{11: 2, 72: 4, 30: 4, 14: 1, 16: 11, 8: 48}","[8, 11, 14, 16, 30, 72]",8481121411611304724,Na2Hf4Zn4Si1S11O48
Na2In4Ga4SiS11O48,mp-2714280,1.0331000000000001,2.48063383,0.057876776404762076,"{11: 2, 49: 4, 31: 4, 14: 1, 16: 11, 8: 48}","[8, 11, 14, 16, 31, 49]",8481121411611314494,Na2In4Ga4Si1S11O48
Na2La4Ga4SiS11O48,mp-2714312,1.7496,1.42204,0.08503841126190004,"{11: 2, 57: 4, 31: 4, 14: 1, 16: 11, 8: 48}","[8, 11, 14, 16, 31, 57]",8481121411611314574,Na2La4Ga4Si1S11O48
Na2Ga8SiS11O48,mp-2714087,1.8304,2.3106407,0.04214433669046702,"{11: 2, 31: 8, 14: 1, 16: 11, 8: 48}","[8, 11, 14, 16, 31]",8481121411611318,Na2Ga8Si1S11O48
Na2La4In4SiS11O48,mp-2714207,1.4031999999999998,1.51823256,0.06047252721428631,"{11: 2, 57: 4, 49: 4, 14: 1, 16: 11, 8: 48}","[8, 11, 14, 16, 49, 57]",8481121411611494574,Na2La4In4Si1S11O48
Na2In8SiS11O48,mp-2714314,1.2404000000000002,2.40937355,0.035097330499998414,"{11: 2, 49: 8, 14: 1, 16: 11, 8: 48}","[8, 11, 14, 16, 49]",8481121411611498,Na2In8Si1S11O48
Na2La8SiS11O48,mp-2714126,3.0387999999999997,1.17209735,0.03014310877382087,"{11: 2, 57: 8, 14: 1, 16: 11, 8: 48}","[8, 11, 14, 16, 57]",8481121411611578,Na2La8Si1S11O48
Na2Ca2Ti6Si3(S3O16)3,mp-2716475,1.3636,0.91178315,0.050789645916665016,"{11: 2, 20: 2, 22: 6, 14: 3, 16: 9, 8: 48}","[8, 11, 14, 16, 20, 22]",848112143169202226,Na2Ca2Ti6Si3S9O48
Na2Ca2Si3Ge6(S3O16)3,mp-2716503,0.7454999999999998,1.76741529,0.13082605295833716,"{11: 2, 20: 2, 14: 3, 32: 6, 16: 9, 8: 48}","[8, 11, 14, 16, 20, 32]",848112143169202326,Na2Ca2Si3Ge6S9O48
Na2Ca2Zr6Si3(S3O16)3,mp-2716486,2.3829000000000002,0.88152859,0.023852949904754617,"{11: 2, 20: 2, 40: 6, 14: 3, 16: 9, 8: 48}","[8, 11, 14, 16, 20, 40]",848112143169202406,Na2Ca2Zr6Si3S9O48
Na2Ca2Si3Sn6(S3O16)3,mp-2716466,0.49460000000000015,2.14010647,0.07541553181845462,"{11: 2, 20: 2, 14: 3, 50: 6, 16: 9, 8: 48}","[8, 11, 14, 16, 20, 50]",848112143169202506,Na2Ca2Si3Sn6S9O48
Na2Ca2Hf6Si3(S3O16)3,mp-2716338,2.8299,1.24564544,0.027736141333331688,"{11: 2, 20: 2, 72: 6, 14: 3, 16: 9, 8: 48}","[8, 11, 14, 16, 20, 72]",848112143169202726,Na2Ca2Hf6Si3S9O48
Na2Ca4Nb4Si3(S3O16)3,mp-2716422,0.7154,0.88398418,0.0779319481666656,"{11: 2, 20: 4, 41: 4, 14: 3, 16: 9, 8: 48}","[8, 11, 14, 16, 20, 41]",848112143169204414,Na2Ca4Nb4Si3S9O48
Na2Ca4Ta4Si3(S3O16)3,mp-2716296,1.2836999999999998,1.19379506,0.08385135226904605,"{11: 2, 20: 4, 73: 4, 14: 3, 16: 9, 8: 48}","[8, 11, 14, 16, 20, 73]",848112143169204734,Na2Ca4Ta4Si3S9O48
Na2Sc4Ti4Si3(S3O16)3,mp-2716440,1.2258,1.05809649,0.05281236010714707,"{11: 2, 21: 4, 22: 4, 14: 3, 16: 9, 8: 48}","[8, 11, 14, 16, 21, 22]",848112143169214224,Na2Sc4Ti4Si3S9O48
Na2Sc4Si3Ge4(S3O16)3,mp-2716443,1.2660000000000002,1.3878244,0.13064285031250833,"{11: 2, 21: 4, 14: 3, 32: 4, 16: 9, 8: 48}","[8, 11, 14, 16, 21, 32]",848112143169214324,Na2Sc4Si3Ge4S9O48
Na2Zr4Sc4Si3(S3O16)3,mp-2716392,2.6592,0.82565224,0.037964313523804805,"{11: 2, 40: 4, 21: 4, 14: 3, 16: 9, 8: 48}","[8, 11, 14, 16, 21, 40]",848112143169214404,Na2Zr4Sc4Si3S9O48
Na2Sc4Si3Sn4(S3O16)3,mp-2716562,1.2390999999999999,1.66735069,0.0826872420089293,"{11: 2, 21: 4, 14: 3, 50: 4, 16: 9, 8: 48}","[8, 11, 14, 16, 21, 50]",848112143169214504,Na2Sc4Si3Sn4S9O48
Na2Hf4Sc4Si3(S3O16)3,mp-2716386,3.1843000000000004,1.14649069,0.03698030847618927,"{11: 2, 72: 4, 21: 4, 14: 3, 16: 9, 8: 48}","[8, 11, 14, 16, 21, 72]",848112143169214724,Na2Hf4Sc4Si3S9O48
Na2Sc6Nb2Si3(S3O16)3,mp-2716311,1.3654000000000002,0.8961897,0.049470882622448364,"{11: 2, 21: 6, 41: 2, 14: 3, 16: 9, 8: 48}","[8, 11, 14, 16, 21, 41]",848112143169216412,Na2Sc6Nb2Si3S9O48
Na2Sc6Ta2Si3(S3O16)3,mp-2716452,2.0821,0.90990794,0.05057523664285757,"{11: 2, 21: 6, 73: 2, 14: 3, 16: 9, 8: 48}","[8, 11, 14, 16, 21, 73]",848112143169216732,Na2Sc6Ta2Si3S9O48
Na2Ti4Ga4Si3(S3O16)3,mp-2716463,1.3838000000000001,1.24329104,0.046139247095238645,"{11: 2, 22: 4, 31: 4, 14: 3, 16: 9, 8: 48}","[8, 11, 14, 16, 22, 31]",848112143169224314,Na2Ti4Ga4Si3S9O48
Na2La4Ti4Si3(S3O16)3,mp-2716469,1.3417,0.87142688,0.10630611772618703,"{11: 2, 57: 4, 22: 4, 14: 3, 16: 9, 8: 48}","[8, 11, 14, 16, 22, 57]",848112143169224574,Na2La4Ti4Si3S9O48
Na2Ti6Zn2Si3(S3O16)3,mp-2716558,1.5624000000000002,1.03074847,0.03400340841071614,"{11: 2, 22: 6, 30: 2, 14: 3, 16: 9, 8: 48}","[8, 11, 14, 16, 22, 30]",848112143169226302,Na2Ti6Zn2Si3S9O48
Na2Zn2Si3Ge6(S3O16)3,mp-2716538,0.817,1.9353853,0.099315898940465,"{11: 2, 30: 2, 14: 3, 32: 6, 16: 9, 8: 48}","[8, 11, 14, 16, 30, 32]",848112143169302326,Na2Zn2Si3Ge6S9O48
Na2Zr6Zn2Si3(S3O16)3,mp-2716363,2.5288999999999997,0.94798888,0.023995546476188956,"{11: 2, 40: 6, 30: 2, 14: 3, 16: 9, 8: 48}","[8, 11, 14, 16, 30, 40]",848112143169302406,Na2Zr6Zn2Si3S9O48
Na2Zn2Si3Sn6(S3O16)3,mp-2716371,0.8536000000000001,2.3585618,0.060130050961305415,"{11: 2, 30: 2, 14: 3, 50: 6, 16: 9, 8: 48}","[8, 11, 14, 16, 30, 50]",848112143169302506,Na2Zn2Si3Sn6S9O48
Na2Hf6Zn2Si3(S3O16)3,mp-2716424,3.1148999999999996,1.21900985,0.020706053428571458,"{11: 2, 72: 6, 30: 2, 14: 3, 16: 9, 8: 48}","[8, 11, 14, 16, 30, 72]",848112143169302726,Na2Hf6Zn2Si3S9O48
Na2Nb4Zn4Si3(S3O16)3,mp-2716320,0.8668999999999999,1.20952762,0.049253524494331735,"{11: 2, 41: 4, 30: 4, 14: 3, 16: 9, 8: 48}","[8, 11, 14, 16, 30, 41]",848112143169304414,Na2Nb4Zn4Si3S9O48
Na2Ta4Zn4Si3(S3O16)3,mp-2716451,1.5543,1.42933569,0.04925558217261816,"{11: 2, 73: 4, 30: 4, 14: 3, 16: 9, 8: 48}","[8, 11, 14, 16, 30, 73]",848112143169304734,Na2Ta4Zn4Si3S9O48
Na2Ga4Si3Ge4(S3O16)3,mp-2716427,1.125,1.77793627,0.11410690783631772,"{11: 2, 31: 4, 14: 3, 32: 4, 16: 9, 8: 48}","[8, 11, 14, 16, 31, 32]",848112143169314324,Na2Ga4Si3Ge4S9O48
Na2Zr4Ga4Si3(S3O16)3,mp-2716420,2.3166,1.14736221,0.0429853262619071,"{11: 2, 40: 4, 31: 4, 14: 3, 16: 9, 8: 48}","[8, 11, 14, 16, 31, 40]",848112143169314404,Na2Zr4Ga4Si3S9O48
Na2Ga4Si3Sn4(S3O16)3,mp-2716330,1.5604,1.8965506,0.0805547132321367,"{11: 2, 31: 4, 14: 3, 50: 4, 16: 9, 8: 48}","[8, 11, 14, 16, 31, 50]",848112143169314504,Na2Ga4Si3Sn4S9O48
Na2Hf4Ga4Si3(S3O16)3,mp-2716555,2.3094,1.37033285,0.04073623735714538,"{11: 2, 72: 4, 31: 4, 14: 3, 16: 9, 8: 48}","[8, 11, 14, 16, 31, 72]",848112143169314724,Na2Hf4Ga4Si3S9O48
Na2Nb2Ga6Si3(S3O16)3,mp-2716476,1.3526000000000002,1.18732347,0.05629272705102384,"{11: 2, 41: 2, 31: 6, 14: 3, 16: 9, 8: 48}","[8, 11, 14, 16, 31, 41]",848112143169316412,Na2Nb2Ga6Si3S9O48
Na2Ta2Ga6Si3(S3O16)3,mp-2716464,2.0408999999999997,1.39159094,0.054939855690474104,"{11: 2, 73: 2, 31: 6, 14: 3, 16: 9, 8: 48}","[8, 11, 14, 16, 31, 73]",848112143169316732,Na2Ta2Ga6Si3S9O48
Na2In4Si3Ge4(S3O16)3,mp-2716321,0.7812000000000001,1.93146571,0.13721495650298543,"{11: 2, 49: 4, 14: 3, 32: 4, 16: 9, 8: 48}","[8, 11, 14, 16, 32, 49]",848112143169324494,Na2In4Si3Ge4S9O48
Na2La4Si3Ge4(S3O16)3,mp-2716378,0.24860000000000004,0.72931736,0.19609541002679443,"{11: 2, 57: 4, 14: 3, 32: 4, 16: 9, 8: 48}","[8, 11, 14, 16, 32, 57]",848112143169324574,Na2La4Si3Ge4S9O48
Na2Zr4In4Si3(S3O16)3,mp-2716501,2.2177999999999995,1.52829883,0.03780020885714208,"{11: 2, 40: 4, 49: 4, 14: 3, 16: 9, 8: 48}","[8, 11, 14, 16, 40, 49]",848112143169404494,Na2Zr4In4Si3S9O48
Na2La4Zr4Si3(S3O16)3,mp-2716448,2.3651,1.28074363,0.07105889723809788,"{11: 2, 57: 4, 40: 4, 14: 3, 16: 9, 8: 48}","[8, 11, 14, 16, 40, 57]",848112143169404574,Na2La4Zr4Si3S9O48
Na2Nb2In6Si3(S3O16)3,mp-2716488,1.0395,1.68420019,0.05422877914625701,"{11: 2, 41: 2, 49: 6, 14: 3, 16: 9, 8: 48}","[8, 11, 14, 16, 41, 49]",848112143169412496,Na2Nb2In6Si3S9O48
Na2La6Nb2Si3(S3O16)3,mp-2716398,1.3093,1.17652506,0.08273876230499777,"{11: 2, 57: 6, 41: 2, 14: 3, 16: 9, 8: 48}","[8, 11, 14, 16, 41, 57]",848112143169412576,Na2La6Nb2Si3S9O48
Na2In4Si3Sn4(S3O16)3,mp-2716301,0.9440000000000002,2.24712755,0.0873498024851127,"{11: 2, 49: 4, 14: 3, 50: 4, 16: 9, 8: 48}","[8, 11, 14, 16, 49, 50]",848112143169494504,Na2In4Si3Sn4S9O48
Na2Hf4In4Si3(S3O16)3,mp-2716435,2.2365000000000004,1.67440175,0.037191944904764185,"{11: 2, 72: 4, 49: 4, 14: 3, 16: 9, 8: 48}","[8, 11, 14, 16, 49, 72]",848112143169494724,Na2Hf4In4Si3S9O48
Na2Ta2In6Si3(S3O16)3,mp-2716315,1.6113,1.86668096,0.055587679309521576,"{11: 2, 73: 2, 49: 6, 14: 3, 16: 9, 8: 48}","[8, 11, 14, 16, 49, 73]",848112143169496732,Na2Ta2In6Si3S9O48
Na2La4Si3Sn4(S3O16)3,mp-2716286,0.3083,1.59223669,0.13267209842262062,"{11: 2, 57: 4, 14: 3, 50: 4, 16: 9, 8: 48}","[8, 11, 14, 16, 50, 57]",848112143169504574,Na2La4Si3Sn4S9O48
Na2La4Hf4Si3(S3O16)3,mp-2716380,3.1236999999999995,1.16574024,0.07577433842856784,"{11: 2, 57: 4, 72: 4, 14: 3, 16: 9, 8: 48}","[8, 11, 14, 16, 57, 72]",848112143169574724,Na2La4Hf4Si3S9O48
Na2La6Ta2Si3(S3O16)3,mp-2716514,2.0100999999999996,1.29557753,0.08379462194444187,"{11: 2, 57: 6, 73: 2, 14: 3, 16: 9, 8: 48}","[8, 11, 14, 16, 57, 73]",848112143169576732,Na2La6Ta2Si3S9O48
Na2Sc4Nb4Si5S7O48,mp-2716208,1.3067000000000002,0.97386773,0.07721781629591717,"{11: 2, 21: 4, 41: 4, 14: 5, 16: 7, 8: 48}","[8, 11, 14, 16, 21, 41]",848112145167214414,Na2Sc4Nb4Si5S7O48
Na2Sc4Ta4Si5S7O48,mp-2716160,1.7187000000000001,1.33553144,0.07735974545237845,"{11: 2, 21: 4, 73: 4, 14: 5, 16: 7, 8: 48}","[8, 11, 14, 16, 21, 73]",848112145167214734,Na2Sc4Ta4Si5S7O48
Na2Ti4Si5Ge4S7O48,mp-2716158,1.5232,1.50507832,0.09740067943155672,"{11: 2, 22: 4, 14: 5, 32: 4, 16: 7, 8: 48}","[8, 11, 14, 16, 22, 32]",848112145167224324,Na2Ti4Si5Ge4S7O48
Na2Zr4Ti4Si5S7O48,mp-2716185,1.2527,0.82173896,0.034324033261901477,"{11: 2, 40: 4, 22: 4, 14: 5, 16: 7, 8: 48}","[8, 11, 14, 16, 22, 40]",848112145167224404,Na2Zr4Ti4Si5S7O48
Na2Ti4Si5Sn4S7O48,mp-2716183,1.4492,1.599314,0.062373450842255984,"{11: 2, 22: 4, 14: 5, 50: 4, 16: 7, 8: 48}","[8, 11, 14, 16, 22, 50]",848112145167224504,Na2Ti4Si5Sn4S7O48
Na2Hf4Ti4Si5S7O48,mp-2716234,1.4280000000000002,1.10008401,0.0270020063928591,"{11: 2, 72: 4, 22: 4, 14: 5, 16: 7, 8: 48}","[8, 11, 14, 16, 22, 72]",848112145167224724,Na2Hf4Ti4Si5S7O48
Na2Ti8Si5S7O48,mp-2716144,1.3817,0.98793067,0.039356781797620144,"{11: 2, 22: 8, 14: 5, 16: 7, 8: 48}","[8, 11, 14, 16, 22]",848112145167228,Na2Ti8Si5S7O48
Na2Nb4Ga4Si5S7O48,mp-2716179,1.4920999999999998,1.15433899,0.06781853634354373,"{11: 2, 41: 4, 31: 4, 14: 5, 16: 7, 8: 48}","[8, 11, 14, 16, 31, 41]",848112145167314414,Na2Nb4Ga4Si5S7O48
Na2Ta4Ga4Si5S7O48,mp-2716150,2.1186000000000003,1.27459895,0.0635985347380954,"{11: 2, 73: 4, 31: 4, 14: 5, 16: 7, 8: 48}","[8, 11, 14, 16, 31, 73]",848112145167314734,Na2Ta4Ga4Si5S7O48
Na2Zr4Si5Ge4S7O48,mp-2716153,1.5958999999999999,1.10766959,0.10523853197619282,"{11: 2, 40: 4, 14: 5, 32: 4, 16: 7, 8: 48}","[8, 11, 14, 16, 32, 40]",848112145167324404,Na2Zr4Si5Ge4S7O48
Na2Si5Sn4Ge4S7O48,mp-2716139,1.4655,1.88273062,0.10905841575893227,"{11: 2, 14: 5, 50: 4, 32: 4, 16: 7, 8: 48}","[8, 11, 14, 16, 32, 50]",848112145167324504,Na2Si5Sn4Ge4S7O48
Na2Hf4Si5Ge4S7O48,mp-2716152,1.6682000000000001,1.09419217,0.089026028979176,"{11: 2, 72: 4, 14: 5, 32: 4, 16: 7, 8: 48}","[8, 11, 14, 16, 32, 72]",848112145167324724,Na2Hf4Si5Ge4S7O48
Na2Si5Ge8S7O48,mp-2716192,1.4097000000000002,2.0146325,0.12200961977379965,"{11: 2, 14: 5, 32: 8, 16: 7, 8: 48}","[8, 11, 14, 16, 32]",848112145167328,Na2Si5Ge8S7O48
Na2Zr4Si5Sn4S7O48,mp-2716232,1.1964000000000001,1.47670919,0.06467117297617886,"{11: 2, 40: 4, 14: 5, 50: 4, 16: 7, 8: 48}","[8, 11, 14, 16, 40, 50]",848112145167404504,Na2Zr4Si5Sn4S7O48
Na2Hf4Zr4Si5S7O48,mp-2716265,2.7936,0.86908379,0.021921704238094364,"{11: 2, 72: 4, 40: 4, 14: 5, 16: 7, 8: 48}","[8, 11, 14, 16, 40, 72]",848112145167404724,Na2Hf4Zr4Si5S7O48
Na2Zr8Si5S7O48,mp-2716122,2.3453,0.75419734,0.024770420952371808,"{11: 2, 40: 8, 14: 5, 16: 7, 8: 48}","[8, 11, 14, 16, 40]",848112145167408,Na2Zr8Si5S7O48
Na2Nb4In4Si5S7O48,mp-2716165,1.2055,1.38244423,0.08084156143877852,"{11: 2, 41: 4, 49: 4, 14: 5, 16: 7, 8: 48}","[8, 11, 14, 16, 41, 49]",848112145167414494,Na2Nb4In4Si5S7O48
Na2La4Nb4Si5S7O48,mp-2716127,1.2215,1.00745625,0.13895852358163197,"{11: 2, 57: 4, 41: 4, 14: 5, 16: 7, 8: 48}","[8, 11, 14, 16, 41, 57]",848112145167414574,Na2La4Nb4Si5S7O48
Na2Ta4In4Si5S7O48,mp-2716212,1.8501,1.66406193,0.07805942140476319,"{11: 2, 73: 4, 49: 4, 14: 5, 16: 7, 8: 48}","[8, 11, 14, 16, 49, 73]",848112145167494734,Na2Ta4In4Si5S7O48
Na2Hf4Si5Sn4S7O48,mp-2716199,1.7199,1.4735391,0.05339578786607202,"{11: 2, 72: 4, 14: 5, 50: 4, 16: 7, 8: 48}","[8, 11, 14, 16, 50, 72]",848112145167504724,Na2Hf4Si5Sn4S7O48
Na2Si5Sn8S7O48,mp-2716233,1.3598000000000001,2.13334128,0.07449263890176816,"{11: 2, 14: 5, 50: 8, 16: 7, 8: 48}","[8, 11, 14, 16, 50]",848112145167508,Na2Si5Sn8S7O48
Na2La4Ta4Si5S7O48,mp-2716276,2.0177,1.32734982,0.13397691773810205,"{11: 2, 57: 4, 73: 4, 14: 5, 16: 7, 8: 48}","[8, 11, 14, 16, 57, 73]",848112145167574734,Na2La4Ta4Si5S7O48
Na2Hf8Si5S7O48,mp-2716151,3.0965,1.01750305,0.020189536428564026,"{11: 2, 72: 8, 14: 5, 16: 7, 8: 48}","[8, 11, 14, 16, 72]",848112145167728,Na2Hf8Si5S7O48
Na2Sc3Nb5Si6(SO8)6,mp-2713987,1.3314,1.12298516,0.07245488048299631,"{11: 2, 21: 3, 41: 5, 14: 6, 16: 6, 8: 48}","[8, 11, 14, 16, 21, 41]",848112146166213415,Na2Sc3Nb5Si6S6O48
Na2Sc3Ta5Si6(SO8)6,mp-2713846,2.0647,1.27918978,0.06594915711904825,"{11: 2, 21: 3, 73: 5, 14: 6, 16: 6, 8: 48}","[8, 11, 14, 16, 21, 73]",848112146166213735,Na2Sc3Ta5Si6S6O48
Na2Nb5Ga3Si6(SO8)6,mp-2714013,1.5900999999999998,1.1335392,0.0576692992483121,"{11: 2, 41: 5, 31: 3, 14: 6, 16: 6, 8: 48}","[8, 11, 14, 16, 31, 41]",848112146166313415,Na2Nb5Ga3Si6S6O48
Na2Ta5Ga3Si6(SO8)6,mp-2713934,2.174,1.25763287,0.05139247479760911,"{11: 2, 73: 5, 31: 3, 14: 6, 16: 6, 8: 48}","[8, 11, 14, 16, 31, 73]",848112146166313735,Na2Ta5Ga3Si6S6O48
Na2Nb5In3Si6(SO8)6,mp-2713748,1.3345000000000002,1.22391572,0.06889808168537659,"{11: 2, 41: 5, 49: 3, 14: 6, 16: 6, 8: 48}","[8, 11, 14, 16, 41, 49]",848112146166415493,Na2Nb5In3Si6S6O48
Na2La3Nb5Si6(SO8)6,mp-2713869,1.4526,1.06592582,0.11137503143879801,"{11: 2, 57: 3, 41: 5, 14: 6, 16: 6, 8: 48}","[8, 11, 14, 16, 41, 57]",848112146166415573,Na2La3Nb5Si6S6O48
Na2Ta5In3Si6(SO8)6,mp-2713750,1.9667000000000001,1.39710665,0.06173962246428655,"{11: 2, 73: 5, 49: 3, 14: 6, 16: 6, 8: 48}","[8, 11, 14, 16, 49, 73]",848112146166493735,Na2Ta5In3Si6S6O48
Na2La3Ta5Si6(SO8)6,mp-2713818,2.0292,1.22807141,0.11192175846429464,"{11: 2, 57: 3, 73: 5, 14: 6, 16: 6, 8: 48}","[8, 11, 14, 16, 57, 73]",848112146166573735,Na2La3Ta5Si6S6O48
Na2Sc2Nb6Si7S5O48,mp-2715591,1.8685,0.75510611,0.05991354876530863,"{11: 2, 21: 2, 41: 6, 14: 7, 16: 5, 8: 48}","[8, 11, 14, 16, 21, 41]",848112147165212416,Na2Sc2Nb6Si7S5O48
Na2Sc2Ta6Si7S5O48,mp-2715524,2.4518,0.96042121,0.051068602309523925,"{11: 2, 21: 2, 73: 6, 14: 7, 16: 5, 8: 48}","[8, 11, 14, 16, 21, 73]",848112147165212736,Na2Sc2Ta6Si7S5O48
Na2Ti4Nb4Si7S5O48,mp-2715787,1.8144999999999998,0.98766897,0.047941035557821365,"{11: 2, 22: 4, 41: 4, 14: 7, 16: 5, 8: 48}","[8, 11, 14, 16, 22, 41]",848112147165224414,Na2Ti4Nb4Si7S5O48
Na2Ta4Ti4Si7S5O48,mp-2715622,1.8791000000000002,1.28336732,0.04294238866666511,"{11: 2, 73: 4, 22: 4, 14: 7, 16: 5, 8: 48}","[8, 11, 14, 16, 22, 73]",848112147165224734,Na2Ta4Ti4Si7S5O48
Na2Nb6Ga2Si7S5O48,mp-2715594,1.9310999999999998,0.71362152,0.04904158739116493,"{11: 2, 41: 6, 31: 2, 14: 7, 16: 5, 8: 48}","[8, 11, 14, 16, 31, 41]",848112147165312416,Na2Nb6Ga2Si7S5O48
Na2Ta6Ga2Si7S5O48,mp-2715776,2.6581,0.92966214,0.04075423790477295,"{11: 2, 73: 6, 31: 2, 14: 7, 16: 5, 8: 48}","[8, 11, 14, 16, 31, 73]",848112147165312736,Na2Ta6Ga2Si7S5O48
Na2Nb4Si7Ge4S5O48,mp-2715773,1.6362,1.38878514,0.08330839940477208,"{11: 2, 41: 4, 14: 7, 32: 4, 16: 5, 8: 48}","[8, 11, 14, 16, 32, 41]",848112147165324414,Na2Nb4Si7Ge4S5O48
Na2Ta4Si7Ge4S5O48,mp-2715708,2.1803999999999997,1.46539428,0.08305491669346132,"{11: 2, 73: 4, 14: 7, 32: 4, 16: 5, 8: 48}","[8, 11, 14, 16, 32, 73]",848112147165324734,Na2Ta4Si7Ge4S5O48
Na2Zr4Nb4Si7S5O48,mp-2715589,1.6554000000000002,0.89553334,0.03917289620068409,"{11: 2, 40: 4, 41: 4, 14: 7, 16: 5, 8: 48}","[8, 11, 14, 16, 40, 41]",848112147165404414,Na2Zr4Nb4Si7S5O48
Na2Zr4Ta4Si7S5O48,mp-2715688,2.347,0.95641415,0.03638557178571489,"{11: 2, 40: 4, 73: 4, 14: 7, 16: 5, 8: 48}","[8, 11, 14, 16, 40, 73]",848112147165404734,Na2Zr4Ta4Si7S5O48
Na2Nb4Si7Sn4S5O48,mp-2715537,1.595,1.43210265,0.04753299038988246,"{11: 2, 41: 4, 14: 7, 50: 4, 16: 5, 8: 48}","[8, 11, 14, 16, 41, 50]",848112147165414504,Na2Nb4Si7Sn4S5O48
Na2Hf4Nb4Si7S5O48,mp-2715614,1.6197,0.84184354,0.03446647472448916,"{11: 2, 72: 4, 41: 4, 14: 7, 16: 5, 8: 48}","[8, 11, 14, 16, 41, 72]",848112147165414724,Na2Hf4Nb4Si7S5O48
Na2Nb6In2Si7S5O48,mp-2715782,1.9871,0.80067936,0.05350344359864234,"{11: 2, 41: 6, 49: 2, 14: 7, 16: 5, 8: 48}","[8, 11, 14, 16, 41, 49]",848112147165416492,Na2Nb6In2Si7S5O48
Na2La2Nb6Si7S5O48,mp-2715785,1.9533999999999998,0.86375589,0.08346316372446339,"{11: 2, 57: 2, 41: 6, 14: 7, 16: 5, 8: 48}","[8, 11, 14, 16, 41, 57]",848112147165416572,Na2La2Nb6Si7S5O48
Na2Ta6In2Si7S5O48,mp-2715527,2.4307,1.15190869,0.046534557142859256,"{11: 2, 73: 6, 49: 2, 14: 7, 16: 5, 8: 48}","[8, 11, 14, 16, 49, 73]",848112147165492736,Na2Ta6In2Si7S5O48
Na2Ta4Si7Sn4S5O48,mp-2715553,2.2636,1.57773125,0.052629367008929506,"{11: 2, 73: 4, 14: 7, 50: 4, 16: 5, 8: 48}","[8, 11, 14, 16, 50, 73]",848112147165504734,Na2Ta4Si7Sn4S5O48
Na2La2Ta6Si7S5O48,mp-2715667,2.5353000000000003,1.03663976,0.0817516131904803,"{11: 2, 57: 2, 73: 6, 14: 7, 16: 5, 8: 48}","[8, 11, 14, 16, 57, 73]",848112147165572736,Na2La2Ta6Si7S5O48
Na2Hf4Ta4Si7S5O48,mp-2715674,2.3333,1.0284583,0.03170716716666533,"{11: 2, 72: 4, 73: 4, 14: 7, 16: 5, 8: 48}","[8, 11, 14, 16, 72, 73]",848112147165724734,Na2Hf4Ta4Si7S5O48