formula,material_id,band_gap,efermi,energy_above_hull,comp_atoms,sorted_keys_comp_atoms,comp_number,new_formula
Mg14VSi,mp-1028315,0.0,3.83982743,0.18239275968750013,"{12: 14, 23: 1, 14: 1}","[12, 14, 23]",1214141231,Mg14V1Si1
Mg14CrSi,mp-1026696,0.0,3.87832671,0.15234876768750016,"{12: 14, 24: 1, 14: 1}","[12, 14, 24]",1214141241,Mg14Cr1Si1
Mg14MnSi,mp-1028099,0.0,2.92279496,0.14668890515624966,"{12: 14, 25: 1, 14: 1}","[12, 14, 25]",1214141251,Mg14Mn1Si1
Mg14CoSi,mp-1026883,0.0,4.16029833,0.17452558203125035,"{12: 14, 27: 1, 14: 1}","[12, 14, 27]",1214141271,Mg14Co1Si1
Mg14ZnSi,mp-1027962,0.0,3.86041325,0.07514255685000037,"{12: 14, 30: 1, 14: 1}","[12, 14, 30]",1214141301,Mg14Zn1Si1
Mg14GaSi,mp-1026677,0.0,2.99217515,0.06935544093750012,"{12: 14, 31: 1, 14: 1}","[12, 14, 31]",1214141311,Mg14Ga1Si1
RbMg14Si,mp-1026719,0.0,3.33339692,0.19051259578125013,"{37: 1, 12: 14, 14: 1}","[12, 14, 37]",1214141371,Rb1Mg14Si1
SrMg14Si,mp-1026717,0.0,3.45882422,0.12855994390625036,"{38: 1, 12: 14, 14: 1}","[12, 14, 38]",1214141381,Sr1Mg14Si1
Mg14ZrSi,mp-1027845,0.0,3.85988148,0.15245232781250007,"{12: 14, 40: 1, 14: 1}","[12, 14, 40]",1214141401,Mg14Zr1Si1
Mg14NbSi,mp-1026705,0.0,3.9839051,0.17752198260416696,"{12: 14, 41: 1, 14: 1}","[12, 14, 41]",1214141411,Mg14Nb1Si1
Mg14SiMo,mp-1026684,0.0,4.16148337,0.18288700022321436,"{12: 14, 14: 1, 42: 1}","[12, 14, 42]",1214141421,Mg14Si1Mo1
Mg14CdSi,mp-1026704,0.0,3.87100218,0.06761494656250022,"{12: 14, 48: 1, 14: 1}","[12, 14, 48]",1214141481,Mg14Cd1Si1
Mg14SiSn,mp-1028270,0.0,4.41985131,0.07080317749999998,"{12: 14, 14: 1, 50: 1}","[12, 14, 50]",1214141501,Mg14Si1Sn1
Mg14SiSb,mp-1026689,0.0,3.34872313,0.10010632863281232,"{12: 14, 14: 1, 51: 1}","[12, 14, 51]",1214141511,Mg14Si1Sb1
CsMg14Si,mp-1099321,0.0,3.40855397,0.23129296502155183,"{55: 1, 12: 14, 14: 1}","[12, 14, 55]",1214141551,Cs1Mg14Si1
LaMg14Si,mp-1026792,0.0,4.0082015,0.12267909953125011,"{57: 1, 12: 14, 14: 1}","[12, 14, 57]",1214141571,La1Mg14Si1
CeMg14Si,mp-1026791,0.0,3.54138714,0.12830689359374992,"{58: 1, 12: 14, 14: 1}","[12, 14, 58]",1214141581,Ce1Mg14Si1
HfMg14Si,mp-1026675,0.0,3.9357352,0.16243890187499987,"{72: 1, 12: 14, 14: 1}","[12, 14, 72]",1214141721,Hf1Mg14Si1
Mg14SiW,mp-1026685,0.0,4.12988901,0.20639305250000017,"{12: 14, 14: 1, 74: 1}","[12, 14, 74]",1214141741,Mg14Si1W1
Mg14SiBi,mp-1026682,0.0,3.32065664,0.09357443171874968,"{12: 14, 14: 1, 83: 1}","[12, 14, 83]",1214141831,Mg14Si1Bi1
Si2H2S3,mp-28090,3.3657,0.30073472,0.0,"{14: 2, 1: 2, 16: 3}","[1, 14, 16]",12142163,Si2H2S3
Mg149Si,mp-1185634,0.3310000000000004,3.48270561,0.008033720166666924,"{12: 149, 14: 1}","[12, 14]",12149141,Mg149Si1
Mg15Si,mp-1023509,0.0,3.61974236,0.0790697140625003,"{12: 15, 14: 1}","[12, 14]",1215141,Mg15Si1
Mg15Si2Ir5,mp-568029,0.0,4.89244713,0.0,"{12: 15, 14: 2, 77: 5}","[12, 14, 77]",1215142775,Mg15Si2Ir5
Mg2Si,mp-1367,0.21799999999999997,3.40203031,0.0,"{12: 2, 14: 1}","[12, 14]",122141,Mg2Si1
Sr11(MgSi5)2,mp-573908,0.0,3.87038679,0.007636554673911888,"{38: 11, 12: 2, 14: 10}","[12, 14, 38]",12214103811,Sr11Mg2Si10
Mg2SiS4,mp-1193963,2.9690999999999996,6.22807774,0.0,"{12: 2, 14: 1, 16: 4}","[12, 14, 16]",122141164,Mg2Si1S4
Mg2SiSe4,mp-1192582,2.131,4.70185541,0.0,"{12: 2, 14: 1, 34: 4}","[12, 14, 34]",122141344,Mg2Si1Se4
Mg2SiPt,mp-14793,0.0,7.05286104,0.0,"{12: 2, 14: 1, 78: 1}","[12, 14, 78]",122141781,Mg2Si1Pt1
Sr13(MgSi10)2,mp-29546,0.0,4.56657134,0.005152715571427713,"{38: 13, 12: 2, 14: 20}","[12, 14, 38]",12214203813,Sr13Mg2Si20
La(MgSi)2,mp-1206521,0.0,6.67152309,0.0,"{57: 1, 12: 2, 14: 2}","[12, 14, 57]",122142571,La1Mg2Si2
Ce(MgSi)2,mp-19865,0.0,6.45158962,0.0,"{58: 1, 12: 2, 14: 2}","[12, 14, 58]",122142581,Ce1Mg2Si2
Mg2Si3,mp-1073164,0.0,5.16225864,0.15648814199999972,"{12: 2, 14: 3}","[12, 14]",122143,Mg2Si3
La6Mg23Si,mp-1211430,0.0,3.72171249,0.0,"{57: 6, 12: 23, 14: 1}","[12, 14, 57]",1223141576,La6Mg23Si1
Ce6Mg23Si,mp-1192551,0.0,4.24991062,0.009132079833333417,"{58: 6, 12: 23, 14: 1}","[12, 14, 58]",1223141586,Ce6Mg23Si1
Mg3Si,mp-1016216,0.0,4.49779394,0.2100743012499997,"{12: 3, 14: 1}","[12, 14]",123141,Mg3Si1
Ca2Mg3Si,mp-1095343,0.0,3.79611834,0.11933503958333214,"{20: 2, 12: 3, 14: 1}","[12, 14, 20]",123141202,Ca2Mg3Si1
Mg3Si2,mp-1075796,0.0,4.84287979,0.10720687700000031,"{12: 3, 14: 2}","[12, 14]",123142,Mg3Si2
Mg3Si4,mp-1075152,0.0,4.70329512,0.1763471299999999,"{12: 3, 14: 4}","[12, 14]",123144,Mg3Si4
Mg3Si8Ir3,mp-569313,0.0,7.34325424,0.0,"{12: 3, 14: 8, 77: 3}","[12, 14, 77]",123148773,Mg3Si8Ir3
Mg4SiGe,mp-1222125,0.38060000000000027,4.10020242,0.0,"{12: 4, 14: 1, 32: 1}","[12, 14, 32]",124141321,Mg4Si1Ge1
Mg4SiSn,mp-1222116,0.022700000000000387,4.57924668,0.018560298333332614,"{12: 4, 14: 1, 50: 1}","[12, 14, 50]",124141501,Mg4Si1Sn1
Mg4Si3,mp-1074467,0.0,4.76663652,0.11396152999999964,"{12: 4, 14: 3}","[12, 14]",124143,Mg4Si3
Mg4Si7,mp-1074194,0.0,6.05182643,0.2163669486363644,"{12: 4, 14: 7}","[12, 14]",124147,Mg4Si7
Ca3Be2Si3(HO6)2,mp-699464,5.168799999999999,1.91987524,0.0,"{20: 3, 4: 2, 14: 3, 1: 2, 8: 12}","[1, 4, 8, 14, 20]",1242812143203,Ca3Be2Si3H2O12
Be4Si2H2O9,mp-707304,5.7425,1.19105311,0.0,"{4: 4, 14: 2, 1: 2, 8: 9}","[1, 4, 8, 14]",124489142,Be4Si2H2O9
Mg5(Si8Pd5)2,mp-634984,0.0,7.25179153,0.0,"{12: 5, 14: 16, 46: 10}","[12, 14, 46]",12514164610,Mg5Si16Pd10
Mg5(Si8Pt5)2,mp-30324,0.0,8.13298397,0.0,"{12: 5, 14: 16, 78: 10}","[12, 14, 78]",12514167810,Mg5Si16Pt10
Eu3(MgSi)5,mp-1199980,0.0,4.81855778,0.0,"{63: 3, 12: 5, 14: 5}","[12, 14, 63]",125145633,Eu3Mg5Si5
Mg5Si6,mp-568306,0.0,6.2662876,0.15337233000000028,"{12: 5, 14: 6}","[12, 14]",125146,Mg5Si6
Mg5Si9,mp-1075664,0.0,5.3178924,0.22003038750000137,"{12: 5, 14: 9}","[12, 14]",125149,Mg5Si9
KMg6Si,mp-1021360,0.0,2.89241923,0.23659192784375027,"{19: 1, 12: 6, 14: 1}","[12, 14, 19]",126141191,K1Mg6Si1
CaMg6Si,mp-1023336,0.0,3.70415334,0.19180758343749993,"{20: 1, 12: 6, 14: 1}","[12, 14, 20]",126141201,Ca1Mg6Si1
Mg6TiSi,mp-1021368,0.0,4.48924518,0.28948775187500075,"{12: 6, 22: 1, 14: 1}","[12, 14, 22]",126141221,Mg6Ti1Si1
Mg6VSi,mp-1021687,0.0,4.33214226,0.3008591468750006,"{12: 6, 23: 1, 14: 1}","[12, 14, 23]",126141231,Mg6V1Si1
Mg6CrSi,mp-1017381,0.0,4.37865292,0.2559733241250002,"{12: 6, 24: 1, 14: 1}","[12, 14, 24]",126141241,Mg6Cr1Si1
Mg6MnSi,mp-1023005,0.0,4.45933389,0.2549994615625004,"{12: 6, 25: 1, 14: 1}","[12, 14, 25]",126141251,Mg6Mn1Si1
Mg6CoSi,mp-1022054,0.0,4.51482182,0.2828464765625007,"{12: 6, 27: 1, 14: 1}","[12, 14, 27]",126141271,Mg6Co1Si1
Mg6ZnSi,mp-1022604,0.0,4.17113806,0.1399314480749998,"{12: 6, 30: 1, 14: 1}","[12, 14, 30]",126141301,Mg6Zn1Si1
Mg6GaSi,mp-1017362,0.0,4.28368602,0.13992883124999977,"{12: 6, 31: 1, 14: 1}","[12, 14, 31]",126141311,Mg6Ga1Si1
Mg6SiGe2,mp-1222090,0.2717999999999998,3.56667174,0.004690586666665997,"{12: 6, 14: 1, 32: 2}","[12, 14, 32]",126141322,Mg6Si1Ge2
RbMg6Si,mp-1098280,0.0,2.59173527,0.30277538406250004,"{37: 1, 12: 6, 14: 1}","[12, 14, 37]",126141371,Rb1Mg6Si1
SrMg6Si,mp-1017456,0.0,3.31623481,0.1935951371875002,"{38: 1, 12: 6, 14: 1}","[12, 14, 38]",126141381,Sr1Mg6Si1
Mg6ZrSi,mp-1022456,0.0,4.30443178,0.27257306187500063,"{12: 6, 40: 1, 14: 1}","[12, 14, 40]",126141401,Mg6Zr1Si1
Mg6NbSi,mp-1017451,0.0,4.44319135,0.2941181639583341,"{12: 6, 41: 1, 14: 1}","[12, 14, 41]",126141411,Mg6Nb1Si1
Ca7(Mg3Si7)2,mp-1214041,0.0,4.57989749,0.05977195777777711,"{20: 7, 12: 6, 14: 14}","[12, 14, 20]",1261414207,Ca7Mg6Si14
Mg6SiMo,mp-1017359,0.0,4.83437666,0.2950468154464283,"{12: 6, 14: 1, 42: 1}","[12, 14, 42]",126141421,Mg6Si1Mo1
Mg6CdSi,mp-1017401,0.0,4.07751858,0.13152719749999986,"{12: 6, 48: 1, 14: 1}","[12, 14, 48]",126141481,Mg6Cd1Si1
Mg6SiSn,mp-1021412,0.0,5.01533697,0.1430156087499994,"{12: 6, 14: 1, 50: 1}","[12, 14, 50]",126141501,Mg6Si1Sn1
Mg6SiSn2,mp-1222095,0.01330000000000009,4.52835116,0.011935749999999246,"{12: 6, 14: 1, 50: 2}","[12, 14, 50]",126141502,Mg6Si1Sn2
Mg6SiSb,mp-1017349,0.0,4.85695604,0.168558093515625,"{12: 6, 14: 1, 51: 1}","[12, 14, 51]",126141511,Mg6Si1Sb1
CsMg6Si,mp-1021157,0.0,1.99686256,0.24487587629310315,"{55: 1, 12: 6, 14: 1}","[12, 14, 55]",126141551,Cs1Mg6Si1
LaMg6Si,mp-1017497,0.0,4.45055073,0.18405311281250158,"{57: 1, 12: 6, 14: 1}","[12, 14, 57]",126141571,La1Mg6Si1
CeMg6Si,mp-1017493,0.0,4.45479433,0.20725664343750028,"{58: 1, 12: 6, 14: 1}","[12, 14, 58]",126141581,Ce1Mg6Si1
HfMg6Si,mp-1017320,0.0,4.40705436,0.28882589000000003,"{72: 1, 12: 6, 14: 1}","[12, 14, 72]",126141721,Hf1Mg6Si1
Mg6SiW,mp-1017367,0.0,4.7732943,0.32894620375000017,"{12: 6, 14: 1, 74: 1}","[12, 14, 74]",126141741,Mg6Si1W1
Mg6SiBi,mp-1017330,0.0,4.54252181,0.14646654531249936,"{12: 6, 14: 1, 83: 1}","[12, 14, 83]",126141831,Mg6Si1Bi1
Mg6Si5,mp-1073910,0.0,4.81911219,0.13837395909090855,"{12: 6, 14: 5}","[12, 14]",126145,Mg6Si5
Mg63Si32Bi,mp-1194890,0.0,3.82795331,0.04247437072916638,"{12: 63, 14: 32, 83: 1}","[12, 14, 83]",12631432831,Mg63Si32Bi1
Mg64Si31Bi,mp-1195280,0.0,3.86050299,0.03317443174479173,"{12: 64, 14: 31, 83: 1}","[12, 14, 83]",12641431831,Mg64Si31Bi1
Mg64Si32Bi,mp-1194936,0.0,3.92728824,0.060372171340206116,"{12: 64, 14: 32, 83: 1}","[12, 14, 83]",12641432831,Mg64Si32Bi1
Mg7Si,mp-1016319,0.0,3.94327763,0.12079553312500035,"{12: 7, 14: 1}","[12, 14]",127141,Mg7Si1
Mg7Si4,mp-1074788,0.0,4.42730391,0.17272053954545363,"{12: 7, 14: 4}","[12, 14]",127144,Mg7Si4
KNaTiSi3(HO5)2,mp-1212364,3.3986,3.93647247,0.011591248634263529,"{19: 1, 11: 1, 22: 1, 14: 3, 1: 2, 8: 10}","[1, 8, 11, 14, 19, 22]",12810111143191221,K1Na1Ti1Si3H2O10
K2TiSi3(HO5)2,mp-758597,3.4247,0.45970922,0.0,"{19: 2, 22: 1, 14: 3, 1: 2, 8: 10}","[1, 8, 14, 19, 22]",12810143192221,K2Ti1Si3H2O10
K2ZrSi3(HO5)2,mp-720643,4.9328,0.00920749,0.0,"{19: 2, 40: 1, 14: 3, 1: 2, 8: 10}","[1, 8, 14, 19, 40]",12810143192401,K2Zr1Si3H2O10
K3EuSi3(HO5)2,mp-758551,0.0,0.656691,0.014827169342106927,"{19: 3, 63: 1, 14: 3, 1: 2, 8: 10}","[1, 8, 14, 19, 63]",12810143193631,K3Eu1Si3H2O10
K3TbSi3(HO5)2,mp-759928,4.603999999999999,0.42200301,0.0,"{19: 3, 65: 1, 14: 3, 1: 2, 8: 10}","[1, 8, 14, 19, 65]",12810143193651,K3Tb1Si3H2O10
K3ErSi3(HO5)2,mp-758527,4.4098,0.37596064,0.0,"{19: 3, 68: 1, 14: 3, 1: 2, 8: 10}","[1, 8, 14, 19, 68]",12810143193681,K3Er1Si3H2O10
Ca3Si3(HO5)2,mp-1202207,4.7459999999999996,1.72092224,0.0095128245833358,"{20: 3, 14: 3, 1: 2, 8: 10}","[1, 8, 14, 20]",12810143203,Ca3Si3H2O10
Ca4Si3H2O11,mp-1197100,4.7044,1.54926613,0.007745245333339312,"{20: 4, 14: 3, 1: 2, 8: 11}","[1, 8, 14, 20]",12811143204,Ca4Si3H2O11
K3Si5H2O11,mp-1212247,0.0006999999999992568,4.59808805,0.19864397619049168,"{19: 3, 14: 5, 1: 2, 8: 11}","[1, 8, 14, 19]",12811145193,K3Si5H2O11
SiH2O,mp-675098,0.0,3.38248498,0.6584620431250006,"{14: 1, 1: 2, 8: 1}","[1, 8, 14]",1281141,Si1H2O1
Na3VSi4(HO6)2,mp-698046,2.2359000000000004,2.41500807,0.0,"{11: 3, 23: 1, 14: 4, 1: 2, 8: 12}","[1, 8, 11, 14, 23]",12812113144231,Na3V1Si4H2O12
KMg3GaSi3(HO6)2,mp-1223547,4.0953,5.49156286,0.0,"{19: 1, 12: 3, 31: 1, 14: 3, 1: 2, 8: 12}","[1, 8, 12, 14, 19, 31]",12812123143191311,K1Mg3Ga1Si3H2O12
Mg3Si4(HO6)2,mp-696497,5.1766000000000005,1.39646555,0.0,"{12: 3, 14: 4, 1: 2, 8: 12}","[1, 8, 12, 14]",12812123144,Mg3Si4H2O12
Na2TiSi4H2O13,mp-1205145,0.3467999999999999,1.01308406,0.11787492295454616,"{11: 2, 22: 1, 14: 4, 1: 2, 8: 13}","[1, 8, 11, 14, 22]",12813112144221,Na2Ti1Si4H2O13
Ca6Si3H2O13,mp-554539,4.47,1.65929811,0.010728254791667169,"{20: 6, 14: 3, 1: 2, 8: 13}","[1, 8, 14, 20]",12813143206,Ca6Si3H2O13
Sr3TiSi4H2O13,mp-1208788,0.0,1.39209493,0.24276685659419872,"{38: 3, 22: 1, 14: 4, 1: 2, 8: 13}","[1, 8, 14, 22, 38]",12813144221383,Sr3Ti1Si4H2O13
Cs2SiP4(HO7)2,mp-697078,5.1811,0.50364363,0.0,"{55: 2, 14: 1, 15: 4, 1: 2, 8: 14}","[1, 8, 14, 15, 55]",12814141154552,Cs2Si1P4H2O14
CaZrSi6H2O15,mp-1214069,2.7453,2.75891871,0.22353958273333507,"{20: 1, 40: 1, 14: 6, 1: 2, 8: 15}","[1, 8, 14, 20, 40]",12815146201401,Ca1Zr1Si6H2O15
Mg7Si4(HO8)2,mp-722896,3.8438,4.254843,0.0956907334947994,"{12: 7, 14: 4, 1: 2, 8: 16}","[1, 8, 12, 14]",12816127144,Mg7Si4H2O16
Mg9Si4(HO9)2,mp-1222597,5.0615000000000006,7.69903878,0.00633204575757329,"{12: 9, 14: 4, 1: 2, 8: 18}","[1, 8, 12, 14]",12818129144,Mg9Si4H2O18
Ca6Si6H2O19,mp-1183664,4.4792,1.23792976,0.005035400075758645,"{20: 6, 14: 6, 1: 2, 8: 19}","[1, 8, 14, 20]",12819146206,Ca6Si6H2O19
Na3Mg5Si8(HO12)2,mp-1211019,0.0,2.106301,0.009082193988099618,"{11: 3, 12: 5, 14: 8, 1: 2, 8: 24}","[1, 8, 11, 12, 14]",12824113125148,Na3Mg5Si8H2O24
K2CaMg5Si8(HO12)2,mp-1223917,4.401999999999999,2.38780955,0.0,"{19: 2, 20: 1, 12: 5, 14: 8, 1: 2, 8: 24}","[1, 8, 12, 14, 19, 20]",12824125148192201,K2Ca1Mg5Si8H2O24
Ca2Mg5Si8(HO12)2,mp-1196550,4.8269,6.91429779,0.0,"{20: 2, 12: 5, 14: 8, 1: 2, 8: 24}","[1, 8, 12, 14, 20]",12824125148202,Ca2Mg5Si8H2O24
Ca6Ga6Si3(HO12)2,mp-686681,0.0,1.76741861,0.08852811016260187,"{20: 6, 31: 6, 14: 3, 1: 2, 8: 24}","[1, 8, 14, 20, 31]",12824143206316,Ca6Ga6Si3H2O24
Si2H2O3,mp-1199781,6.7783,-1.20957532,0.019111965773809914,"{14: 2, 1: 2, 8: 3}","[1, 8, 14]",1283142,Si2H2O3
MgSi(HO2)2,mp-1078877,5.1541999999999994,4.24869004,0.15181570826636914,"{12: 1, 14: 1, 1: 2, 8: 4}","[1, 8, 12, 14]",1284121141,Mg1Si1H2O4
CaSi(HO2)2,mp-1199682,5.1408,1.06457167,0.015987954166670093,"{20: 1, 14: 1, 1: 2, 8: 4}","[1, 8, 14, 20]",1284141201,Ca1Si1H2O4
Cs2Si(HO2)2,mp-1259944,3.7654,4.33517793,0.04048380657407247,"{55: 2, 14: 1, 1: 2, 8: 4}","[1, 8, 14, 55]",1284141552,Cs2Si1H2O4
CaZnSiH2O5,mp-696853,3.4221000000000004,1.02721232,0.0033594996666757027,"{20: 1, 30: 1, 14: 1, 1: 2, 8: 5}","[1, 8, 14, 20, 30]",1285141201301,Ca1Zn1Si1H2O5
Ca2SiH2O5,mp-541431,4.6543,1.12168991,0.0024954320000052377,"{20: 2, 14: 1, 1: 2, 8: 5}","[1, 8, 14, 20]",1285141202,Ca2Si1H2O5
Zn2SiH2O5,mp-643814,3.1428,-0.27595091,0.01762784424999886,"{30: 2, 14: 1, 1: 2, 8: 5}","[1, 8, 14, 30]",1285141302,Zn2Si1H2O5
Si2H2O5,mp-626037,5.440300000000001,-1.14842047,0.03533249305555053,"{14: 2, 1: 2, 8: 5}","[1, 8, 14]",1285142,Si2H2O5
MnZn2Si(HO3)2,mp-1181196,1.1460000000000004,2.39033718,0.008066719999990646,"{25: 1, 30: 2, 14: 1, 1: 2, 8: 6}","[1, 8, 14, 25, 30]",1286141251302,Mn1Zn2Si1H2O6
USiH2PbO7,mp-1202774,1.8234000000000004,2.6709771,0.02412310638887316,"{92: 1, 14: 1, 1: 2, 82: 1, 8: 7}","[1, 8, 14, 82, 92]",1287141821921,U1Si1H2Pb1O7
Na2Si3(HO4)2,mp-698025,4.5957,0.27609147,0.0035371785000002376,"{11: 2, 14: 3, 1: 2, 8: 8}","[1, 8, 11, 14]",1288112143,Na2Si3H2O8
Ca2Ga2Si(HO4)2,mp-760729,3.5382,0.8370487,0.0,"{20: 2, 31: 2, 14: 1, 1: 2, 8: 8}","[1, 8, 14, 20, 31]",1288141202312,Ca2Ga2Si1H2O8
Na2Ti2Si2H2O9,mp-1211212,2.4419000000000004,2.83673582,0.23247785661764997,"{11: 2, 22: 2, 14: 2, 1: 2, 8: 9}","[1, 8, 11, 14, 22]",1289112142222,Na2Ti2Si2H2O9
Zn4Si2H2O9,mp-1215671,3.115,-0.68990947,0.01032237955881854,"{30: 4, 14: 2, 1: 2, 8: 9}","[1, 8, 14, 30]",1289142304,Zn4Si2H2O9
Si4H2O9,mp-627632,5.220400000000001,-0.67876718,0.042992308833333936,"{14: 4, 1: 2, 8: 9}","[1, 8, 14]",1289144,Si4H2O9
Mg9Si5,mp-542854,0.0,4.36123779,0.04099524178571423,"{12: 9, 14: 5}","[12, 14]",129145,Mg9Si5
SrSiH2F6,mp-1208705,3.8116,1.70356452,0.4634889720000004,"{38: 1, 14: 1, 1: 2, 9: 6}","[1, 9, 14, 38]",1296141381,Sr1Si1H2F6
KSiH3,mp-28695,2.5733,0.34475498,0.0,"{19: 1, 14: 1, 1: 3}","[1, 14, 19]",13141191,K1Si1H3
SiH3I,mp-28538,4.2188,-1.20100397,0.0,"{14: 1, 1: 3, 53: 1}","[1, 14, 53]",13141531,Si1H3I1
Ca2Mn3Si3H3O14,mp-1214361,1.7368000000000006,2.86649577,0.008092060166654313,"{20: 2, 25: 3, 14: 3, 1: 3, 8: 14}","[1, 8, 14, 20, 25]",13814143202253,Ca2Mn3Si3H3O14
Na3Mg5Si8(HO8)3,mp-1221605,3.8525,2.27484799,0.0026228106833645626,"{11: 3, 12: 5, 14: 8, 1: 3, 8: 24}","[1, 8, 11, 12, 14]",13824113125148,Na3Mg5Si8H3O24
Na3SiH3O5,mp-707333,3.8945,0.59474344,0.00353187781250508,"{11: 3, 14: 1, 1: 3, 8: 5}","[1, 8, 11, 14]",1385113141,Na3Si1H3O5
NaSi2(HO2)3,mp-697027,5.1697,-0.06554579,0.0014926018750003323,"{11: 1, 14: 2, 1: 3, 8: 6}","[1, 8, 11, 14]",1386111142,Na1Si2H3O6
SiH3F,mp-28289,5.8144,-3.72714196,0.020578798249999863,"{14: 1, 1: 3, 9: 1}","[1, 9, 14]",1391141,Si1H3F1
Si,mp-149,0.6105,5.63019776,0.0,{14: 1},[14],141,Si1
Sc5(Co2Si5)2,mp-542493,0.0,7.38961053,0.0,"{21: 5, 27: 4, 14: 10}","[14, 21, 27]",1410215274,Sc5Co4Si10
Sc5(Si5Rh2)2,mp-1196760,0.0,7.23149312,0.0620112715789487,"{21: 5, 14: 10, 45: 4}","[14, 21, 45]",1410215454,Sc5Si10Rh4
Sc5(Si5Ir2)2,mp-1195748,0.0,7.69830583,0.0,"{21: 5, 14: 10, 77: 4}","[14, 21, 77]",1410215774,Sc5Si10Ir4
LaCe4(SiRu)10,mp-1223245,0.0,8.31027263,0.004175938799999557,"{57: 1, 58: 4, 14: 10, 44: 10}","[14, 44, 57, 58]",14104410571584,La1Ce4Si10Ru10
LaSi10,mp-1190852,0.0,8.99413663,0.2543059068181819,"{57: 1, 14: 10}","[14, 57]",1410571,La1Si10
Dy5(Si5Ir2)2,mp-1198889,0.0,7.07040131,0.012472726578946158,"{66: 5, 14: 10, 77: 4}","[14, 66, 77]",1410665774,Dy5Si10Ir4
Ho5(Si5Ir2)2,mp-1205124,0.0,7.03714164,0.003906333947369056,"{67: 5, 14: 10, 77: 4}","[14, 67, 77]",1410675774,Ho5Si10Ir4
Er5(Si5Ir2)2,mp-1195957,0.0,7.05217824,0.0,"{68: 5, 14: 10, 77: 4}","[14, 68, 77]",1410685774,Er5Si10Ir4
Tm5(Si5Ir2)2,mp-1202399,0.0,7.07570077,0.0,"{69: 5, 14: 10, 77: 4}","[14, 69, 77]",1410695774,Tm5Si10Ir4
Lu5(Si5Ir2)2,mp-542170,0.0,7.12388986,0.0,"{71: 5, 14: 10, 77: 4}","[14, 71, 77]",1410715774,Lu5Si10Ir4
Ta(Si5W2)2,mp-1217773,0.0,9.69518352,0.058155960888889524,"{73: 1, 14: 10, 74: 4}","[14, 73, 74]",1410731744,Ta1Si10W4
Mn31Si11P,mp-1222619,0.0,7.74507609,0.19061764375969048,"{25: 31, 14: 11, 15: 1}","[14, 15, 25]",14111512531,Mn31Si11P1
SiP,mp-2798,1.7395,3.50735638,0.0,"{14: 1, 15: 1}","[14, 15]",141151,Si1P1
ZnSiAsP,mp-1215540,1.2092999999999998,5.17278312,0.010107917499999175,"{30: 1, 14: 1, 33: 1, 15: 1}","[14, 15, 30, 33]",141151301331,Zn1Si1As1P1
SiTc2P,mp-1093695,0.0,-3.18356182,3.079313837461733,"{14: 1, 43: 2, 15: 1}","[14, 15, 43]",141151432,Si1Tc2P1
SiPAu,mp-1207095,1.0382000000000002,3.87555826,0.0,"{14: 1, 15: 1, 79: 1}","[14, 15, 79]",141151791,Si1P1Au1
SiP2,mp-9996,1.4262000000000001,3.4854361,0.0,"{14: 1, 15: 2}","[14, 15]",141152,Si1P2
K2SiP2,mp-8235,1.2086999999999999,2.57292431,0.0,"{19: 2, 14: 1, 15: 2}","[14, 15, 19]",141152192,K2Si1P2
CaSiP2,mp-1195298,1.0249999999999995,4.72599696,0.020473860208335637,"{20: 1, 14: 1, 15: 2}","[14, 15, 20]",141152201,Ca1Si1P2
MnSiP2,mp-1207203,0.0,4.92868965,0.27341876624999983,"{25: 1, 14: 1, 15: 2}","[14, 15, 25]",141152251,Mn1Si1P2
ZnSiP2,mp-4763,1.3641000000000005,4.44458853,0.0,"{30: 1, 14: 1, 15: 2}","[14, 15, 30]",141152301,Zn1Si1P2
Si(AgP)2,mp-1206152,0.16999999999999993,5.07151014,0.0,"{14: 1, 47: 2, 15: 2}","[14, 15, 47]",141152472,Si1Ag2P2
CdSiP2,mp-4666,1.4257,3.92531796,0.0,"{48: 1, 14: 1, 15: 2}","[14, 15, 48]",141152481,Cd1Si1P2
Cs2SiP2,mp-8932,1.2699000000000003,3.18273867,0.0,"{55: 2, 14: 1, 15: 2}","[14, 15, 55]",141152552,Cs2Si1P2
SiHgP2,mp-1079714,1.0202,4.35507302,0.04246811249999993,"{14: 1, 80: 1, 15: 2}","[14, 15, 80]",141152801,Si1Hg1P2
Mn12SiP3,mp-1222102,0.0,7.97611859,0.027324339762930805,"{25: 12, 14: 1, 15: 3}","[14, 15, 25]",1411532512,Mn12Si1P3
Cs5SiP3,mp-616135,0.8416000000000001,2.94911269,0.004167489703064575,"{55: 5, 14: 1, 15: 3}","[14, 15, 55]",141153555,Cs5Si1P3
LaSiP3,mp-1232374,0.5185000000000004,6.71384438,0.0,"{57: 1, 14: 1, 15: 3}","[14, 15, 57]",141153571,La1Si1P3
CeSiP3,mp-651900,0.0,7.39474282,0.019876744499999432,"{58: 1, 14: 1, 15: 3}","[14, 15, 58]",141153581,Ce1Si1P3
PrSiP3,mp-1200190,0.25680000000000014,5.42831137,0.0,"{59: 1, 14: 1, 15: 3}","[14, 15, 59]",141153591,Pr1Si1P3
Ca4SiP4,mp-1214132,1.1988000000000003,4.02486017,0.0,"{20: 4, 14: 1, 15: 4}","[14, 15, 20]",141154204,Ca4Si1P4
Sr4SiP4,mp-1208796,1.3242999999999996,3.07403012,0.0,"{38: 4, 14: 1, 15: 4}","[14, 15, 38]",141154384,Sr4Si1P4
Ce3Si11Pt23,mp-568452,0.0,8.23155541,0.0,"{58: 3, 14: 11, 78: 23}","[14, 58, 78]",14115837823,Ce3Si11Pt23
Pr3Si11Pt23,mp-1198014,0.0,7.61211716,0.0,"{59: 3, 14: 11, 78: 23}","[14, 59, 78]",14115937823,Pr3Si11Pt23
Nd3Si11Pt23,mp-1196005,0.0,7.59593795,0.0,"{60: 3, 14: 11, 78: 23}","[14, 60, 78]",14116037823,Nd3Si11Pt23
SiS,mp-1023900,0.4776,-2.38142622,0.08684334124999893,"{14: 1, 16: 1}","[14, 16]",141161,Si1S1