formula,material_id,band_gap,efermi,energy_above_hull,comp_atoms,sorted_keys_comp_atoms,comp_number,new_formula
ZrSiS,mp-3938,0.0,7.6002603,0.0,"{40: 1, 14: 1, 16: 1}","[14, 16, 40]",141161401,Zr1Si1S1
HfSiS,mp-7916,0.0,8.12019096,0.0,"{72: 1, 14: 1, 16: 1}","[14, 16, 72]",141161721,Hf1Si1S1
ThSiS,mp-1077374,0.0,7.44694995,0.0,"{90: 1, 14: 1, 16: 1}","[14, 16, 90]",141161901,Th1Si1S1
USiS,mp-754474,0.0,9.95507204,0.03683429027777407,"{92: 1, 14: 1, 16: 1}","[14, 16, 92]",141161921,U1Si1S1
SiS2,mp-1602,3.1072,0.80820257,0.0,"{14: 1, 16: 2}","[14, 16]",141162,Si1S2
Sm3Si11Pt23,mp-1194935,0.0,7.54335286,0.0,"{62: 3, 14: 11, 78: 23}","[14, 62, 78]",14116237823,Sm3Si11Pt23
Zr2SiS2,mp-1207472,0.0,1.52633243,2.131300499249998,"{40: 2, 14: 1, 16: 2}","[14, 16, 40]",141162402,Zr2Si1S2
Ce3SiS2,mp-1226845,0.0,7.53917497,0.0,"{58: 3, 14: 1, 16: 2}","[14, 16, 58]",141162583,Ce3Si1S2
Hf2SiS2,mp-1212502,0.0,3.66637203,1.7373796319999926,"{72: 2, 14: 1, 16: 2}","[14, 16, 72]",141162722,Hf2Si1S2
Cd4Si(SeS)3,mp-1226875,1.1219,2.76636067,0.06837988954545615,"{48: 4, 14: 1, 34: 3, 16: 3}","[14, 16, 34, 48]",141163343484,Cd4Si1Se3S3
Rb2SiS3,mp-12016,2.8274,0.80613455,0.0,"{37: 2, 14: 1, 16: 3}","[14, 16, 37]",141163372,Rb2Si1S3
SiAg2S3,mp-1190974,1.3317,2.71432257,0.006062687395841593,"{14: 1, 47: 2, 16: 3}","[14, 16, 47]",141163472,Si1Ag2S3
Cs2SiS3,mp-1103520,2.9485,1.18892153,0.0,"{55: 2, 14: 1, 16: 3}","[14, 16, 55]",141163552,Cs2Si1S3
Tl2SiS3,mp-8190,2.3602999999999996,2.68179134,0.0,"{81: 2, 14: 1, 16: 3}","[14, 16, 81]",141163812,Tl2Si1S3
SiS4,mp-1080657,0.0,2.77623125,0.1512294227499993,"{14: 1, 16: 4}","[14, 16]",141164,Si1S4
KLaSiS4,mp-861938,2.8686000000000003,2.60457874,0.0,"{19: 1, 57: 1, 14: 1, 16: 4}","[14, 16, 19, 57]",141164191571,K1La1Si1S4
KCeSiS4,mp-22809,0.07430000000000003,4.61730447,0.0,"{19: 1, 58: 1, 14: 1, 16: 4}","[14, 16, 19, 58]",141164191581,K1Ce1Si1S4
KEuSiS4,mp-562302,0.0,1.90704548,0.0,"{19: 1, 63: 1, 14: 1, 16: 4}","[14, 16, 19, 63]",141164191631,K1Eu1Si1S4
KSiBiS4,mp-866651,2.0549,2.24558901,0.0,"{19: 1, 14: 1, 83: 1, 16: 4}","[14, 16, 19, 83]",141164191831,K1Si1Bi1S4
Ca2SiS4,mp-1194033,3.1115,5.03626924,0.0,"{20: 2, 14: 1, 16: 4}","[14, 16, 20]",141164202,Ca2Si1S4
Mn2SiS4,mp-5056,0.35360000000000014,4.70376317,0.0,"{25: 2, 14: 1, 16: 4}","[14, 16, 25]",141164252,Mn2Si1S4
ZnSi(AgS2)2,mp-1189914,1.6859000000000006,2.65690428,0.0,"{30: 1, 14: 1, 47: 2, 16: 4}","[14, 16, 30, 47]",141164301472,Zn1Si1Ag2S4
RbLaSiS4,mp-18658,2.7894,2.57989123,0.0,"{37: 1, 57: 1, 14: 1, 16: 4}","[14, 16, 37, 57]",141164371571,Rb1La1Si1S4
RbEuSiS4,mp-607479,0.0,1.67401134,0.0,"{37: 1, 63: 1, 14: 1, 16: 4}","[14, 16, 37, 63]",141164371631,Rb1Eu1Si1S4
RbSiBiS4,mp-560051,1.9806,2.03080071,0.0,"{37: 1, 14: 1, 83: 1, 16: 4}","[14, 16, 37, 83]",141164371831,Rb1Si1Bi1S4
Sr2SiS4,mp-1104926,2.8995,2.71306304,0.0,"{38: 2, 14: 1, 16: 4}","[14, 16, 38]",141164382,Sr2Si1S4
TlInSiS4,mp-556744,2.4359,1.98057208,0.0,"{81: 1, 49: 1, 14: 1, 16: 4}","[14, 16, 49, 81]",141164491811,Tl1In1Si1S4
Si(SnS2)2,mp-1192397,2.1185000000000005,5.85341094,0.004169816785712044,"{14: 1, 50: 2, 16: 4}","[14, 16, 50]",141164502,Si1Sn2S4
CsCeSiS4,mp-1194418,0.022500000000000853,4.61539079,0.0,"{55: 1, 58: 1, 14: 1, 16: 4}","[14, 16, 55, 58]",141164551581,Cs1Ce1Si1S4
CsSmSiS4,mp-561635,2.8414,1.92693467,0.0,"{55: 1, 62: 1, 14: 1, 16: 4}","[14, 16, 55, 62]",141164551621,Cs1Sm1Si1S4
CsEuSiS4,mp-1192887,0.0,1.75549327,0.0,"{55: 1, 63: 1, 14: 1, 16: 4}","[14, 16, 55, 63]",141164551631,Cs1Eu1Si1S4
CsGdSiS4,mp-630711,1.749,1.89642961,0.0,"{55: 1, 64: 1, 14: 1, 16: 4}","[14, 16, 55, 64]",141164551641,Cs1Gd1Si1S4
CsTbSiS4,mp-1194142,2.8851999999999998,2.00392851,0.0,"{55: 1, 65: 1, 14: 1, 16: 4}","[14, 16, 55, 65]",141164551651,Cs1Tb1Si1S4
CsDySiS4,mp-1193064,2.9318999999999997,1.9228172,0.0,"{55: 1, 66: 1, 14: 1, 16: 4}","[14, 16, 55, 66]",141164551661,Cs1Dy1Si1S4
CsHoSiS4,mp-1193331,2.9111000000000002,2.01244785,0.0,"{55: 1, 67: 1, 14: 1, 16: 4}","[14, 16, 55, 67]",141164551671,Cs1Ho1Si1S4
CsErSiS4,mp-16972,2.9570000000000003,1.95175175,0.0,"{55: 1, 68: 1, 14: 1, 16: 4}","[14, 16, 55, 68]",141164551681,Cs1Er1Si1S4
CsTmSiS4,mp-1194326,2.9693000000000005,1.95317093,0.0,"{55: 1, 69: 1, 14: 1, 16: 4}","[14, 16, 55, 69]",141164551691,Cs1Tm1Si1S4
CsSiBiS4,mp-558426,2.4826,1.91313441,0.0,"{55: 1, 14: 1, 83: 1, 16: 4}","[14, 16, 55, 83]",141164551831,Cs1Si1Bi1S4
Eu2SiS4,mp-22504,0.28940000000000055,5.02947862,0.0,"{63: 2, 14: 1, 16: 4}","[14, 16, 63]",141164632,Eu2Si1S4
Tl4SiS4,mp-8479,1.9544999999999995,2.88626766,0.0,"{81: 4, 14: 1, 16: 4}","[14, 16, 81]",141164814,Tl4Si1S4
Si(PbS2)2,mp-504564,1.9690000000000003,3.93546722,0.0,"{14: 1, 82: 2, 16: 4}","[14, 16, 82]",141164822,Si1Pb2S4
U5SiS4,mp-1216882,0.0,10.4447555,0.043393532500004994,"{92: 5, 14: 1, 16: 4}","[14, 16, 92]",141164925,U5Si1S4
La2SiS5,mp-558724,2.3415,5.17325871,0.0,"{57: 2, 14: 1, 16: 5}","[14, 16, 57]",141165572,La2Si1S5
Ce2SiS5,mp-558269,0.0,6.74839572,0.012234384374998797,"{58: 2, 14: 1, 16: 5}","[14, 16, 58]",141165582,Ce2Si1S5
Pr2SiS5,mp-1209396,2.4505000000000003,6.12213509,0.00200277250000358,"{59: 2, 14: 1, 16: 5}","[14, 16, 59]",141165592,Pr2Si1S5
Nd2SiS5,mp-1209955,2.4368,6.12619273,0.0,"{60: 2, 14: 1, 16: 5}","[14, 16, 60]",141165602,Nd2Si1S5
Nd3SiS6Cl,mp-559779,2.5568000000000004,5.48390868,0.0,"{60: 3, 14: 1, 16: 6, 17: 1}","[14, 16, 17, 60]",141166171603,Nd3Si1S6Cl1
Sm3SiS6Cl,mp-556910,2.5659,3.01194854,0.0,"{62: 3, 14: 1, 16: 6, 17: 1}","[14, 16, 17, 62]",141166171623,Sm3Si1S6Cl1
Dy3Si11Pt23,mp-1200984,0.0,7.62539567,0.0,"{66: 3, 14: 11, 78: 23}","[14, 66, 78]",14116637823,Dy3Si11Pt23
In2Si(AgS3)2,mp-558407,0.9912000000000001,3.1998552,0.005986147727268687,"{49: 2, 14: 1, 47: 2, 16: 6}","[14, 16, 47, 49]",141166472492,In2Si1Ag2S6
Si(Ag4S3)2,mp-7614,0.7551000000000001,2.74039186,0.0,"{14: 1, 47: 8, 16: 6}","[14, 16, 47]",141166478,Si1Ag8S6
Cd4SiS6,mp-18179,1.4382000000000001,1.65001409,0.006489037272727316,"{48: 4, 14: 1, 16: 6}","[14, 16, 48]",141166484,Cd4Si1S6
Si(Hg2S3)2,mp-17948,0.43910000000000005,1.78139693,0.013040849090908857,"{14: 1, 80: 4, 16: 6}","[14, 16, 80]",141166804,Si1Hg4S6
La3CoSiS7,mp-1211587,0.0,7.58364535,0.04317970661460535,"{57: 3, 27: 1, 14: 1, 16: 7}","[14, 16, 27, 57]",141167271573,La3Co1Si1S7
Ho3Si11Pt23,mp-1201436,0.0,7.55937578,0.0,"{67: 3, 14: 11, 78: 23}","[14, 67, 78]",14116737823,Ho3Si11Pt23
La3SiAgS7,mp-17719,1.9663000000000004,5.31582187,0.0,"{57: 3, 14: 1, 47: 1, 16: 7}","[14, 16, 47, 57]",141167471573,La3Si1Ag1S7
Ce3SiAgS7,mp-866605,0.019699999999999385,6.90846231,0.0,"{58: 3, 14: 1, 47: 1, 16: 7}","[14, 16, 47, 58]",141167471583,Ce3Si1Ag1S7
Pr3SiAgS7,mp-863751,1.8048999999999995,3.96855311,0.0,"{59: 3, 14: 1, 47: 1, 16: 7}","[14, 16, 47, 59]",141167471593,Pr3Si1Ag1S7
Nd3SiAgS7,mp-864666,1.7708999999999997,3.95998056,0.0,"{60: 3, 14: 1, 47: 1, 16: 7}","[14, 16, 47, 60]",141167471603,Nd3Si1Ag1S7
Sm3SiAgS7,mp-863032,1.8405000000000005,4.09119673,0.0,"{62: 3, 14: 1, 47: 1, 16: 7}","[14, 16, 47, 62]",141167471623,Sm3Si1Ag1S7
GaSi(MoS2)4,mp-16338,0.0,5.23064406,0.3760125153571421,"{31: 1, 14: 1, 42: 4, 16: 8}","[14, 16, 31, 42]",141168311424,Ga1Si1Mo4S8
Er3Si11Pt23,mp-1201817,0.0,7.50910291,0.0,"{68: 3, 14: 11, 78: 23}","[14, 68, 78]",14116837823,Er3Si11Pt23
Tm3Si11Pt23,mp-1195989,0.0,7.5028972,0.010653467612605994,"{69: 3, 14: 11, 78: 23}","[14, 69, 78]",14116937823,Tm3Si11Pt23
SiCl2,mp-29174,2.0151,-0.08388791,0.06096741874999978,"{14: 1, 17: 2}","[14, 17]",141172,Si1Cl2
SiWCl2,mp-631389,0.0,8.52373964,1.9473219190624995,"{14: 1, 74: 1, 17: 2}","[14, 17, 74]",141172741,Si1W1Cl2
La3SiCl3,mp-1211457,0.0,6.2604734,0.0,"{57: 3, 14: 1, 17: 3}","[14, 17, 57]",141173573,La3Si1Cl3
SiCl4,mp-28391,5.5658,-2.63413313,0.0,"{14: 1, 17: 4}","[14, 17]",141174,Si1Cl4
U3Si11Pt23,mp-569093,0.0,7.68584147,0.3930178003243272,"{92: 3, 14: 11, 78: 23}","[14, 78, 92]",14117823923,U3Si11Pt23
KSi,mp-1217,1.2619000000000002,1.75708683,0.0,"{19: 1, 14: 1}","[14, 19]",141191,K1Si1
KLaSiSe4,mp-861606,2.2080999999999995,2.29878699,0.0,"{19: 1, 57: 1, 14: 1, 34: 4}","[14, 19, 34, 57]",141191344571,K1La1Si1Se4
KPrSiSe4,mp-13538,2.1773,1.50127263,0.0,"{19: 1, 59: 1, 14: 1, 34: 4}","[14, 19, 34, 59]",141191344591,K1Pr1Si1Se4
KSiTc2,mp-631318,0.0,6.35572004,1.2661169098749987,"{19: 1, 14: 1, 43: 2}","[14, 19, 43]",141191432,K1Si1Tc2
K2Zn3SiAs4,mp-1223862,0.21709999999999985,2.55919679,0.024008887499997744,"{19: 2, 30: 3, 14: 1, 33: 4}","[14, 19, 30, 33]",141192303334,K2Zn3Si1As4
K2SiAs2,mp-6984,1.0036,2.10370136,0.0,"{19: 2, 14: 1, 33: 2}","[14, 19, 33]",141192332,K2Si1As2
K2EuSiSe5,mp-628804,0.3390000000000004,3.41544887,0.0,"{19: 2, 63: 1, 14: 1, 34: 5}","[14, 19, 34, 63]",141192345631,K2Eu1Si1Se5
K3Si,mp-973528,0.0,1.22270214,0.3334369778750004,"{19: 3, 14: 1}","[14, 19]",141193,K3Si1
K3SiTe3,mp-7657,1.7179000000000002,1.68595008,0.0,"{19: 3, 14: 1, 52: 3}","[14, 19, 52]",141193523,K3Si1Te3
CaSi,mp-1563,0.0,4.91583017,0.0,"{20: 1, 14: 1}","[14, 20]",141201,Ca1Si1
CaMnSi,mp-21096,0.0,4.63565206,0.060222976944444895,"{20: 1, 25: 1, 14: 1}","[14, 20, 25]",141201251,Ca1Mn1Si1
CaCoSi,mp-1018658,0.0,4.93689581,0.008972159999999008,"{20: 1, 27: 1, 14: 1}","[14, 20, 27]",141201271,Ca1Co1Si1
CaZnSi,mp-16266,0.0,4.20188067,0.0,"{20: 1, 30: 1, 14: 1}","[14, 20, 30]",141201301,Ca1Zn1Si1
CaGaSi,mp-1227042,0.0,4.64006365,0.0,"{20: 1, 31: 1, 14: 1}","[14, 20, 31]",141201311,Ca1Ga1Si1
SrCaSi,mp-7084,0.42239999999999966,3.08389273,0.0,"{38: 1, 20: 1, 14: 1}","[14, 20, 38]",141201381,Sr1Ca1Si1
CaSiPd,mp-8842,0.0,5.11086412,0.0,"{20: 1, 14: 1, 46: 1}","[14, 20, 46]",141201461,Ca1Si1Pd1
CaCdSi,mp-962078,0.0,3.70527482,0.2559678261111116,"{20: 1, 48: 1, 14: 1}","[14, 20, 48]",141201481,Ca1Cd1Si1
CaRe2Si,mp-631420,0.0,7.2007416,1.079861385,"{20: 1, 75: 2, 14: 1}","[14, 20, 75]",141201752,Ca1Re2Si1
CaSiPt,mp-4478,0.0,5.41119814,0.0,"{20: 1, 14: 1, 78: 1}","[14, 20, 78]",141201781,Ca1Si1Pt1
CaSiAu,mp-1227046,0.0,4.70906082,0.0,"{20: 1, 14: 1, 79: 1}","[14, 20, 79]",141201791,Ca1Si1Au1
Ca2Si,mp-1009733,0.5509000000000004,2.34642577,0.0,"{20: 2, 14: 1}","[14, 20]",141202,Ca2Si1
Ca2GaSi,mp-1227300,0.0,3.48739864,0.0,"{20: 2, 31: 1, 14: 1}","[14, 20, 31]",141202311,Ca2Ga1Si1
Ca2SiSe4,mp-1194183,2.4024,1.42241279,0.0,"{20: 2, 14: 1, 34: 4}","[14, 20, 34]",141202344,Ca2Si1Se4
Ca2SiIr2,mp-30312,0.0,5.50455336,0.0,"{20: 2, 14: 1, 77: 2}","[14, 20, 77]",141202772,Ca2Si1Ir2
Ca3SiBr2,mp-568050,0.31700000000000017,3.81122418,0.024828663750000146,"{20: 3, 14: 1, 35: 2}","[14, 20, 35]",141203352,Ca3Si1Br2
ScSi,mp-9969,0.0,6.35413905,0.0,"{21: 1, 14: 1}","[14, 21]",141211,Sc1Si1
ScMnSi,mp-9550,0.0,5.98775014,0.0,"{21: 1, 25: 1, 14: 1}","[14, 21, 25]",141211251,Sc1Mn1Si1
ScCoSi,mp-1103034,0.0,6.64202439,0.0,"{21: 1, 27: 1, 14: 1}","[14, 21, 27]",141211271,Sc1Co1Si1
ScSiRu,mp-1080715,0.0,7.34996181,0.0,"{21: 1, 14: 1, 44: 1}","[14, 21, 44]",141211441,Sc1Si1Ru1
ScSiRu2,mp-1095923,0.04939999999999989,-3.15842377,3.3933263950000008,"{21: 1, 14: 1, 44: 2}","[14, 21, 44]",141211442,Sc1Si1Ru2
ScSiRh,mp-20492,0.0,6.83144185,0.0,"{21: 1, 14: 1, 45: 1}","[14, 21, 45]",141211451,Sc1Si1Rh1
ScSiRh2,mp-972970,0.0,7.94404643,0.024059236666665207,"{21: 1, 14: 1, 45: 2}","[14, 21, 45]",141211452,Sc1Si1Rh2
ScSiPd,mp-1102080,0.0,6.24674563,0.0,"{21: 1, 14: 1, 46: 1}","[14, 21, 46]",141211461,Sc1Si1Pd1
ScSiPd2,mp-862556,0.0,6.804707,0.07523939374999955,"{21: 1, 14: 1, 46: 2}","[14, 21, 46]",141211462,Sc1Si1Pd2
ScSiAg,mp-1100432,0.2779999999999996,3.44686126,0.6476954327777786,"{21: 1, 14: 1, 47: 1}","[14, 21, 47]",141211471,Sc1Si1Ag1
LaScSi,mp-1024951,0.0,6.60757278,0.0,"{57: 1, 21: 1, 14: 1}","[14, 21, 57]",141211571,La1Sc1Si1
CeScSi,mp-10087,0.0,6.51950846,0.06771882188888867,"{58: 1, 21: 1, 14: 1}","[14, 21, 58]",141211581,Ce1Sc1Si1
PrScSi,mp-1024960,0.0,4.62761224,0.013788664285714347,"{59: 1, 21: 1, 14: 1}","[14, 21, 59]",141211591,Pr1Sc1Si1
NdScSi,mp-1077558,0.0,4.62372277,0.0109685913095241,"{60: 1, 21: 1, 14: 1}","[14, 21, 60]",141211601,Nd1Sc1Si1
SmScSi,mp-8320,0.0,4.47044196,0.010615470714284925,"{62: 1, 21: 1, 14: 1}","[14, 21, 62]",141211621,Sm1Sc1Si1
GdScSi,mp-22480,0.0,4.56109515,0.0,"{64: 1, 21: 1, 14: 1}","[14, 21, 64]",141211641,Gd1Sc1Si1
TbScSi,mp-1217534,0.0,4.77890506,0.20980281533332956,"{65: 1, 21: 1, 14: 1}","[14, 21, 65]",141211651,Tb1Sc1Si1
DyScSi,mp-1225781,0.0,4.7360538,0.2119673363333341,"{66: 1, 21: 1, 14: 1}","[14, 21, 66]",141211661,Dy1Sc1Si1
HoScSi,mp-1224213,0.0,4.70850661,0.21618953677777597,"{67: 1, 21: 1, 14: 1}","[14, 21, 67]",141211671,Ho1Sc1Si1
ErScSi,mp-1225762,0.0,4.67770953,0.22089968533333249,"{68: 1, 21: 1, 14: 1}","[14, 21, 68]",141211681,Er1Sc1Si1
TmScSi,mp-1216908,0.0,4.71379121,0.2228928730370363,"{69: 1, 21: 1, 14: 1}","[14, 21, 69]",141211691,Tm1Sc1Si1
ScSiIr,mp-1095563,0.0,7.72291465,0.0,"{21: 1, 14: 1, 77: 1}","[14, 21, 77]",141211771,Sc1Si1Ir1
ScSiPt,mp-9225,0.0,7.27573192,0.0,"{21: 1, 14: 1, 78: 1}","[14, 21, 78]",141211781,Sc1Si1Pt1
ScSiPt2,mp-13572,0.0,7.69405512,0.0,"{21: 1, 14: 1, 78: 2}","[14, 21, 78]",141211782,Sc1Si1Pt2
ScSiAu,mp-9023,0.0,6.96568834,0.0,"{21: 1, 14: 1, 79: 1}","[14, 21, 79]",141211791,Sc1Si1Au1
Sc2MnSi,mp-999208,0.0,6.24842025,0.26551468375000287,"{21: 2, 25: 1, 14: 1}","[14, 21, 25]",141212251,Sc2Mn1Si1
Sc2Mn3Si,mp-1209009,0.0,6.32726498,0.0,"{21: 2, 25: 3, 14: 1}","[14, 21, 25]",141212253,Sc2Mn3Si1
Sc2Co3Si,mp-27319,0.0,6.21407361,0.0,"{21: 2, 27: 3, 14: 1}","[14, 21, 27]",141212273,Sc2Co3Si1
TiSi,mp-7092,0.0,8.1921141,0.0,"{22: 1, 14: 1}","[14, 22]",141221,Ti1Si1
TiMn2Si,mp-865652,0.0,8.10210003,0.0,"{22: 1, 25: 2, 14: 1}","[14, 22, 25]",141221252,Ti1Mn2Si1
TiCoSi,mp-21306,0.0,7.58037489,0.0,"{22: 1, 27: 1, 14: 1}","[14, 22, 27]",141221271,Ti1Co1Si1
TiCo2Si,mp-3657,0.0,8.10358595,0.0,"{22: 1, 27: 2, 14: 1}","[14, 22, 27]",141221272,Ti1Co2Si1
TiSiTc2,mp-865669,0.0,8.61008533,0.0,"{22: 1, 14: 1, 43: 2}","[14, 22, 43]",141221432,Ti1Si1Tc2
TiSiRu,mp-11560,0.0,8.29411567,0.0,"{22: 1, 14: 1, 44: 1}","[14, 22, 44]",141221441,Ti1Si1Ru1
TiSiRu2,mp-865681,0.0,9.3610717,0.0,"{22: 1, 14: 1, 44: 2}","[14, 22, 44]",141221442,Ti1Si1Ru2
TiSiRh,mp-672645,0.0,7.74143279,0.0,"{22: 1, 14: 1, 45: 1}","[14, 22, 45]",141221451,Ti1Si1Rh1
TiSiPd,mp-1103162,0.0,7.24931525,0.0,"{22: 1, 14: 1, 46: 1}","[14, 22, 46]",141221461,Ti1Si1Pd1
Sc5(Re2Si3)4,mp-28385,0.0,8.31845489,0.0,"{21: 5, 75: 8, 14: 12}","[14, 21, 75]",1412215758,Sc5Re8Si12
TbTiSi,mp-22532,0.0,5.16633055,0.0,"{65: 1, 22: 1, 14: 1}","[14, 22, 65]",141221651,Tb1Ti1Si1
DyTiSi,mp-20954,0.0,5.13421637,0.0,"{66: 1, 22: 1, 14: 1}","[14, 22, 66]",141221661,Dy1Ti1Si1
HoTiSi,mp-22274,0.0,5.09585024,0.0,"{67: 1, 22: 1, 14: 1}","[14, 22, 67]",141221671,Ho1Ti1Si1
ErTiSi,mp-20918,0.0,5.1096933,0.0,"{68: 1, 22: 1, 14: 1}","[14, 22, 68]",141221681,Er1Ti1Si1
LuTiSi,mp-20478,0.0,5.14770837,0.0,"{71: 1, 22: 1, 14: 1}","[14, 22, 71]",141221711,Lu1Ti1Si1
TiReSi,mp-1095145,0.0,8.14118789,0.0,"{22: 1, 75: 1, 14: 1}","[14, 22, 75]",141221751,Ti1Re1Si1
TiSiOs,mp-1105654,0.0,8.46997355,0.0,"{22: 1, 14: 1, 76: 1}","[14, 22, 76]",141221761,Ti1Si1Os1
TiSiOs2,mp-865680,0.0,9.4920184,0.0,"{22: 1, 14: 1, 76: 2}","[14, 22, 76]",141221762,Ti1Si1Os2
TiSiIr,mp-1103248,0.0,8.73151956,0.0,"{22: 1, 14: 1, 77: 1}","[14, 22, 77]",141221771,Ti1Si1Ir1
TiSiPt,mp-1102195,0.0,8.33149258,0.0,"{22: 1, 14: 1, 78: 1}","[14, 22, 78]",141221781,Ti1Si1Pt1
Ti2Si,mp-1008689,0.0,5.12331729,0.9676537746296301,"{22: 2, 14: 1}","[14, 22]",141222,Ti2Si1
Ti2Cr3Si,mp-1217151,0.0,7.08554419,0.019857074444443512,"{22: 2, 24: 3, 14: 1}","[14, 22, 24]",141222243,Ti2Cr3Si1
Ti2MnSi,mp-999047,0.0,7.96906456,0.24447294437499956,"{22: 2, 25: 1, 14: 1}","[14, 22, 25]",141222251,Ti2Mn1Si1
Ti2CoSi,mp-999060,0.0,7.84352717,0.3079195232500016,"{22: 2, 27: 1, 14: 1}","[14, 22, 27]",141222271,Ti2Co1Si1
Ti2Co3Si,mp-1217162,0.0,7.10949584,0.09612629500000303,"{22: 2, 27: 3, 14: 1}","[14, 22, 27]",141222273,Ti2Co3Si1
Ti3Cr17Si12,mp-1217346,0.0,8.76939205,0.12806310070311966,"{22: 3, 24: 17, 14: 12}","[14, 22, 24]",14122232417,Ti3Cr17Si12
Ti3Si,mp-980420,0.0,6.43004402,0.014893564444443896,"{22: 3, 14: 1}","[14, 22]",141223,Ti3Si1
Mn3V17Si12,mp-1221900,0.0,8.15880659,0.0014003198437517739,"{25: 3, 23: 17, 14: 12}","[14, 23, 25]",14122317253,Mn3V17Si12
Ti4GaCo2Si,mp-1217150,0.0,6.78486872,0.2422600113541673,"{22: 4, 31: 1, 27: 2, 14: 1}","[14, 22, 27, 31]",141224272311,Ti4Ga1Co2Si1
Ti5Si,mp-2647026,0.0,6.6147499,0.05115868148148195,"{22: 5, 14: 1}","[14, 22]",141225,Ti5Si1
Ti5SiSb2,mp-1208204,0.0,8.29537561,0.0,"{22: 5, 14: 1, 51: 2}","[14, 22, 51]",141225512,Ti5Si1Sb2
Ti8Ga3Co4Si,mp-1217313,0.0,6.52298445,0.2110061573958335,"{22: 8, 31: 3, 27: 4, 14: 1}","[14, 22, 27, 31]",141228274313,Ti8Ga3Co4Si1
VCrSi,mp-1216382,0.0,8.2165112,0.24607433560000125,"{23: 1, 24: 1, 14: 1}","[14, 23, 24]",141231241,V1Cr1Si1
Mn2VSi,mp-865026,0.0,8.3176681,0.0,"{25: 2, 23: 1, 14: 1}","[14, 23, 25]",141231252,Mn2V1Si1
VCoSi,mp-21371,0.0,7.71164416,0.0,"{23: 1, 27: 1, 14: 1}","[14, 23, 27]",141231271,V1Co1Si1
VCo2Si,mp-20586,0.0,8.38538849,0.027069569739582633,"{23: 1, 27: 2, 14: 1}","[14, 23, 27]",141231272,V1Co2Si1
VSiGe,mp-1216245,0.0,9.01956495,0.06967602111111137,"{23: 1, 14: 1, 32: 1}","[14, 23, 32]",141231321,V1Si1Ge1
ZrVSi,mp-5541,0.0,6.22679015,0.0,"{40: 1, 23: 1, 14: 1}","[14, 23, 40]",141231401,Zr1V1Si1
NbVSi,mp-1220478,0.0,7.41937518,0.18452626583333398,"{41: 1, 23: 1, 14: 1}","[14, 23, 41]",141231411,Nb1V1Si1
VSiTc2,mp-865472,0.0,9.09583671,0.0,"{23: 1, 14: 1, 43: 2}","[14, 23, 43]",141231432,V1Si1Tc2
VSiRu2,mp-865507,0.0,9.5530325,0.0,"{23: 1, 14: 1, 44: 2}","[14, 23, 44]",141231442,V1Si1Ru2
VSiRh,mp-1100414,0.24910000000000032,6.32101666,0.12382212995495578,"{23: 1, 14: 1, 45: 1}","[14, 23, 45]",141231451,V1Si1Rh1
HfVSi,mp-1018720,0.0,6.63287749,0.0,"{72: 1, 23: 1, 14: 1}","[14, 23, 72]",141231721,Hf1V1Si1
VSiW,mp-1216281,0.0,8.527394,0.20885261233333452,"{23: 1, 14: 1, 74: 1}","[14, 23, 74]",141231741,V1Si1W1
VRe2Si,mp-1096343,0.18040000000000012,-3.32435549,4.238766847785713,"{23: 1, 75: 2, 14: 1}","[14, 23, 75]",141231752,V1Re2Si1
VSiOs2,mp-865506,0.0,9.61651856,0.0,"{23: 1, 14: 1, 76: 2}","[14, 23, 76]",141231762,V1Si1Os2
VSiPt,mp-961710,0.0,7.3327444,0.19767651333333536,"{23: 1, 14: 1, 78: 1}","[14, 23, 78]",141231781,V1Si1Pt1
V3Si,mp-2567,0.0,7.35063881,0.0,"{23: 3, 14: 1}","[14, 23]",141233,V3Si1
Zr2V3Si,mp-1215610,0.0,5.72808713,0.09664579833333065,"{40: 2, 23: 3, 14: 1}","[14, 23, 40]",141233402,Zr2V3Si1
Ta2V3Si,mp-1095672,0.0,6.57507067,0.0,"{73: 2, 23: 3, 14: 1}","[14, 23, 73]",141233732,Ta2V3Si1
V4SiSb2,mp-9398,0.0,8.44415733,0.005035267380954167,"{23: 4, 14: 1, 51: 2}","[14, 23, 51]",141234512,V4Si1Sb2
V6GaSi,mp-1216440,0.0,6.50544767,0.004700004999998342,"{23: 6, 31: 1, 14: 1}","[14, 23, 31]",141236311,V6Ga1Si1
V6SiGe,mp-1216453,0.0,7.17457075,0.0,"{23: 6, 14: 1, 32: 1}","[14, 23, 32]",141236321,V6Si1Ge1
V6SiSn,mp-1216430,0.0,7.54706683,0.015378113749999756,"{23: 6, 14: 1, 50: 1}","[14, 23, 50]",141236501,V6Si1Sn1
V6SiOs,mp-1216427,0.0,7.12215321,0.009314921874999271,"{23: 6, 14: 1, 76: 1}","[14, 23, 76]",141236761,V6Si1Os1
V9GaSiGe,mp-1216511,0.0,6.33570227,0.004614230416665421,"{23: 9, 31: 1, 14: 1, 32: 1}","[14, 23, 31, 32]",141239311321,V9Ga1Si1Ge1
CrSi,mp-7576,0.0,9.15775752,0.06875955900000008,"{24: 1, 14: 1}","[14, 24]",141241,Cr1Si1
Mn2CrSi,mp-1185616,0.0,8.84300006,0.14396606754310426,"{25: 2, 24: 1, 14: 1}","[14, 24, 25]",141241252,Mn2Cr1Si1
CrCoSi,mp-1095673,0.0,7.97811093,0.07981497638888868,"{24: 1, 27: 1, 14: 1}","[14, 24, 27]",141241271,Cr1Co1Si1
CrCo2Si,mp-1008224,0.0,8.01814661,0.018480944374999808,"{24: 1, 27: 2, 14: 1}","[14, 24, 27]",141241272,Cr1Co2Si1
ZrCrSi,mp-1102132,0.0,6.78159364,0.04581829305555729,"{40: 1, 24: 1, 14: 1}","[14, 24, 40]",141241401,Zr1Cr1Si1
NbCrSi,mp-9916,0.0,7.50152194,0.025313173828827473,"{41: 1, 24: 1, 14: 1}","[14, 24, 41]",141241411,Nb1Cr1Si1
CrSiMo,mp-1226241,0.0,9.3187466,0.18426993075397036,"{24: 1, 14: 1, 42: 1}","[14, 24, 42]",141241421,Cr1Si1Mo1
CrSiTc2,mp-1096636,0.0,-3.25878717,3.7949710241666654,"{24: 1, 14: 1, 43: 2}","[14, 24, 43]",141241432,Cr1Si1Tc2