formula,material_id,band_gap,efermi,energy_above_hull,comp_atoms,sorted_keys_comp_atoms,comp_number,new_formula
SmSiO3,mp-978506,0.0,9.24586432,0.6600386046249938,"{62: 1, 14: 1, 8: 3}","[8, 14, 62]",83141621,Sm1Si1O3
EuSiO3,mp-866030,0.0,8.90054151,0.2559819396666665,"{63: 1, 14: 1, 8: 3}","[8, 14, 63]",83141631,Eu1Si1O3
GdSiO3,mp-1184484,0.0,10.07453793,0.6070338796250017,"{64: 1, 14: 1, 8: 3}","[8, 14, 64]",83141641,Gd1Si1O3
TbSiO3,mp-1187364,0.0,9.7358935,0.709497433999994,"{65: 1, 14: 1, 8: 3}","[8, 14, 65]",83141651,Tb1Si1O3
HoSiO3,mp-1184813,0.0,9.78721311,0.7570571732499936,"{67: 1, 14: 1, 8: 3}","[8, 14, 67]",83141671,Ho1Si1O3
LuSiO3,mp-973655,0.0,9.9851127,0.878017376874995,"{71: 1, 14: 1, 8: 3}","[8, 14, 71]",83141711,Lu1Si1O3
SiHgO3,mp-1016874,0.0,5.60113231,0.4942845855000009,"{14: 1, 80: 1, 8: 3}","[8, 14, 80]",83141801,Si1Hg1O3
TlSiO3,mp-1187529,0.0,8.20271997,0.5340375676250062,"{81: 1, 14: 1, 8: 3}","[8, 14, 81]",83141811,Tl1Si1O3
SiPbO3,mp-21723,3.1053,3.33972898,0.0,"{14: 1, 82: 1, 8: 3}","[8, 14, 82]",83141821,Si1Pb1O3
SiBiO3,mp-972827,0.0,10.78705626,0.7190074119999856,"{14: 1, 83: 1, 8: 3}","[8, 14, 83]",83141831,Si1Bi1O3
AcSiO3,mp-1183150,0.0,10.58456163,0.47082051350000853,"{89: 1, 14: 1, 8: 3}","[8, 14, 89]",83141891,Ac1Si1O3
ThSiO3,mp-1187425,0.0,11.36409142,1.108246121500013,"{90: 1, 14: 1, 8: 3}","[8, 14, 90]",83141901,Th1Si1O3
PaSiO3,mp-1186401,0.0,13.01750207,1.001981955000005,"{91: 1, 14: 1, 8: 3}","[8, 14, 91]",83141911,Pa1Si1O3
USiO3,mp-1187767,0.0,12.90555086,0.7788711141666713,"{92: 1, 14: 1, 8: 3}","[8, 14, 92]",83141921,U1Si1O3
NpSiO3,mp-1186349,0.0,13.37195358,0.6173401541666692,"{93: 1, 14: 1, 8: 3}","[8, 14, 93]",83141931,Np1Si1O3
Si2O3,mp-1179195,0.9888999999999999,1.06259301,0.7751149699999988,"{14: 2, 8: 3}","[8, 14]",83142,Si2O3
Si2Cl2O3,mp-28959,5.6739999999999995,-1.75652502,0.026179834821430603,"{14: 2, 17: 2, 8: 3}","[8, 14, 17]",83142172,Si2Cl2O3
La10Si8O3,mp-555465,0.0,8.51768117,0.030570719345238473,"{57: 10, 14: 8, 8: 3}","[8, 14, 57]",831485710,La10Si8O3
Ce10Si8O3,mp-555617,0.0,8.34232864,0.0,"{58: 10, 14: 8, 8: 3}","[8, 14, 58]",831485810,Ce10Si8O3
NaMg30SiO32,mp-1039915,0.3260000000000005,9.0506223,0.06336098156250003,"{11: 1, 12: 30, 14: 1, 8: 32}","[8, 11, 12, 14]",8321111230141,Na1Mg30Si1O32
Mg(SiO2)16,mp-1234904,2.2934,2.63316326,0.07935932897959219,"{12: 1, 14: 16, 8: 32}","[8, 12, 14]",8321211416,Mg1Si16O32
KMg30SiO32,mp-1040245,0.33940000000000126,8.85989937,0.09724714627929654,"{19: 1, 12: 30, 14: 1, 8: 32}","[8, 12, 14, 19]",8321230141191,K1Mg30Si1O32
CaMg30SiO32,mp-1038016,1.8760999999999992,6.67471051,0.08861791986328171,"{20: 1, 12: 30, 14: 1, 8: 32}","[8, 12, 14, 20]",8321230141201,Ca1Mg30Si1O32
Mg30TiSiO32,mp-1098353,0.16440000000000055,8.50530324,0.1022129828732643,"{12: 30, 22: 1, 14: 1, 8: 32}","[8, 12, 14, 22]",8321230141221,Mg30Ti1Si1O32
Mg30VSiO32,mp-1036736,1.8949000000000007,6.77717298,0.08530589437500069,"{12: 30, 23: 1, 14: 1, 8: 32}","[8, 12, 14, 23]",8321230141231,Mg30V1Si1O32
Mg30CrSiO32,mp-1039892,1.8290000000000006,6.77551922,0.09767580093750006,"{12: 30, 24: 1, 14: 1, 8: 32}","[8, 12, 14, 24]",8321230141241,Mg30Cr1Si1O32
Mg30MnSiO32,mp-1038039,1.4162,7.26146693,0.09196898221982863,"{12: 30, 25: 1, 14: 1, 8: 32}","[8, 12, 14, 25]",8321230141251,Mg30Mn1Si1O32
Mg30CoSiO32,mp-1037157,0.0,8.89502283,0.0952027009375005,"{12: 30, 27: 1, 14: 1, 8: 32}","[8, 12, 14, 27]",8321230141271,Mg30Co1Si1O32
Mg30ZnSiO32,mp-1037343,1.9527,6.70950455,0.0958322179687503,"{12: 30, 30: 1, 14: 1, 8: 32}","[8, 12, 14, 30]",8321230141301,Mg30Zn1Si1O32
RbMg30SiO32,mp-1039945,0.3492999999999995,8.76659468,0.12127528256510356,"{37: 1, 12: 30, 14: 1, 8: 32}","[8, 12, 14, 37]",8321230141371,Rb1Mg30Si1O32
SrMg30SiO32,mp-1039906,1.7525000000000004,6.57505698,0.11561246912109358,"{38: 1, 12: 30, 14: 1, 8: 32}","[8, 12, 14, 38]",8321230141381,Sr1Mg30Si1O32
Mg30NbSiO32,mp-1039821,0.7725,7.67328737,0.12982270872532897,"{12: 30, 41: 1, 14: 1, 8: 32}","[8, 12, 14, 41]",8321230141411,Mg30Nb1Si1O32
Mg30CdSiO32,mp-1039856,1.5483000000000002,7.01144824,0.11891090593750064,"{12: 30, 48: 1, 14: 1, 8: 32}","[8, 12, 14, 48]",8321230141481,Mg30Cd1Si1O32
Mg30SiSnO32,mp-1036665,1.7932000000000006,7.12134118,0.14870199554687513,"{12: 30, 14: 1, 50: 1, 8: 32}","[8, 12, 14, 50]",8321230141501,Mg30Si1Sn1O32
CsMg30SiO32,mp-1039950,0.3543000000000003,8.67768902,0.1597221346191411,"{55: 1, 12: 30, 14: 1, 8: 32}","[8, 12, 14, 55]",8321230141551,Cs1Mg30Si1O32
HfMg30SiO32,mp-1039844,0.0,8.90886796,0.14526076878906302,"{72: 1, 12: 30, 14: 1, 8: 32}","[8, 12, 14, 72]",8321230141721,Hf1Mg30Si1O32
Mg30SiBiO32,mp-1039843,0.09839999999999982,8.6797907,0.1634591893750006,"{12: 30, 14: 1, 83: 1, 8: 32}","[8, 12, 14, 83]",8321230141831,Mg30Si1Bi1O32
Ca6MnSi6Pb2(SO16)2,mp-1203019,0.0,1.90604356,0.26551848401360534,"{20: 6, 25: 1, 14: 6, 82: 2, 16: 2, 8: 32}","[8, 14, 16, 20, 25, 82]",832146162206251822,Ca6Mn1Si6Pb2S2O32
Ca9(Si3O16)2,mp-1182427,0.03170000000000006,1.04901104,0.41302073523936045,"{20: 9, 14: 6, 8: 32}","[8, 14, 20]",832146209,Ca9Si6O32
Si16O32F,mp-1219433,0.1894,-2.27142129,0.04922838950255226,"{14: 16, 8: 32, 9: 1}","[8, 9, 14]",832911416,Si16O32F1
K9Sm3Si12(O16F)2,mp-560235,4.5766,0.41806197,0.0,"{19: 9, 62: 3, 14: 12, 8: 32, 9: 2}","[8, 9, 14, 19, 62]",832921412199623,K9Sm3Si12O32F2
K9Eu3Si12(O16F)2,mp-555060,0.0,0.7805042,0.010887832068968706,"{19: 9, 63: 3, 14: 12, 8: 32, 9: 2}","[8, 9, 14, 19, 63]",832921412199633,K9Eu3Si12O32F2
K9Gd3Si12(O16F)2,mp-1211874,3.7656,4.13175922,0.0,"{19: 9, 64: 3, 14: 12, 8: 32, 9: 2}","[8, 9, 14, 19, 64]",832921412199643,K9Gd3Si12O32F2
ZnCr6Si2Pb10(O16F)2,mp-556077,2.1225999999999994,2.03464411,0.013720518553452798,"{30: 1, 24: 6, 14: 2, 82: 10, 8: 32, 9: 2}","[8, 9, 14, 24, 30, 82]",832921422463018210,Zn1Cr6Si2Pb10O32F2
Na5Ca7Zr2TiMnSi8(O8F)4,mp-1221189,0.17900000000000005,1.688134,0.019815791784714598,"{11: 5, 20: 7, 40: 2, 22: 1, 25: 1, 14: 8, 8: 32, 9: 4}","[8, 9, 11, 14, 20, 22, 25, 40]",83294115148207221251402,Na5Ca7Zr2Ti1Mn1Si8O32F4
Na4Ce2(Si4O11)3,mp-1200345,0.03970000000000001,0.49230048,0.14268689168300686,"{11: 4, 58: 2, 14: 12, 8: 33}","[8, 11, 14, 58]",8331141412582,Na4Ce2Si12O33
K8Nd3(Si4O11)3,mp-1224625,0.9364999999999999,2.6808314,0.01643384865556019,"{19: 8, 60: 3, 14: 12, 8: 33}","[8, 14, 19, 60]",8331412198603,K8Nd3Si12O33
Ca5MnSi9(Pb3O11)3,mp-651786,2.8158,3.28077709,0.0011837189795320668,"{20: 5, 25: 1, 14: 9, 82: 9, 8: 33}","[8, 14, 20, 25, 82]",833149205251829,Ca5Mn1Si9Pb9O33
K2Na4Ca5(Si6O17)2,mp-1205191,0.0,1.02995085,0.08689295498902094,"{19: 2, 11: 4, 20: 5, 14: 12, 8: 34}","[8, 11, 14, 19, 20]",8341141412192205,K2Na4Ca5Si12O34
K4Nb8Si(P2O17)2,mp-14873,1.8862999999999999,0.59334493,0.0,"{19: 4, 41: 8, 14: 1, 15: 4, 8: 34}","[8, 14, 15, 19, 41]",834141154194418,K4Nb8Si1P4O34
K8Gd3Si12ClO34,mp-1225838,0.08509999999999995,1.31519482,0.043860319906602996,"{19: 8, 64: 3, 14: 12, 17: 1, 8: 34}","[8, 14, 17, 19, 64]",8341412171198643,K8Gd3Si12Cl1O34
Ca13Si10(O17F5)2,mp-1182805,0.05810000000000004,0.64004314,0.2135481036069633,"{20: 13, 14: 10, 8: 34, 9: 10}","[8, 9, 14, 20]",83491014102013,Ca13Si10O34F10
Na8Zr3Ti3Mn2Si8(O17F)2,mp-1220956,1.2426,4.13330863,0.03814629503472311,"{11: 8, 40: 3, 22: 3, 25: 2, 14: 8, 8: 34, 9: 2}","[8, 9, 11, 14, 22, 25, 40]",83492118148223252403,Na8Zr3Ti3Mn2Si8O34F2
Na10Zr6Si7(PO18)2,mp-677336,3.9808000000000003,1.13878168,0.015449681762314427,"{11: 10, 40: 6, 14: 7, 15: 2, 8: 36}","[8, 11, 14, 15, 40]",8361110147152406,Na10Zr6Si7P2O36
NaCa5ScZn5(SiO3)12,mp-705485,4.1363,2.75624429,0.03697106583332577,"{11: 1, 20: 5, 21: 1, 30: 5, 14: 12, 8: 36}","[8, 11, 14, 20, 21, 30]",8361111412205211305,Na1Ca5Sc1Zn5Si12O36
Na12Mg2Nb4(SiO4)9,mp-2716414,2.0883,2.3307514,0.054419889206346994,"{11: 12, 12: 2, 41: 4, 14: 9, 8: 36}","[8, 11, 12, 14, 41]",8361112122149414,Na12Mg2Nb4Si9O36
Na12Mg2Ta4(SiO4)9,mp-2716369,3.0499000000000005,2.41381619,0.042901112301584554,"{11: 12, 12: 2, 73: 4, 14: 9, 8: 36}","[8, 11, 12, 14, 73]",8361112122149734,Na12Mg2Ta4Si9O36
Na12Mg4Nb2Si3(PO6)6,mp-2714441,2.2339,2.16576446,0.03660057529100502,"{11: 12, 12: 4, 41: 2, 14: 3, 15: 6, 8: 36}","[8, 11, 12, 14, 15, 41]",8361112124143156412,Na12Mg4Nb2Si3P6O36
Na12Mg4Ta2Si3(PO6)6,mp-2714588,3.2061,2.21606863,0.0320776456084646,"{11: 12, 12: 4, 73: 2, 14: 3, 15: 6, 8: 36}","[8, 11, 12, 14, 15, 73]",8361112124143156732,Na12Mg4Ta2Si3P6O36
Na12Mg4Nb2Si6(SO12)3,mp-2714363,1.6511,2.45060399,0.09889358055555242,"{11: 12, 12: 4, 41: 2, 14: 6, 16: 3, 8: 36}","[8, 11, 12, 14, 16, 41]",8361112124146163412,Na12Mg4Nb2Si6S3O36
Na12Mg4Ta2Si6(SO12)3,mp-2714480,2.479,2.40195527,0.09556765079365626,"{11: 12, 12: 4, 73: 2, 14: 6, 16: 3, 8: 36}","[8, 11, 12, 14, 16, 73]",8361112124146163732,Na12Mg4Ta2Si6S3O36
Na12Ca4Nb2Si3(PO6)6,mp-2714542,2.3626000000000005,1.52777375,0.05780965933862525,"{11: 12, 20: 4, 41: 2, 14: 3, 15: 6, 8: 36}","[8, 11, 14, 15, 20, 41]",8361112143156204412,Na12Ca4Nb2Si3P6O36
Na12Ca4Ta2Si3(PO6)6,mp-2714341,3.1304,1.71707503,0.06073656640211311,"{11: 12, 20: 4, 73: 2, 14: 3, 15: 6, 8: 36}","[8, 11, 14, 15, 20, 73]",8361112143156204732,Na12Ca4Ta2Si3P6O36
Na12Nb2Zn4Si3(PO6)6,mp-2714490,2.1512000000000002,1.98240112,0.07260889732804543,"{11: 12, 41: 2, 30: 4, 14: 3, 15: 6, 8: 36}","[8, 11, 14, 15, 30, 41]",8361112143156304412,Na12Nb2Zn4Si3P6O36
Na12Ta2Zn4Si3(PO6)6,mp-2714611,2.9082,2.15790097,0.0682929702645545,"{11: 12, 73: 2, 30: 4, 14: 3, 15: 6, 8: 36}","[8, 11, 14, 15, 30, 73]",8361112143156304732,Na12Ta2Zn4Si3P6O36
Na12Ca4Nb2Si6(SO12)3,mp-2714532,1.7748,1.90471483,0.11100448518518835,"{11: 12, 20: 4, 41: 2, 14: 6, 16: 3, 8: 36}","[8, 11, 14, 16, 20, 41]",8361112146163204412,Na12Ca4Nb2Si6S3O36
Na12Ca4Ta2Si6(SO12)3,mp-2714553,2.6172,1.92924565,0.10713552224867406,"{11: 12, 20: 4, 73: 2, 14: 6, 16: 3, 8: 36}","[8, 11, 14, 16, 20, 73]",8361112146163204732,Na12Ca4Ta2Si6S3O36
Na12Nb2Zn4Si6(SO12)3,mp-2714365,1.8343,2.09205598,0.12068037224867201,"{11: 12, 41: 2, 30: 4, 14: 6, 16: 3, 8: 36}","[8, 11, 14, 16, 30, 41]",8361112146163304412,Na12Nb2Zn4Si6S3O36
Na12Ta2Zn4Si6(SO12)3,mp-2714447,2.5737,2.22090218,0.11930010002645552,"{11: 12, 73: 2, 30: 4, 14: 6, 16: 3, 8: 36}","[8, 11, 14, 16, 30, 73]",8361112146163304732,Na12Ta2Zn4Si6S3O36
Na12Ca2Nb4(SiO4)9,mp-2716498,2.1783,2.09506249,0.0675302851322721,"{11: 12, 20: 2, 41: 4, 14: 9, 8: 36}","[8, 11, 14, 20, 41]",8361112149202414,Na12Ca2Nb4Si9O36
Na12Ca2Ta4(SiO4)9,mp-2716399,2.8515999999999995,2.18156393,0.06448838489417241,"{11: 12, 20: 2, 73: 4, 14: 9, 8: 36}","[8, 11, 14, 20, 73]",8361112149202734,Na12Ca2Ta4Si9O36
Na12Nb4Zn2(SiO4)9,mp-2716563,1.9959999999999996,2.3084845,0.0696952097883603,"{11: 12, 41: 4, 30: 2, 14: 9, 8: 36}","[8, 11, 14, 30, 41]",8361112149302414,Na12Nb4Zn2Si9O36
Na12Ta4Zn2(SiO4)9,mp-2716505,2.695,2.5958402,0.058738668677245975,"{11: 12, 73: 4, 30: 2, 14: 9, 8: 36}","[8, 11, 14, 30, 73]",8361112149302734,Na12Ta4Zn2Si9O36
Na13Mn5(SiO3)12,mp-1221917,0.45999999999999996,3.49742179,0.021518334507582892,"{11: 13, 25: 5, 14: 12, 8: 36}","[8, 11, 14, 25]",83611131412255,Na13Mn5Si12O36
Na3MgNb5Si3(PO6)6,mp-2715554,2.4362,0.80551512,0.01212584993315069,"{11: 3, 12: 1, 41: 5, 14: 3, 15: 6, 8: 36}","[8, 11, 12, 14, 15, 41]",836113121143156415,Na3Mg1Nb5Si3P6O36
Na3MgTa5Si3(PO6)6,mp-2715789,3.3085999999999998,0.93367852,0.005419670005148092,"{11: 3, 12: 1, 73: 5, 14: 3, 15: 6, 8: 36}","[8, 11, 12, 14, 15, 73]",836113121143156735,Na3Mg1Ta5Si3P6O36
Na3MgNb5Si6(SO12)3,mp-2715664,1.9244000000000003,1.37138862,0.07188678944031057,"{11: 3, 12: 1, 41: 5, 14: 6, 16: 3, 8: 36}","[8, 11, 12, 14, 16, 41]",836113121146163415,Na3Mg1Nb5Si6S3O36
Na3MgTa5Si6(SO12)3,mp-2715705,2.4802999999999997,1.57066079,0.060902992135416056,"{11: 3, 12: 1, 73: 5, 14: 6, 16: 3, 8: 36}","[8, 11, 12, 14, 16, 73]",836113121146163735,Na3Mg1Ta5Si6S3O36
Na3CaNb5Si3(PO6)6,mp-2715590,2.4164,0.58570749,0.01969552189814827,"{11: 3, 20: 1, 41: 5, 14: 3, 15: 6, 8: 36}","[8, 11, 14, 15, 20, 41]",836113143156201415,Na3Ca1Nb5Si3P6O36
Na3CaTa5Si3(PO6)6,mp-2715627,3.2068,0.81273395,0.01557460971605451,"{11: 3, 20: 1, 73: 5, 14: 3, 15: 6, 8: 36}","[8, 11, 14, 15, 20, 73]",836113143156201735,Na3Ca1Ta5Si3P6O36
Na3Nb5ZnSi3(PO6)6,mp-2715615,2.4434,0.68309284,0.02474290020061254,"{11: 3, 41: 5, 30: 1, 14: 3, 15: 6, 8: 36}","[8, 11, 14, 15, 30, 41]",836113143156301415,Na3Nb5Zn1Si3P6O36
Na3Ta5ZnSi3(PO6)6,mp-2715588,3.3062,0.83684127,0.018315696373454315,"{11: 3, 73: 5, 30: 1, 14: 3, 15: 6, 8: 36}","[8, 11, 14, 15, 30, 73]",836113143156301735,Na3Ta5Zn1Si3P6O36
Na3CaNb5Si6(SO12)3,mp-2715820,1.8154,1.05373281,0.08686520508597617,"{11: 3, 20: 1, 41: 5, 14: 6, 16: 3, 8: 36}","[8, 11, 14, 16, 20, 41]",836113146163201415,Na3Ca1Nb5Si6S3O36
Na3CaTa5Si6(SO12)3,mp-2715691,2.5475,1.34684992,0.0698706705092551,"{11: 3, 20: 1, 73: 5, 14: 6, 16: 3, 8: 36}","[8, 11, 14, 16, 20, 73]",836113146163201735,Na3Ca1Ta5Si6S3O36
Na3Nb5ZnSi6(SO12)3,mp-2715703,1.8419999999999999,1.30621447,0.0707175696924569,"{11: 3, 41: 5, 30: 1, 14: 6, 16: 3, 8: 36}","[8, 11, 14, 16, 30, 41]",836113146163301415,Na3Nb5Zn1Si6S3O36
Na3Ta5ZnSi6(SO12)3,mp-2715711,2.5403000000000002,1.5064833,0.05628893502314547,"{11: 3, 73: 5, 30: 1, 14: 6, 16: 3, 8: 36}","[8, 11, 14, 16, 30, 73]",836113146163301735,Na3Ta5Zn1Si6S3O36
Na6MgNb5Si6(PO12)3,mp-2715130,2.3822,1.23278694,0.03971567586739866,"{11: 6, 12: 1, 41: 5, 14: 6, 15: 3, 8: 36}","[8, 11, 12, 14, 15, 41]",836116121146153415,Na6Mg1Nb5Si6P3O36
Na6MgTa5Si6(PO12)3,mp-2715221,3.1597999999999997,1.44452592,0.029526073347955872,"{11: 6, 12: 1, 73: 5, 14: 6, 15: 3, 8: 36}","[8, 11, 12, 14, 15, 73]",836116121146153735,Na6Mg1Ta5Si6P3O36
Na6Mg2Nb4Si3(PO6)6,mp-2712711,2.0427,1.45015507,0.04286016461015052,"{11: 6, 12: 2, 41: 4, 14: 3, 15: 6, 8: 36}","[8, 11, 12, 14, 15, 41]",836116122143156414,Na6Mg2Nb4Si3P6O36
Na6Mg2Ta4Si3(PO6)6,mp-2712562,2.7596000000000003,1.57613695,0.038167461686163584,"{11: 6, 12: 2, 73: 4, 14: 3, 15: 6, 8: 36}","[8, 11, 12, 14, 15, 73]",836116122143156734,Na6Mg2Ta4Si3P6O36
Na6Mg2Nb4Si6(SO12)3,mp-2712657,1.8335,1.66336438,0.10179762061402986,"{11: 6, 12: 2, 41: 4, 14: 6, 16: 3, 8: 36}","[8, 11, 12, 14, 16, 41]",836116122146163414,Na6Mg2Nb4Si6S3O36
Na6Mg2Ta4Si6(SO12)3,mp-2712731,2.396,1.8163816,0.09018319405702169,"{11: 6, 12: 2, 73: 4, 14: 6, 16: 3, 8: 36}","[8, 11, 12, 14, 16, 73]",836116122146163734,Na6Mg2Ta4Si6S3O36
Na6Mg4Nb2Si3(SO6)6,mp-2713682,2.0943000000000005,1.36349924,0.09125634596491228,"{11: 6, 12: 4, 41: 2, 14: 3, 16: 6, 8: 36}","[8, 11, 12, 14, 16, 41]",836116124143166412,Na6Mg4Nb2Si3S6O36
Na6Mg4Ta2Si3(SO6)6,mp-2713242,2.8216,1.53530809,0.08629270114035315,"{11: 6, 12: 4, 73: 2, 14: 3, 16: 6, 8: 36}","[8, 11, 12, 14, 16, 73]",836116124143166732,Na6Mg4Ta2Si3S6O36
Na6Ca2Nb4Si3(PO6)6,mp-2712644,2.1178,0.97460219,0.059461533771927755,"{11: 6, 20: 2, 41: 4, 14: 3, 15: 6, 8: 36}","[8, 11, 14, 15, 20, 41]",836116143156202414,Na6Ca2Nb4Si3P6O36
Na6Ca2Ta4Si3(PO6)6,mp-2712705,2.7699,1.31954237,0.06095547539766066,"{11: 6, 20: 2, 73: 4, 14: 3, 15: 6, 8: 36}","[8, 11, 14, 15, 20, 73]",836116143156202734,Na6Ca2Ta4Si3P6O36
Na6Nb4Zn2Si3(PO6)6,mp-2712666,1.9031999999999998,1.39264647,0.06392276695906585,"{11: 6, 41: 4, 30: 2, 14: 3, 15: 6, 8: 36}","[8, 11, 14, 15, 30, 41]",836116143156302414,Na6Nb4Zn2Si3P6O36
Na6Ta4Zn2Si3(PO6)6,mp-2712611,2.7012,1.4449608,0.057815186812867125,"{11: 6, 73: 4, 30: 2, 14: 3, 15: 6, 8: 36}","[8, 11, 14, 15, 30, 73]",836116143156302734,Na6Ta4Zn2Si3P6O36
Na6Ca4Nb2Si3(SO6)6,mp-2713284,2.0305,0.90706007,0.11059362478069712,"{11: 6, 20: 4, 41: 2, 14: 3, 16: 6, 8: 36}","[8, 11, 14, 16, 20, 41]",836116143166204412,Na6Ca4Nb2Si3S6O36
Na6Ca4Ta2Si3(SO6)6,mp-2713671,2.8556,1.0204851,0.10946389666666612,"{11: 6, 20: 4, 73: 2, 14: 3, 16: 6, 8: 36}","[8, 11, 14, 16, 20, 73]",836116143166204732,Na6Ca4Ta2Si3S6O36
Na6Nb2Zn4Si3(SO6)6,mp-2713655,1.956,1.3235156,0.10955528716269392,"{11: 6, 41: 2, 30: 4, 14: 3, 16: 6, 8: 36}","[8, 11, 14, 16, 30, 41]",836116143166304412,Na6Nb2Zn4Si3S6O36
Na6Ta2Zn4Si3(SO6)6,mp-2713639,2.7409,1.31325563,0.10486433921783256,"{11: 6, 73: 2, 30: 4, 14: 3, 16: 6, 8: 36}","[8, 11, 14, 16, 30, 73]",836116143166304732,Na6Ta2Zn4Si3S6O36
Na6CaNb5Si6(PO12)3,mp-2715218,2.4465000000000003,1.09386489,0.04744078398533258,"{11: 6, 20: 1, 41: 5, 14: 6, 15: 3, 8: 36}","[8, 11, 14, 15, 20, 41]",836116146153201415,Na6Ca1Nb5Si6P3O36
Na6CaTa5Si6(PO12)3,mp-2715100,3.2007000000000003,1.2632196,0.03748778408772857,"{11: 6, 20: 1, 73: 5, 14: 6, 15: 3, 8: 36}","[8, 11, 14, 15, 20, 73]",836116146153201735,Na6Ca1Ta5Si6P3O36
Na6Nb5ZnSi6(PO12)3,mp-2714969,2.4671000000000003,1.12980149,0.04686251994151469,"{11: 6, 41: 5, 30: 1, 14: 6, 15: 3, 8: 36}","[8, 11, 14, 15, 30, 41]",836116146153301415,Na6Nb5Zn1Si6P3O36
Na6Ta5ZnSi6(PO12)3,mp-2714982,3.2619,1.36662901,0.034582264692977205,"{11: 6, 73: 5, 30: 1, 14: 6, 15: 3, 8: 36}","[8, 11, 14, 15, 30, 73]",836116146153301735,Na6Ta5Zn1Si6P3O36
Na6Ca2Nb4Si6(SO12)3,mp-2712758,1.9367999999999999,1.30256386,0.1254209921052576,"{11: 6, 20: 2, 41: 4, 14: 6, 16: 3, 8: 36}","[8, 11, 14, 16, 20, 41]",836116146163202414,Na6Ca2Nb4Si6S3O36
Na6Ca2Ta4Si6(SO12)3,mp-2712645,2.5807,1.55340836,0.12121572412281001,"{11: 6, 20: 2, 73: 4, 14: 6, 16: 3, 8: 36}","[8, 11, 14, 16, 20, 73]",836116146163202734,Na6Ca2Ta4Si6S3O36
Na6Nb4Zn2Si6(SO12)3,mp-2712752,1.9189999999999998,1.4105881,0.10882902884293699,"{11: 6, 41: 4, 30: 2, 14: 6, 16: 3, 8: 36}","[8, 11, 14, 16, 30, 41]",836116146163302414,Na6Nb4Zn2Si6S3O36
Na6Ta4Zn2Si6(SO12)3,mp-2712594,2.4926000000000004,1.6752305,0.09633426856724725,"{11: 6, 73: 4, 30: 2, 14: 6, 16: 3, 8: 36}","[8, 11, 14, 16, 30, 73]",836116146163302734,Na6Ta4Zn2Si6S3O36
Na9MgNb5(SiO4)9,mp-2715265,2.4515000000000002,1.64448854,0.03758342037500384,"{11: 9, 12: 1, 41: 5, 14: 9, 8: 36}","[8, 11, 12, 14, 41]",836119121149415,Na9Mg1Nb5Si9O36
Na9MgTa5(SiO4)9,mp-2715390,3.2419000000000002,1.84046828,0.021647193625005556,"{11: 9, 12: 1, 73: 5, 14: 9, 8: 36}","[8, 11, 12, 14, 73]",836119121149735,Na9Mg1Ta5Si9O36
Na9Mg2Nb4Si6(PO12)3,mp-2713237,2.0563,2.01865919,0.049739136930557315,"{11: 9, 12: 2, 41: 4, 14: 6, 15: 3, 8: 36}","[8, 11, 12, 14, 15, 41]",836119122146153414,Na9Mg2Nb4Si6P3O36
Na9Mg2Ta4Si6(PO12)3,mp-2713225,2.9134,2.2261965,0.03734249270833523,"{11: 9, 12: 2, 73: 4, 14: 6, 15: 3, 8: 36}","[8, 11, 12, 14, 15, 73]",836119122146153734,Na9Mg2Ta4Si6P3O36
Na9Mg5NbSi3(SO6)6,mp-2712587,1.5555,2.09926672,0.1028509249166687,"{11: 9, 12: 5, 41: 1, 14: 3, 16: 6, 8: 36}","[8, 11, 12, 14, 16, 41]",836119125143166411,Na9Mg5Nb1Si3S6O36
Na9Mg5TaSi3(SO6)6,mp-2712551,2.3123,2.09048462,0.10115883170833229,"{11: 9, 12: 5, 73: 1, 14: 3, 16: 6, 8: 36}","[8, 11, 12, 14, 16, 73]",836119125143166731,Na9Mg5Ta1Si3S6O36
Na9Ca5NbSi3(SO6)6,mp-2712768,1.6891,1.42518972,0.09957323264583273,"{11: 9, 20: 5, 41: 1, 14: 3, 16: 6, 8: 36}","[8, 11, 14, 16, 20, 41]",836119143166205411,Na9Ca5Nb1Si3S6O36
Na9Ca5TaSi3(SO6)6,mp-2712788,2.29,1.57786769,0.09698521295833906,"{11: 9, 20: 5, 73: 1, 14: 3, 16: 6, 8: 36}","[8, 11, 14, 16, 20, 73]",836119143166205731,Na9Ca5Ta1Si3S6O36
Na9NbZn5Si3(SO6)6,mp-2712600,1.7331,1.61293242,0.12393818856895322,"{11: 9, 41: 1, 30: 5, 14: 3, 16: 6, 8: 36}","[8, 11, 14, 16, 30, 41]",836119143166305411,Na9Nb1Zn5Si3S6O36
Na9TaZn5Si3(SO6)6,mp-2712561,2.5955,1.67875298,0.12183122612847175,"{11: 9, 73: 1, 30: 5, 14: 3, 16: 6, 8: 36}","[8, 11, 14, 16, 30, 73]",836119143166305731,Na9Ta1Zn5Si3S6O36
Na9Ca2Nb4Si6(PO12)3,mp-2715273,2.0073,1.80468561,0.06315202445833457,"{11: 9, 20: 2, 41: 4, 14: 6, 15: 3, 8: 36}","[8, 11, 14, 15, 20, 41]",836119146153202414,Na9Ca2Nb4Si6P3O36
Na9Ca2Ta4Si6(PO12)3,mp-2715266,2.8236,1.98727846,0.05197080723611158,"{11: 9, 20: 2, 73: 4, 14: 6, 15: 3, 8: 36}","[8, 11, 14, 15, 20, 73]",836119146153202734,Na9Ca2Ta4Si6P3O36
Na9Nb4Zn2Si6(PO12)3,mp-2713303,2.0733,1.80192985,0.066237895097224,"{11: 9, 41: 4, 30: 2, 14: 6, 15: 3, 8: 36}","[8, 11, 14, 15, 30, 41]",836119146153302414,Na9Nb4Zn2Si6P3O36
Na9Ta4Zn2Si6(PO12)3,mp-2713268,2.8507000000000002,1.99744785,0.05383960673611732,"{11: 9, 73: 4, 30: 2, 14: 6, 15: 3, 8: 36}","[8, 11, 14, 15, 30, 73]",836119146153302734,Na9Ta4Zn2Si6P3O36