formula,material_id,band_gap,efermi,energy_above_hull,comp_atoms,sorted_keys_comp_atoms,comp_number,new_formula
Na10Zn2Si7Ge6S5O48,mp-2714167,1.3990999999999998,2.34836808,0.18239345215812808,"{11: 10, 30: 2, 14: 7, 32: 6, 16: 5, 8: 48}","[8, 11, 14, 16, 30, 32]",8481110147165302326,Na10Zn2Si7Ge6S5O48
Na10Zr6Zn2Si7S5O48,mp-2715930,3.1990999999999996,1.41390447,0.10845469769230576,"{11: 10, 40: 6, 30: 2, 14: 7, 16: 5, 8: 48}","[8, 11, 14, 16, 30, 40]",8481110147165302406,Na10Zr6Zn2Si7S5O48
Na10Zn2Si7Sn6S5O48,mp-2714061,1.5981999999999998,2.62882895,0.14087703068376634,"{11: 10, 30: 2, 14: 7, 50: 6, 16: 5, 8: 48}","[8, 11, 14, 16, 30, 50]",8481110147165302506,Na10Zn2Si7Sn6S5O48
Na10Hf6Zn2Si7S5O48,mp-2715899,3.6479000000000004,1.61935285,0.09933864863247965,"{11: 10, 72: 6, 30: 2, 14: 7, 16: 5, 8: 48}","[8, 11, 14, 16, 30, 72]",8481110147165302726,Na10Hf6Zn2Si7S5O48
Na10Nb4Zn4Si7S5O48,mp-2715945,1.2725,1.88393886,0.16395018804333805,"{11: 10, 41: 4, 30: 4, 14: 7, 16: 5, 8: 48}","[8, 11, 14, 16, 30, 41]",8481110147165304414,Na10Nb4Zn4Si7S5O48
Na10Ta4Zn4Si7S5O48,mp-2714127,1.9401,2.07819434,0.1643962673717878,"{11: 10, 73: 4, 30: 4, 14: 7, 16: 5, 8: 48}","[8, 11, 14, 16, 30, 73]",8481110147165304734,Na10Ta4Zn4Si7S5O48
Na10Ga4Si7Ge4S5O48,mp-2715947,1.8099,2.28594108,0.17548381519230727,"{11: 10, 31: 4, 14: 7, 32: 4, 16: 5, 8: 48}","[8, 11, 14, 16, 31, 32]",8481110147165314324,Na10Ga4Si7Ge4S5O48
Na10Zr4Ga4Si7S5O48,mp-2716014,3.0763,1.71381236,0.1292992277564089,"{11: 10, 40: 4, 31: 4, 14: 7, 16: 5, 8: 48}","[8, 11, 14, 16, 31, 40]",8481110147165314404,Na10Zr4Ga4Si7S5O48
Na10Ga4Si7Sn4S5O48,mp-2715938,2.1678,2.38250899,0.14758513630341774,"{11: 10, 31: 4, 14: 7, 50: 4, 16: 5, 8: 48}","[8, 11, 14, 16, 31, 50]",8481110147165314504,Na10Ga4Si7Sn4S5O48
Na10Hf4Ga4Si7S5O48,mp-2714168,3.1504000000000003,1.82638734,0.11664958553418892,"{11: 10, 72: 4, 31: 4, 14: 7, 16: 5, 8: 48}","[8, 11, 14, 16, 31, 72]",8481110147165314724,Na10Hf4Ga4Si7S5O48
Na10Nb2Ga6Si7S5O48,mp-2716002,2.3409,1.63712162,0.12284226784187702,"{11: 10, 41: 2, 31: 6, 14: 7, 16: 5, 8: 48}","[8, 11, 14, 16, 31, 41]",8481110147165316412,Na10Nb2Ga6Si7S5O48
Na10Ta2Ga6Si7S5O48,mp-2716052,3.0324,1.72636434,0.12257767844016954,"{11: 10, 73: 2, 31: 6, 14: 7, 16: 5, 8: 48}","[8, 11, 14, 16, 31, 73]",8481110147165316732,Na10Ta2Ga6Si7S5O48
Na10In4Si7Ge4S5O48,mp-2715837,1.4139,2.2245434,0.16547476788462223,"{11: 10, 49: 4, 14: 7, 32: 4, 16: 5, 8: 48}","[8, 11, 14, 16, 32, 49]",8481110147165324494,Na10In4Si7Ge4S5O48
Na10La4Si7Ge4S5O48,mp-2714174,1.5526,1.68461945,0.20720073779914472,"{11: 10, 57: 4, 14: 7, 32: 4, 16: 5, 8: 48}","[8, 11, 14, 16, 32, 57]",8481110147165324574,Na10La4Si7Ge4S5O48
Na10Zr4In4Si7S5O48,mp-2715874,2.9499999999999993,2.11633151,0.10685710446581442,"{11: 10, 40: 4, 49: 4, 14: 7, 16: 5, 8: 48}","[8, 11, 14, 16, 40, 49]",8481110147165404494,Na10Zr4In4Si7S5O48
Na10La4Zr4Si7S5O48,mp-2716065,2.7053000000000003,1.75873164,0.1318330208333265,"{11: 10, 57: 4, 40: 4, 14: 7, 16: 5, 8: 48}","[8, 11, 14, 16, 40, 57]",8481110147165404574,Na10La4Zr4Si7S5O48
Na10Nb2In6Si7S5O48,mp-2715865,2.1699,1.94343758,0.11356800356838281,"{11: 10, 41: 2, 49: 6, 14: 7, 16: 5, 8: 48}","[8, 11, 14, 16, 41, 49]",8481110147165412496,Na10Nb2In6Si7S5O48
Na10La6Nb2Si7S5O48,mp-2715973,2.1206,1.74083397,0.132114490534188,"{11: 10, 57: 6, 41: 2, 14: 7, 16: 5, 8: 48}","[8, 11, 14, 16, 41, 57]",8481110147165412576,Na10La6Nb2Si7S5O48
Na10In4Si7Sn4S5O48,mp-2716039,1.6874000000000002,2.526476,0.13402248728633293,"{11: 10, 49: 4, 14: 7, 50: 4, 16: 5, 8: 48}","[8, 11, 14, 16, 49, 50]",8481110147165494504,Na10In4Si7Sn4S5O48
Na10Hf4In4Si7S5O48,mp-2715826,2.9604999999999997,2.23884623,0.10209136788462025,"{11: 10, 72: 4, 49: 4, 14: 7, 16: 5, 8: 48}","[8, 11, 14, 16, 49, 72]",8481110147165494724,Na10Hf4In4Si7S5O48
Na10Ta2In6Si7S5O48,mp-2715895,2.8808999999999996,2.00327823,0.10986338344016744,"{11: 10, 73: 2, 49: 6, 14: 7, 16: 5, 8: 48}","[8, 11, 14, 16, 49, 73]",8481110147165496732,Na10Ta2In6Si7S5O48
Na10La4Si7Sn4S5O48,mp-2715926,0.9202000000000001,2.15763989,0.17479223822649548,"{11: 10, 57: 4, 14: 7, 50: 4, 16: 5, 8: 48}","[8, 11, 14, 16, 50, 57]",8481110147165504574,Na10La4Si7Sn4S5O48
Na10La4Hf4Si7S5O48,mp-2715933,3.4309999999999996,2.00583732,0.1377266152457226,"{11: 10, 57: 4, 72: 4, 14: 7, 16: 5, 8: 48}","[8, 11, 14, 16, 57, 72]",8481110147165574724,Na10La4Hf4Si7S5O48
Na10La6Ta2Si7S5O48,mp-2716104,2.9281,1.83269426,0.12519683055555575,"{11: 10, 57: 6, 73: 2, 14: 7, 16: 5, 8: 48}","[8, 11, 14, 16, 57, 73]",8481110147165576732,Na10La6Ta2Si7S5O48
Na10Sc4Nb4Si9(SO16)3,mp-2714169,2.08,1.63664787,0.0919405754914484,"{11: 10, 21: 4, 41: 4, 14: 9, 16: 3, 8: 48}","[8, 11, 14, 16, 21, 41]",8481110149163214414,Na10Sc4Nb4Si9S3O48
Na10Sc4Ta4Si9(SO16)3,mp-2714150,2.7961,1.72971321,0.09264302410256864,"{11: 10, 21: 4, 73: 4, 14: 9, 16: 3, 8: 48}","[8, 11, 14, 16, 21, 73]",8481110149163214734,Na10Sc4Ta4Si9S3O48
Na10Ti4Si9Ge4(SO16)3,mp-2714221,2.5891999999999995,1.82142874,0.11926349991452856,"{11: 10, 22: 4, 14: 9, 32: 4, 16: 3, 8: 48}","[8, 11, 14, 16, 22, 32]",8481110149163224324,Na10Ti4Si9Ge4S3O48
Na10Zr4Ti4Si9(SO16)3,mp-2714129,2.5096,1.52412125,0.07843921658119424,"{11: 10, 40: 4, 22: 4, 14: 9, 16: 3, 8: 48}","[8, 11, 14, 16, 22, 40]",8481110149163224404,Na10Zr4Ti4Si9S3O48
Na10Ti4Si9Sn4(SO16)3,mp-2714232,2.6265000000000005,2.07777331,0.09072446542734802,"{11: 10, 22: 4, 14: 9, 50: 4, 16: 3, 8: 48}","[8, 11, 14, 16, 22, 50]",8481110149163224504,Na10Ti4Si9Sn4S3O48
Na10Hf4Ti4Si9(SO16)3,mp-2714065,2.6128,1.50151733,0.0694326499145328,"{11: 10, 72: 4, 22: 4, 14: 9, 16: 3, 8: 48}","[8, 11, 14, 16, 22, 72]",8481110149163224724,Na10Hf4Ti4Si9S3O48
Na10Ti8Si9(SO16)3,mp-2714288,2.5819,1.67313965,0.07714931051282115,"{11: 10, 22: 8, 14: 9, 16: 3, 8: 48}","[8, 11, 14, 16, 22]",8481110149163228,Na10Ti8Si9S3O48
Na10Nb4Ga4Si9(SO16)3,mp-2714125,2.1828000000000003,1.69632474,0.11232491591880933,"{11: 10, 41: 4, 31: 4, 14: 9, 16: 3, 8: 48}","[8, 11, 14, 16, 31, 41]",8481110149163314414,Na10Nb4Ga4Si9S3O48
Na10Ta4Ga4Si9(SO16)3,mp-2714103,2.9204,1.9140764,0.10872526985041553,"{11: 10, 73: 4, 31: 4, 14: 9, 16: 3, 8: 48}","[8, 11, 14, 16, 31, 73]",8481110149163314734,Na10Ta4Ga4Si9S3O48
Na10Zr4Si9Ge4(SO16)3,mp-2714211,2.7635,1.64294226,0.12190040211538555,"{11: 10, 40: 4, 14: 9, 32: 4, 16: 3, 8: 48}","[8, 11, 14, 16, 32, 40]",8481110149163324404,Na10Zr4Si9Ge4S3O48
Na10Si9Sn4Ge4(SO16)3,mp-2714032,2.5612,2.30077005,0.12942748991452735,"{11: 10, 14: 9, 50: 4, 32: 4, 16: 3, 8: 48}","[8, 11, 14, 16, 32, 50]",8481110149163324504,Na10Si9Sn4Ge4S3O48
Na10Hf4Si9Ge4(SO16)3,mp-2714183,2.718,1.67234995,0.1095940568376097,"{11: 10, 72: 4, 14: 9, 32: 4, 16: 3, 8: 48}","[8, 11, 14, 16, 32, 72]",8481110149163324724,Na10Hf4Si9Ge4S3O48
Na10Si9Ge8(SO16)3,mp-2714137,2.7055999999999996,2.02064423,0.14766296495726827,"{11: 10, 14: 9, 32: 8, 16: 3, 8: 48}","[8, 11, 14, 16, 32]",8481110149163328,Na10Si9Ge8S3O48
Na10Zr4Si9Sn4(SO16)3,mp-2714128,2.8482000000000003,1.75886595,0.09024246040597994,"{11: 10, 40: 4, 14: 9, 50: 4, 16: 3, 8: 48}","[8, 11, 14, 16, 40, 50]",8481110149163404504,Na10Zr4Si9Sn4S3O48
Na10Hf4Zr4Si9(SO16)3,mp-2714141,4.1165,1.21947371,0.06301929927350436,"{11: 10, 72: 4, 40: 4, 14: 9, 16: 3, 8: 48}","[8, 11, 14, 16, 40, 72]",8481110149163404724,Na10Hf4Zr4Si9S3O48
Na10Zr8Si9(SO16)3,mp-2714084,4.0710999999999995,0.99588529,0.06696969455127366,"{11: 10, 40: 8, 14: 9, 16: 3, 8: 48}","[8, 11, 14, 16, 40]",8481110149163408,Na10Zr8Si9S3O48
Na10Nb4In4Si9(SO16)3,mp-2714213,2.0713,1.87741163,0.11253463241453776,"{11: 10, 41: 4, 49: 4, 14: 9, 16: 3, 8: 48}","[8, 11, 14, 16, 41, 49]",8481110149163414494,Na10Nb4In4Si9S3O48
Na10La4Nb4Si9(SO16)3,mp-2714214,1.8745000000000003,1.73219769,0.15989489301282056,"{11: 10, 57: 4, 41: 4, 14: 9, 16: 3, 8: 48}","[8, 11, 14, 16, 41, 57]",8481110149163414574,Na10La4Nb4Si9S3O48
Na10Ta4In4Si9(SO16)3,mp-2714202,2.7733000000000003,1.98276427,0.11021436271367957,"{11: 10, 73: 4, 49: 4, 14: 9, 16: 3, 8: 48}","[8, 11, 14, 16, 49, 73]",8481110149163494734,Na10Ta4In4Si9S3O48
Na10Hf4Si9Sn4(SO16)3,mp-2714160,2.8779999999999997,1.83694031,0.08150630341880394,"{11: 10, 72: 4, 14: 9, 50: 4, 16: 3, 8: 48}","[8, 11, 14, 16, 50, 72]",8481110149163504724,Na10Hf4Si9Sn4S3O48
Na10Si9Sn8(SO16)3,mp-2714078,2.5997000000000003,2.38231232,0.09966470376068592,"{11: 10, 14: 9, 50: 8, 16: 3, 8: 48}","[8, 11, 14, 16, 50]",8481110149163508,Na10Si9Sn8S3O48
Na10La4Ta4Si9(SO16)3,mp-2714105,2.5801999999999996,1.8864226,0.16564885591880518,"{11: 10, 57: 4, 73: 4, 14: 9, 16: 3, 8: 48}","[8, 11, 14, 16, 57, 73]",8481110149163574734,Na10La4Ta4Si9S3O48
Na10Hf8Si9(SO16)3,mp-2714028,4.3406,1.3097278,0.05570111688035162,"{11: 10, 72: 8, 14: 9, 16: 3, 8: 48}","[8, 11, 14, 16, 72]",8481110149163728,Na10Hf8Si9S3O48
Na11Zr8Si7P5O48,mp-1266342,0.0009999999999994458,5.02538409,0.014810029113885292,"{11: 11, 40: 8, 14: 7, 15: 5, 8: 48}","[8, 11, 14, 15, 40]",8481111147155408,Na11Zr8Si7P5O48
KNaCa3Mg10(SiO3)16,mp-1224270,3.3255999999999997,6.11370041,0.14233854161391246,"{19: 1, 11: 1, 20: 3, 12: 10, 14: 16, 8: 48}","[8, 11, 12, 14, 19, 20]",84811112101416191203,K1Na1Ca3Mg10Si16O48
Na13Zr7Si5P7O48,mp-1255039,0.0,4.72130324,0.02368910562498794,"{11: 13, 40: 7, 14: 5, 15: 7, 8: 48}","[8, 11, 14, 15, 40]",8481113145157407,Na13Zr7Si5P7O48
Na13Zr8Si9(PO16)3,mp-695515,0.7860999999999998,2.40672078,0.008175949104958669,"{11: 13, 40: 8, 14: 9, 15: 3, 8: 48}","[8, 11, 14, 15, 40]",8481113149153408,Na13Zr8Si9P3O48
Na14Mg2Ti6Si9(SO16)3,mp-2714646,1.7553,2.25503474,0.07398960672764066,"{11: 14, 12: 2, 22: 6, 14: 9, 16: 3, 8: 48}","[8, 11, 12, 14, 16, 22]",8481114122149163226,Na14Mg2Ti6Si9S3O48
Na14Mg2Si9Ge6(SO16)3,mp-2714621,1.959,2.59248238,0.12399385632113624,"{11: 14, 12: 2, 14: 9, 32: 6, 16: 3, 8: 48}","[8, 11, 12, 14, 16, 32]",8481114122149163326,Na14Mg2Si9Ge6S3O48
Na14Mg2Zr6Si9(SO16)3,mp-2714734,3.1883,2.01941708,0.07105042443089271,"{11: 14, 12: 2, 40: 6, 14: 9, 16: 3, 8: 48}","[8, 11, 12, 14, 16, 40]",8481114122149163406,Na14Mg2Zr6Si9S3O48
Na14Mg2Si9Sn6(SO16)3,mp-2714787,1.9466999999999994,3.11704175,0.08941090605691393,"{11: 14, 12: 2, 14: 9, 50: 6, 16: 3, 8: 48}","[8, 11, 12, 14, 16, 50]",8481114122149163506,Na14Mg2Si9Sn6S3O48
Na14Hf6Mg2Si9(SO16)3,mp-2715169,3.5616000000000003,2.08225441,0.06374088410568834,"{11: 14, 72: 6, 12: 2, 14: 9, 16: 3, 8: 48}","[8, 11, 12, 14, 16, 72]",8481114122149163726,Na14Hf6Mg2Si9S3O48
Na14Ca4Mg4Si3(S3O16)3,mp-2714555,2.8545999999999996,2.53020635,0.08572437676830091,"{11: 14, 20: 4, 12: 4, 14: 3, 16: 9, 8: 48}","[8, 11, 12, 14, 16, 20]",8481114124143169204,Na14Ca4Mg4Si3S9O48
Na14Mg4Zn4Si3(S3O16)3,mp-2714554,2.8728000000000002,2.53743413,0.10517443817074756,"{11: 14, 12: 4, 30: 4, 14: 3, 16: 9, 8: 48}","[8, 11, 12, 14, 16, 30]",8481114124143169304,Na14Mg4Zn4Si3S9O48
Na14Mg4Sc4Si5S7O48,mp-2715942,3.0786999999999995,2.23613112,0.0899929526752885,"{11: 14, 12: 4, 21: 4, 14: 5, 16: 7, 8: 48}","[8, 11, 12, 14, 16, 21]",8481114124145167214,Na14Mg4Sc4Si5S7O48
Na14Mg4Ga4Si5S7O48,mp-2716068,2.6872,2.45464326,0.11747225264227623,"{11: 14, 12: 4, 31: 4, 14: 5, 16: 7, 8: 48}","[8, 11, 12, 14, 16, 31]",8481114124145167314,Na14Mg4Ga4Si5S7O48
Na14Mg4In4Si5S7O48,mp-2715918,2.4886999999999997,2.77014111,0.10716475054878138,"{11: 14, 12: 4, 49: 4, 14: 5, 16: 7, 8: 48}","[8, 11, 12, 14, 16, 49]",8481114124145167494,Na14Mg4In4Si5S7O48
Na14La4Mg4Si5S7O48,mp-2713040,3.3202999999999996,2.4072562,0.11813681099592799,"{11: 14, 57: 4, 12: 4, 14: 5, 16: 7, 8: 48}","[8, 11, 12, 14, 16, 57]",8481114124145167574,Na14La4Mg4Si5S7O48
Na14Mg4Ti4Si7S5O48,mp-2715560,1.5184000000000002,2.63658085,0.08304793800812504,"{11: 14, 12: 4, 22: 4, 14: 7, 16: 5, 8: 48}","[8, 11, 12, 14, 16, 22]",8481114124147165224,Na14Mg4Ti4Si7S5O48
Na14Mg4Si7Ge4S5O48,mp-2715655,0.8565,2.86587039,0.12718082174796574,"{11: 14, 12: 4, 14: 7, 32: 4, 16: 5, 8: 48}","[8, 11, 12, 14, 16, 32]",8481114124147165324,Na14Mg4Si7Ge4S5O48
Na14Mg4Zr4Si7S5O48,mp-2715575,2.7550000000000003,2.35087183,0.0870931623780491,"{11: 14, 12: 4, 40: 4, 14: 7, 16: 5, 8: 48}","[8, 11, 12, 14, 16, 40]",8481114124147165404,Na14Mg4Zr4Si7S5O48
Na14Mg4Si7Sn4S5O48,mp-2715757,1.661,3.04417857,0.10784336495935243,"{11: 14, 12: 4, 14: 7, 50: 4, 16: 5, 8: 48}","[8, 11, 12, 14, 16, 50]",8481114124147165504,Na14Mg4Si7Sn4S5O48
Na14Hf4Mg4Si7S5O48,mp-2715781,3.3636999999999997,2.55935078,0.08164470203251817,"{11: 14, 72: 4, 12: 4, 14: 7, 16: 5, 8: 48}","[8, 11, 12, 14, 16, 72]",8481114124147165724,Na14Hf4Mg4Si7S5O48
Na14Mg4Nb4Si9(SO16)3,mp-2714807,1.3137999999999996,2.50066607,0.09458072008129736,"{11: 14, 12: 4, 41: 4, 14: 9, 16: 3, 8: 48}","[8, 11, 12, 14, 16, 41]",8481114124149163414,Na14Mg4Nb4Si9S3O48
Na14Mg4Ta4Si9(SO16)3,mp-2715179,2.0052000000000003,2.66674707,0.0909611317886192,"{11: 14, 12: 4, 73: 4, 14: 9, 16: 3, 8: 48}","[8, 11, 12, 14, 16, 73]",8481114124149163734,Na14Mg4Ta4Si9S3O48
Na14Mg5Ti3Si6(SO8)6,mp-2714178,1.5106000000000002,2.49436419,0.10910951529471902,"{11: 14, 12: 5, 22: 3, 14: 6, 16: 6, 8: 48}","[8, 11, 12, 14, 16, 22]",8481114125146166223,Na14Mg5Ti3Si6S6O48
Na14Mg5Si6Ge3(SO8)6,mp-2714156,1.5588000000000002,2.47171294,0.13920017793699113,"{11: 14, 12: 5, 14: 6, 32: 3, 16: 6, 8: 48}","[8, 11, 12, 14, 16, 32]",8481114125146166323,Na14Mg5Si6Ge3S6O48
Na14Mg5Zr3Si6(SO8)6,mp-2714159,2.9582999999999995,2.30033375,0.10777516773373552,"{11: 14, 12: 5, 40: 3, 14: 6, 16: 6, 8: 48}","[8, 11, 12, 14, 16, 40]",8481114125146166403,Na14Mg5Zr3Si6S6O48
Na14Mg5Si6Sn3(SO8)6,mp-2714317,1.6016999999999997,2.86155183,0.12172341798780106,"{11: 14, 12: 5, 14: 6, 50: 3, 16: 6, 8: 48}","[8, 11, 12, 14, 16, 50]",8481114125146166503,Na14Mg5Si6Sn3S6O48
Na14Hf3Mg5Si6(SO8)6,mp-2714111,3.3242000000000003,2.4402202,0.10919781315040478,"{11: 14, 72: 3, 12: 5, 14: 6, 16: 6, 8: 48}","[8, 11, 12, 14, 16, 72]",8481114125146166723,Na14Hf3Mg5Si6S6O48
Na14Mg6Ti2Si5S7O48,mp-2716101,0.7560000000000002,3.00634167,0.10898282254065084,"{11: 14, 12: 6, 22: 2, 14: 5, 16: 7, 8: 48}","[8, 11, 12, 14, 16, 22]",8481114126145167222,Na14Mg6Ti2Si5S7O48
Na14Mg6Si5Ge2S7O48,mp-2716074,0.5142000000000002,2.63259928,0.13744128121952048,"{11: 14, 12: 6, 14: 5, 32: 2, 16: 7, 8: 48}","[8, 11, 12, 14, 16, 32]",8481114126145167322,Na14Mg6Si5Ge2S7O48
Na14Mg6Zr2Si5S7O48,mp-2715985,2.3183000000000002,2.7741119,0.11016552296747761,"{11: 14, 12: 6, 40: 2, 14: 5, 16: 7, 8: 48}","[8, 11, 12, 14, 16, 40]",8481114126145167402,Na14Mg6Zr2Si5S7O48
Na14Mg6Si5Sn2S7O48,mp-2713068,0.6141999999999999,3.15476483,0.1285716417886178,"{11: 14, 12: 6, 14: 5, 50: 2, 16: 7, 8: 48}","[8, 11, 12, 14, 16, 50]",8481114126145167502,Na14Mg6Si5Sn2S7O48
Na14Hf2Mg6Si5S7O48,mp-2716076,3.0252,2.845048,0.10966616365853632,"{11: 14, 72: 2, 12: 6, 14: 5, 16: 7, 8: 48}","[8, 11, 12, 14, 16, 72]",8481114126145167722,Na14Hf2Mg6Si5S7O48
Na14Mg8Si3(S3O16)3,mp-2714523,2.7222,3.25930927,0.08530255833333555,"{11: 14, 12: 8, 14: 3, 16: 9, 8: 48}","[8, 11, 12, 14, 16]",8481114128143169,Na14Mg8Si3S9O48
Na14Sc4Nb4Si11SO48,mp-2714378,2.5192,1.81247514,0.04959221421748072,"{11: 14, 21: 4, 41: 4, 14: 11, 16: 1, 8: 48}","[8, 11, 14, 16, 21, 41]",84811141411161214414,Na14Sc4Nb4Si11S1O48
Na14Sc4Ta4Si11SO48,mp-2714578,3.4592,1.85109351,0.038588107672762106,"{11: 14, 21: 4, 73: 4, 14: 11, 16: 1, 8: 48}","[8, 11, 14, 16, 21, 73]",84811141411161214734,Na14Sc4Ta4Si11S1O48
Na14Ti4Si11Ge4SO48,mp-2714388,2.6503,2.25120757,0.06435698987804628,"{11: 14, 22: 4, 14: 11, 32: 4, 16: 1, 8: 48}","[8, 11, 14, 16, 22, 32]",84811141411161224324,Na14Ti4Si11Ge4S1O48
Na14Zr4Ti4Si11SO48,mp-2714431,2.7681999999999998,1.81504748,0.04273363324186974,"{11: 14, 40: 4, 22: 4, 14: 11, 16: 1, 8: 48}","[8, 11, 14, 16, 22, 40]",84811141411161224404,Na14Zr4Ti4Si11S1O48
Na14Ti4Si11Sn4SO48,mp-2714336,2.7401000000000004,2.25648508,0.0385530054471559,"{11: 14, 22: 4, 14: 11, 50: 4, 16: 1, 8: 48}","[8, 11, 14, 16, 22, 50]",84811141411161224504,Na14Ti4Si11Sn4S1O48
Na14Hf4Ti4Si11SO48,mp-2714456,2.7685999999999997,1.83198092,0.027514824105688618,"{11: 14, 72: 4, 22: 4, 14: 11, 16: 1, 8: 48}","[8, 11, 14, 16, 22, 72]",84811141411161224724,Na14Hf4Ti4Si11S1O48
Na14Ti8Si11SO48,mp-2714563,2.5642,2.04212822,0.03778631658537979,"{11: 14, 22: 8, 14: 11, 16: 1, 8: 48}","[8, 11, 14, 16, 22]",84811141411161228,Na14Ti8Si11S1O48
Na14Nb4Ga4Si11SO48,mp-2714418,2.5586,1.80022956,0.06875084508130591,"{11: 14, 41: 4, 31: 4, 14: 11, 16: 1, 8: 48}","[8, 11, 14, 16, 31, 41]",84811141411161314414,Na14Nb4Ga4Si11S1O48
Na14Ta4Ga4Si11SO48,mp-2714440,3.3592999999999997,1.84669429,0.06264499784553568,"{11: 14, 73: 4, 31: 4, 14: 11, 16: 1, 8: 48}","[8, 11, 14, 16, 31, 73]",84811141411161314734,Na14Ta4Ga4Si11S1O48
Na14Zr4Si11Ge4SO48,mp-2714496,3.4009,2.03118216,0.06807954015751783,"{11: 14, 40: 4, 14: 11, 32: 4, 16: 1, 8: 48}","[8, 11, 14, 16, 32, 40]",84811141411161324404,Na14Zr4Si11Ge4S1O48
Na14Si11Sn4Ge4SO48,mp-2714448,2.7407000000000004,2.54285355,0.06861399137702584,"{11: 14, 14: 11, 50: 4, 32: 4, 16: 1, 8: 48}","[8, 11, 14, 16, 32, 50]",84811141411161324504,Na14Si11Sn4Ge4S1O48
Na14Hf4Si11Ge4SO48,mp-2714598,3.1936999999999998,1.96699586,0.06080210430894617,"{11: 14, 72: 4, 14: 11, 32: 4, 16: 1, 8: 48}","[8, 11, 14, 16, 32, 72]",84811141411161324724,Na14Hf4Si11Ge4S1O48
Na14Si11Ge8SO48,mp-2714501,2.9644000000000004,2.42539757,0.08595515426321576,"{11: 14, 14: 11, 32: 8, 16: 1, 8: 48}","[8, 11, 14, 16, 32]",84811141411161328,Na14Si11Ge8S1O48
Na14Zr4Si11Sn4SO48,mp-2714326,3.471,2.10480755,0.03906754315041816,"{11: 14, 40: 4, 14: 11, 50: 4, 16: 1, 8: 48}","[8, 11, 14, 16, 40, 50]",84811141411161404504,Na14Zr4Si11Sn4S1O48
Na14Hf4Zr4Si11SO48,mp-2714342,4.1671,1.40789613,0.023619889247971315,"{11: 14, 72: 4, 40: 4, 14: 11, 16: 1, 8: 48}","[8, 11, 14, 16, 40, 72]",84811141411161404724,Na14Hf4Zr4Si11S1O48
Na14Zr8Si11SO48,mp-2714386,4.1091,1.47459682,0.02799368058941898,"{11: 14, 40: 8, 14: 11, 16: 1, 8: 48}","[8, 11, 14, 16, 40]",84811141411161408,Na14Zr8Si11S1O48
Na14Nb4In4Si11SO48,mp-2714589,2.6159,2.00242766,0.04942038691565198,"{11: 14, 41: 4, 49: 4, 14: 11, 16: 1, 8: 48}","[8, 11, 14, 16, 41, 49]",84811141411161414494,Na14Nb4In4Si11S1O48
Na14La4Nb4Si11SO48,mp-2714526,2.5162000000000004,2.0007229,0.07273290472560934,"{11: 14, 57: 4, 41: 4, 14: 11, 16: 1, 8: 48}","[8, 11, 14, 16, 41, 57]",84811141411161414574,Na14La4Nb4Si11S1O48
Na14Ta4In4Si11SO48,mp-2714364,3.3842999999999996,2.0453127,0.042904398785558406,"{11: 14, 73: 4, 49: 4, 14: 11, 16: 1, 8: 48}","[8, 11, 14, 16, 49, 73]",84811141411161494734,Na14Ta4In4Si11S1O48
Na14Hf4Si11Sn4SO48,mp-2714572,3.1734,2.16630102,0.03139153987805088,"{11: 14, 72: 4, 14: 11, 50: 4, 16: 1, 8: 48}","[8, 11, 14, 16, 50, 72]",84811141411161504724,Na14Hf4Si11Sn4S1O48
Na14Si11Sn8SO48,mp-2714337,2.8924000000000003,2.69355776,0.04023064896341655,"{11: 14, 14: 11, 50: 8, 16: 1, 8: 48}","[8, 11, 14, 16, 50]",84811141411161508,Na14Si11Sn8S1O48
Na14La4Ta4Si11SO48,mp-2714405,3.3588,2.05920682,0.06537307858739894,"{11: 14, 57: 4, 73: 4, 14: 11, 16: 1, 8: 48}","[8, 11, 14, 16, 57, 73]",84811141411161574734,Na14La4Ta4Si11S1O48
Na14Hf8Si11SO48,mp-2714502,4.141900000000001,1.54105867,0.016636163902441936,"{11: 14, 72: 8, 14: 11, 16: 1, 8: 48}","[8, 11, 14, 16, 72]",84811141411161728,Na14Hf8Si11S1O48
Na14Sc3Nb5(SiO4)12,mp-2712987,2.5404999999999998,1.74037144,0.04126792618902719,"{11: 14, 21: 3, 41: 5, 14: 12, 8: 48}","[8, 11, 14, 21, 41]",84811141412213415,Na14Sc3Nb5Si12O48
Na14Sc3Ta5(SiO4)12,mp-2713056,3.3614000000000006,1.96928973,0.03092766408535841,"{11: 14, 21: 3, 73: 5, 14: 12, 8: 48}","[8, 11, 14, 21, 73]",84811141412213735,Na14Sc3Ta5Si12O48
Na14Nb5Ga3(SiO4)12,mp-2712861,2.5109999999999997,1.87430424,0.051230241189026415,"{11: 14, 41: 5, 31: 3, 14: 12, 8: 48}","[8, 11, 14, 31, 41]",84811141412313415,Na14Nb5Ga3Si12O48
Na14Ta5Ga3(SiO4)12,mp-2712822,3.3241000000000005,2.02803704,0.038990851768290646,"{11: 14, 73: 5, 31: 3, 14: 12, 8: 48}","[8, 11, 14, 31, 73]",84811141412313735,Na14Ta5Ga3Si12O48
Na14Nb5In3(SiO4)12,mp-2713071,2.4529000000000005,2.03431212,0.0412443449288622,"{11: 14, 41: 5, 49: 3, 14: 12, 8: 48}","[8, 11, 14, 41, 49]",84811141412415493,Na14Nb5In3Si12O48