formula,material_id,band_gap,efermi,energy_above_hull,comp_atoms,sorted_keys_comp_atoms,comp_number,new_formula
In5(SiN3)3,mp-1245359,0.013900000000000468,6.96793941,0.37147661676470634,"{49: 5, 14: 3, 7: 9}","[7, 14, 49]",79143495,In5Si3N9
Si3Sb5N9,mp-1245610,1.5473999999999997,7.91164856,0.3699224547058826,"{14: 3, 51: 5, 7: 9}","[7, 14, 51]",79143515,Si3Sb5N9
La5(SiN3)3,mp-569576,1.9651999999999994,8.11385044,0.0,"{57: 5, 14: 3, 7: 9}","[7, 14, 57]",79143575,La5Si3N9
Ce5(SiN3)3,mp-571312,0.0038000000000000256,9.264186,0.0604314563235242,"{58: 5, 14: 3, 7: 9}","[7, 14, 58]",79143585,Ce5Si3N9
Pr5(SiN3)3,mp-1200944,1.8698999999999995,5.13481658,0.008005856176469095,"{59: 5, 14: 3, 7: 9}","[7, 14, 59]",79143595,Pr5Si3N9
Si3Bi5N9,mp-1246267,1.234,7.46473541,0.40240941941176533,"{14: 3, 83: 5, 7: 9}","[7, 14, 83]",79143835,Si3Bi5N9
VSi3Bi61O100,mp-1217882,1.9980000000000002,5.00831979,0.013113842454528957,"{23: 1, 14: 3, 83: 61, 8: 100}","[8, 14, 23, 83]",81001432318361,V1Si3Bi61O100
KNaMn(Si2O5)2,mp-554248,3.0188000000000006,2.03917675,0.0,"{19: 1, 11: 1, 25: 1, 14: 4, 8: 10}","[8, 11, 14, 19, 25]",810111144191251,K1Na1Mn1Si4O10
Na2Ca3Si3O10,mp-556679,4.375500000000001,1.55278284,0.0,"{11: 2, 20: 3, 14: 3, 8: 10}","[8, 11, 14, 20]",810112143203,Na2Ca3Si3O10
Na2ZrSi3O10,mp-1180329,0.3347,-0.16812915,0.1403698601562482,"{11: 2, 40: 1, 14: 3, 8: 10}","[8, 11, 14, 40]",810112143401,Na2Zr1Si3O10
Na2Cd3Si3O10,mp-6078,2.4532999999999996,1.27147053,0.0,"{11: 2, 48: 3, 14: 3, 8: 10}","[8, 11, 14, 48]",810112143483,Na2Cd3Si3O10
Na2Co(Si2O5)2,mp-18096,3.0632000000000006,2.25739505,0.0005951101960777194,"{11: 2, 27: 1, 14: 4, 8: 10}","[8, 11, 14, 27]",810112144271,Na2Co1Si4O10
Na4MgTi2(SiO5)2,mp-2230825,0.0,5.59737147,0.21338258724171855,"{11: 4, 12: 1, 22: 2, 14: 2, 8: 10}","[8, 11, 12, 14, 22]",810114121142222,Na4Mg1Ti2Si2O10
Na4Cd2Si3O10,mp-556413,2.7504999999999997,1.07983312,0.0,"{11: 4, 48: 2, 14: 3, 8: 10}","[8, 11, 14, 48]",810114143482,Na4Cd2Si3O10
MgNb3SiO10,mp-2241183,0.0,4.06028617,0.11845269127779368,"{12: 1, 41: 3, 14: 1, 8: 10}","[8, 12, 14, 41]",810121141413,Mg1Nb3Si1O10
MgTi2Zn2(SiO5)2,mp-2228927,0.0,5.24076112,0.2127618662745112,"{12: 1, 22: 2, 30: 2, 14: 2, 8: 10}","[8, 12, 14, 22, 30]",810121142222302,Mg1Ti2Zn2Si2O10
MgTi2Si2(Ag2O5)2,mp-2232007,1.0054000000000003,2.78956028,0.2582463965350854,"{12: 1, 22: 2, 14: 2, 47: 4, 8: 10}","[8, 12, 14, 22, 47]",810121142222474,Mg1Ti2Si2Ag4O10
MgV2Zn2(SiO5)2,mp-2215892,1.8008000000000002,3.04592736,0.08532079754902622,"{12: 1, 23: 2, 30: 2, 14: 2, 8: 10}","[8, 12, 14, 23, 30]",810121142232302,Mg1V2Zn2Si2O10
MgZn2Co2(SiO5)2,mp-2229044,0.6298999999999999,1.88074967,0.16556361067079273,"{12: 1, 30: 2, 27: 2, 14: 2, 8: 10}","[8, 12, 14, 27, 30]",810121142272302,Mg1Zn2Co2Si2O10
MgTi(Si2O5)2,mp-1043372,0.0,6.04209003,0.1646001247247053,"{12: 1, 22: 1, 14: 4, 8: 10}","[8, 12, 14, 22]",810121144221,Mg1Ti1Si4O10
MgV(Si2O5)2,mp-1043519,1.8761999999999999,4.25784809,0.10079913726562495,"{12: 1, 23: 1, 14: 4, 8: 10}","[8, 12, 14, 23]",810121144231,Mg1V1Si4O10
MgCr(Si2O5)2,mp-1043526,3.5557000000000003,2.71447099,0.0505417719444452,"{12: 1, 24: 1, 14: 4, 8: 10}","[8, 12, 14, 24]",810121144241,Mg1Cr1Si4O10
MgMn(Si2O5)2,mp-1043525,3.0860000000000003,2.86217931,0.06803368843749169,"{12: 1, 25: 1, 14: 4, 8: 10}","[8, 12, 14, 25]",810121144251,Mg1Mn1Si4O10
MgCo(Si2O5)2,mp-1043503,2.6466999999999996,2.51477862,0.0872368905208285,"{12: 1, 27: 1, 14: 4, 8: 10}","[8, 12, 14, 27]",810121144271,Mg1Co1Si4O10
MgSi4SnO10,mp-1043375,2.4398999999999997,2.64653707,0.09045583520832423,"{12: 1, 14: 4, 50: 1, 8: 10}","[8, 12, 14, 50]",810121144501,Mg1Si4Sn1O10
MgSi4WO10,mp-1043550,2.2169999999999996,3.63246069,0.17991923333333304,"{12: 1, 14: 4, 74: 1, 8: 10}","[8, 12, 14, 74]",810121144741,Mg1Si4W1O10
Mg(SiO2)5,mp-1233794,2.3137999999999996,1.66789075,0.2128034101041676,"{12: 1, 14: 5, 8: 10}","[8, 12, 14]",810121145,Mg1Si5O10
CaMg3Si3O10,mp-541026,3.4088000000000003,4.31650739,0.05867563338235193,"{20: 1, 12: 3, 14: 3, 8: 10}","[8, 12, 14, 20]",810123143201,Ca1Mg3Si3O10
Ca2Ti2SiGeO10,mp-1227370,2.7614,2.42309307,0.0026989703125011033,"{20: 2, 22: 2, 14: 1, 32: 1, 8: 10}","[8, 14, 20, 22, 32]",810141202222321,Ca2Ti2Si1Ge1O10
Zn4SiTePbO10,mp-558938,2.1602000000000006,2.58547689,0.0,"{30: 4, 14: 1, 52: 1, 82: 1, 8: 10}","[8, 14, 30, 52, 82]",810141304521821,Zn4Si1Te1Pb1O10
Nb3SiO10,mp-1040512,0.0,1.91350134,0.16292480033588497,"{41: 3, 14: 1, 8: 10}","[8, 14, 41]",810141413,Nb3Si1O10
U2SiO10,mp-1192867,0.0,-0.13575631,0.3614614155128191,"{92: 2, 14: 1, 8: 10}","[8, 14, 92]",810141922,U2Si1O10
Pu2SiO10,mp-725556,0.7104,-0.22867414,0.30045450282050723,"{94: 2, 14: 1, 8: 10}","[8, 14, 94]",810141942,Pu2Si1O10
CaV2Zn2(SiO5)2,mp-1234637,1.9263,2.77564842,0.12814749377451395,"{20: 1, 23: 2, 30: 2, 14: 2, 8: 10}","[8, 14, 20, 23, 30]",810142201232302,Ca1V2Zn2Si2O10
Ca2ZrTi(SiO5)2,mp-1227799,3.1228000000000002,2.09495798,0.014805134322916302,"{20: 2, 40: 1, 22: 1, 14: 2, 8: 10}","[8, 14, 20, 22, 40]",810142202221401,Ca2Zr1Ti1Si2O10
Ca2TiSi2SnO10,mp-1227786,3.0821,5.98357672,0.006402215260412625,"{20: 2, 22: 1, 14: 2, 50: 1, 8: 10}","[8, 14, 20, 22, 50]",810142202221501,Ca2Ti1Si2Sn1O10
Ca3(SiO5)2,mp-1194249,0.0,1.00303866,0.4217708993055531,"{20: 3, 14: 2, 8: 10}","[8, 14, 20]",810142203,Ca3Si2O10
Ca5(SiO5)2,mp-1197843,0.5149,0.97500833,0.07061256441176589,"{20: 5, 14: 2, 8: 10}","[8, 14, 20]",810142205,Ca5Si2O10
SrMn2(SiO5)2,mp-1218300,0.0,1.71986394,0.2184960331666641,"{38: 1, 25: 2, 14: 2, 8: 10}","[8, 14, 25, 38]",810142252381,Sr1Mn2Si2O10
Mn5(SiO5)2,mp-1198989,0.9584000000000001,3.61912636,0.0354463817973798,"{25: 5, 14: 2, 8: 10}","[8, 14, 25]",810142255,Mn5Si2O10
Cd3Si2Pb3O10,mp-1226884,1.3925,3.76279685,0.08810884320891432,"{48: 3, 14: 2, 82: 3, 8: 10}","[8, 14, 48, 82]",810142483823,Cd3Si2Pb3O10
Cd5(SiO5)2,mp-1182036,0.0,0.96977794,0.07774265566176553,"{48: 5, 14: 2, 8: 10}","[8, 14, 48]",810142485,Cd5Si2O10
K2Ca3Si3O10,mp-1019747,4.1123,2.08088321,0.004949002841432737,"{19: 2, 20: 3, 14: 3, 8: 10}","[8, 14, 19, 20]",810143192203,K2Ca3Si3O10
K2TiSi3O10,mp-1197256,0.7994000000000001,0.42914556,0.15000628906250046,"{19: 2, 22: 1, 14: 3, 8: 10}","[8, 14, 19, 22]",810143192221,K2Ti1Si3O10
K2ZrSi3O10,mp-729333,0.7432,0.63142454,0.12917215359374268,"{19: 2, 40: 1, 14: 3, 8: 10}","[8, 14, 19, 40]",810143192401,K2Zr1Si3O10
K2Si3SnO10,mp-1195099,0.9085,0.87499194,0.13853701937500063,"{19: 2, 14: 3, 50: 1, 8: 10}","[8, 14, 19, 50]",810143192501,K2Si3Sn1O10
K2Si3PbO10,mp-728972,0.8807,1.39437415,0.08907802515625107,"{19: 2, 14: 3, 82: 1, 8: 10}","[8, 14, 19, 82]",810143192821,K2Si3Pb1O10
K3HoSi3O10,mp-726420,0.0,0.29012407,0.09003435650980052,"{19: 3, 67: 1, 14: 3, 8: 10}","[8, 14, 19, 67]",810143193671,K3Ho1Si3O10
Rb2TiSi3O10,mp-1209611,0.8978999999999999,1.37319638,0.11588015343750158,"{37: 2, 22: 1, 14: 3, 8: 10}","[8, 14, 22, 37]",810143221372,Rb2Ti1Si3O10
V3Si3O10,mp-1101243,0.4574999999999996,4.17027375,0.10211362682291814,"{23: 3, 14: 3, 8: 10}","[8, 14, 23]",810143233,V3Si3O10
Mn3Si3O10,mp-861258,1.2803999999999998,2.2704573,0.07454719993057246,"{25: 3, 14: 3, 8: 10}","[8, 14, 25]",810143253,Mn3Si3O10
Eu2CoSi3O10,mp-1199416,0.04139999999999988,3.57677379,0.6495405204687508,"{63: 2, 27: 1, 14: 3, 8: 10}","[8, 14, 27, 63]",810143271632,Eu2Co1Si3O10
Rb2ZrSi3O10,mp-1199444,0.8808,0.84060233,0.06071298871094477,"{37: 2, 40: 1, 14: 3, 8: 10}","[8, 14, 37, 40]",810143372401,Rb2Zr1Si3O10
K2Zn(Si2O5)2,mp-555568,4.2665,0.36574452,0.0,"{19: 2, 30: 1, 14: 4, 8: 10}","[8, 14, 19, 30]",810144192301,K2Zn1Si4O10
CaTi(Si2O5)2,mp-1043438,0.0,5.90125343,0.12157819633929101,"{20: 1, 22: 1, 14: 4, 8: 10}","[8, 14, 20, 22]",810144201221,Ca1Ti1Si4O10
CaV(Si2O5)2,mp-1043605,1.9167000000000005,4.05198048,0.06257623267361012,"{20: 1, 23: 1, 14: 4, 8: 10}","[8, 14, 20, 23]",810144201231,Ca1V1Si4O10
CaCr(Si2O5)2,mp-19441,3.3907000000000003,2.64488372,0.007945634114578937,"{20: 1, 24: 1, 14: 4, 8: 10}","[8, 14, 20, 24]",810144201241,Ca1Cr1Si4O10
CaMn(Si2O5)2,mp-1043634,2.7891999999999997,2.74917501,0.03385851098958703,"{20: 1, 25: 1, 14: 4, 8: 10}","[8, 14, 20, 25]",810144201251,Ca1Mn1Si4O10
CaCo(Si2O5)2,mp-1043607,2.6854,2.23334786,0.035609743541664685,"{20: 1, 27: 1, 14: 4, 8: 10}","[8, 14, 20, 27]",810144201271,Ca1Co1Si4O10
CaSi4SnO10,mp-1043411,3.2741999999999996,2.75714931,0.050346731041667425,"{20: 1, 14: 4, 50: 1, 8: 10}","[8, 14, 20, 50]",810144201501,Ca1Si4Sn1O10
CaSi4WO10,mp-1043702,2.1854000000000005,3.34311835,0.148311296979168,"{20: 1, 14: 4, 74: 1, 8: 10}","[8, 14, 20, 74]",810144201741,Ca1Si4W1O10
Ti(Si2O5)2,mp-1043406,2.2489,0.63854298,0.17893299183333156,"{22: 1, 14: 4, 8: 10}","[8, 14, 22]",810144221,Ti1Si4O10
TiZn(Si2O5)2,mp-1043408,0.0,4.20807962,0.24839926057290818,"{22: 1, 30: 1, 14: 4, 8: 10}","[8, 14, 22, 30]",810144221301,Ti1Zn1Si4O10
V(Si2O5)2,mp-1043652,2.3436000000000003,0.42999237,0.17039781461110515,"{23: 1, 14: 4, 8: 10}","[8, 14, 23]",810144231,V1Si4O10
VZn(Si2O5)2,mp-1043518,1.6839999999999997,3.94454937,0.12716330546874666,"{23: 1, 30: 1, 14: 4, 8: 10}","[8, 14, 23, 30]",810144231301,V1Zn1Si4O10
Cr(Si2O5)2,mp-779017,1.8279999999999998,0.03904522,0.09721086211110297,"{24: 1, 14: 4, 8: 10}","[8, 14, 24]",810144241,Cr1Si4O10
ZnCr(Si2O5)2,mp-1043538,3.2561999999999998,2.40442282,0.07998026135416758,"{30: 1, 24: 1, 14: 4, 8: 10}","[8, 14, 24, 30]",810144241301,Zn1Cr1Si4O10
SrCr(Si2O5)2,mp-19508,3.2707,2.36396612,0.0,"{38: 1, 24: 1, 14: 4, 8: 10}","[8, 14, 24, 38]",810144241381,Sr1Cr1Si4O10
Mn(Si2O5)2,mp-1043728,0.0,0.164866,0.18591676272222024,"{25: 1, 14: 4, 8: 10}","[8, 14, 25]",810144251,Mn1Si4O10
MnZn(Si2O5)2,mp-1043523,2.8729000000000005,2.42023057,0.07673435828125363,"{25: 1, 30: 1, 14: 4, 8: 10}","[8, 14, 25, 30]",810144251301,Mn1Zn1Si4O10
Co(Si2O5)2,mp-1043669,1.0566,0.37858425,0.14596541244444516,"{27: 1, 14: 4, 8: 10}","[8, 14, 27]",810144271,Co1Si4O10
ZnCo(Si2O5)2,mp-1043509,2.5827000000000004,2.123922,0.09326620442708222,"{30: 1, 27: 1, 14: 4, 8: 10}","[8, 14, 27, 30]",810144271301,Zn1Co1Si4O10
ZnSi4SnO10,mp-1043405,2.4243000000000006,2.52669405,0.09087930109374298,"{30: 1, 14: 4, 50: 1, 8: 10}","[8, 14, 30, 50]",810144301501,Zn1Si4Sn1O10
ZnSi4WO10,mp-1043629,2.0197,3.246114,0.189143097083333,"{30: 1, 14: 4, 74: 1, 8: 10}","[8, 14, 30, 74]",810144301741,Zn1Si4W1O10
Si4MoO10,mp-1043698,1.5668999999999997,1.29898138,0.20542557477777912,"{14: 4, 42: 1, 8: 10}","[8, 14, 42]",810144421,Si4Mo1O10
Si4SnO10,mp-1043403,2.8506,0.84754196,0.1894668349999975,"{14: 4, 50: 1, 8: 10}","[8, 14, 50]",810144501,Si4Sn1O10
Si4SbO10,mp-1043416,0.2319,1.32639169,0.17181306091666038,"{14: 4, 51: 1, 8: 10}","[8, 14, 51]",810144511,Si4Sb1O10
Si4WO10,mp-1043760,3.5973000000000006,0.43146757,0.2057853821111113,"{14: 4, 74: 1, 8: 10}","[8, 14, 74]",810144741,Si4W1O10
Si4BiO10,mp-1043424,0.0,0.46710776,0.14771809261111013,"{14: 4, 83: 1, 8: 10}","[8, 14, 83]",810144831,Si4Bi1O10
Ca(SiO2)5,mp-1233759,0.9177,3.16955186,0.3028782314583225,"{20: 1, 14: 5, 8: 10}","[8, 14, 20]",810145201,Ca1Si5O10
Si48O107,mp-1221354,0.030199999999999783,-2.44451934,0.18458914466935283,"{14: 48, 8: 107}","[8, 14]",81071448,Si48O107
NaCa2Si4O10F,mp-1210279,4.9558,6.20937074,0.005587684722220487,"{11: 1, 20: 2, 14: 4, 8: 10, 9: 1}","[8, 9, 11, 14, 20]",81091111144202,Na1Ca2Si4O10F1
Er3SiSe2O10F,mp-555942,4.0849,1.44529459,0.0,"{68: 3, 14: 1, 34: 2, 8: 10, 9: 1}","[8, 9, 14, 34, 68]",81091141342683,Er3Si1Se2O10F1
Dy3Si3O10F,mp-16164,5.277799999999999,2.06376873,0.0,"{66: 3, 14: 3, 8: 10, 9: 1}","[8, 9, 14, 66]",81091143663,Dy3Si3O10F1
Ho3Si3O10F,mp-16165,5.1282,2.04280743,0.0,"{67: 3, 14: 3, 8: 10, 9: 1}","[8, 9, 14, 67]",81091143673,Ho3Si3O10F1
Er3Si3O10F,mp-542038,5.2285,2.0964941,0.005913618186280445,"{68: 3, 14: 3, 8: 10, 9: 1}","[8, 9, 14, 68]",81091143683,Er3Si3O10F1
KSr2Si4O10F,mp-1211577,4.8589,5.42861652,0.0,"{19: 1, 38: 2, 14: 4, 8: 10, 9: 1}","[8, 9, 14, 19, 38]",81091144191382,K1Sr2Si4O10F1
KEu2Si4O10F,mp-561529,0.0,5.39194304,0.0,"{19: 1, 63: 2, 14: 4, 8: 10, 9: 1}","[8, 9, 14, 19, 63]",81091144191632,K1Eu2Si4O10F1
K2ScSi4O10F,mp-557777,4.7453,0.71303505,0.0,"{19: 2, 21: 1, 14: 4, 8: 10, 9: 1}","[8, 9, 14, 19, 21]",81091144192211,K2Sc1Si4O10F1
K2EuSi4O10F,mp-1198799,0.09809999999999997,0.7383694,0.0,"{19: 2, 63: 1, 14: 4, 8: 10, 9: 1}","[8, 9, 14, 19, 63]",81091144192631,K2Eu1Si4O10F1
Rb2ScSi4O10F,mp-1198458,5.0158000000000005,5.4683012,0.0,"{37: 2, 21: 1, 14: 4, 8: 10, 9: 1}","[8, 9, 14, 21, 37]",81091144211372,Rb2Sc1Si4O10F1
Rb2LuSi4O10F,mp-1196570,4.927899999999999,5.15637653,0.0,"{37: 2, 71: 1, 14: 4, 8: 10, 9: 1}","[8, 9, 14, 37, 71]",81091144372711,Rb2Lu1Si4O10F1
Cs2ErSi4O10F,mp-1196674,4.809,0.42642972,0.0,"{55: 2, 68: 1, 14: 4, 8: 10, 9: 1}","[8, 9, 14, 55, 68]",81091144552681,Cs2Er1Si4O10F1
KNaMg2Si4(O5F)2,mp-561491,5.2111,1.16025472,0.0,"{19: 1, 11: 1, 12: 2, 14: 4, 8: 10, 9: 2}","[8, 9, 11, 12, 14, 19]",81092111122144191,K1Na1Mg2Si4O10F2
Rb3Sc2Si4(O2F)5,mp-1196025,5.195399999999999,-0.21678969,0.0,"{37: 3, 21: 2, 14: 4, 8: 10, 9: 5}","[8, 9, 14, 21, 37]",81095144212373,Rb3Sc2Si4O10F5
Na2Ti2Si2O11,mp-1198063,1.1615000000000002,1.97462284,0.29202505808823176,"{11: 2, 22: 2, 14: 2, 8: 11}","[8, 11, 14, 22]",811112142222,Na2Ti2Si2O11
Na2ZrSi3O11,mp-1200500,0.1708,-0.17061939,0.2457718455882354,"{11: 2, 40: 1, 14: 3, 8: 11}","[8, 11, 14, 40]",811112143401,Na2Zr1Si3O11
Na2Si3SnO11,mp-1203979,0.14269999999999994,0.51543848,0.23110866230392002,"{11: 2, 14: 3, 50: 1, 8: 11}","[8, 11, 14, 50]",811112143501,Na2Si3Sn1O11
Na2TiSi4O11,mp-556283,2.7261999999999995,1.94958283,0.014424235277782138,"{11: 2, 22: 1, 14: 4, 8: 11}","[8, 11, 14, 22]",811112144221,Na2Ti1Si4O11
Na2ZrSi4O11,mp-6824,4.5794999999999995,1.20929443,0.0,"{11: 2, 40: 1, 14: 4, 8: 11}","[8, 11, 14, 40]",811112144401,Na2Zr1Si4O11
Mg2Si4O11,mp-1211034,0.0,-1.90239211,0.1543861604411756,"{12: 2, 14: 4, 8: 11}","[8, 12, 14]",811122144,Mg2Si4O11
SiMoP3O11,mp-581326,4.337300000000001,1.76829406,0.0,"{14: 1, 42: 1, 15: 3, 8: 11}","[8, 14, 15, 42]",811141153421,Si1Mo1P3O11
SiP3RuO11,mp-562501,0.005399999999999849,3.47657004,0.022092492968759814,"{14: 1, 15: 3, 44: 1, 8: 11}","[8, 14, 15, 44]",811141153441,Si1P3Ru1O11
Rb2Nb2Si2O11,mp-1202769,0.5739000000000001,0.48516438,0.3114040992156797,"{37: 2, 41: 2, 14: 2, 8: 11}","[8, 14, 37, 41]",811142372412,Rb2Nb2Si2O11
Rb2Ta2Si2O11,mp-1211926,0.5166999999999999,0.66102135,0.2568077311781032,"{37: 2, 73: 2, 14: 2, 8: 11}","[8, 14, 37, 73]",811142372732,Rb2Ta2Si2O11
KTiSi3O11,mp-1211776,0.5903,0.36776196,0.27414943342188014,"{19: 1, 22: 1, 14: 3, 8: 11}","[8, 14, 19, 22]",811143191221,K1Ti1Si3O11
K2ZrSi3O11,mp-1202728,0.4676,-0.22582545,0.25350980499999753,"{19: 2, 40: 1, 14: 3, 8: 11}","[8, 14, 19, 40]",811143192401,K2Zr1Si3O11
CaSi3SnO11,mp-1182049,1.0011,1.35150906,0.3285688975000003,"{20: 1, 14: 3, 50: 1, 8: 11}","[8, 14, 20, 50]",811143201501,Ca1Si3Sn1O11
Ca2Si3O11,mp-1204013,0.0,-0.04163801,0.3636412940885414,"{20: 2, 14: 3, 8: 11}","[8, 14, 20]",811143202,Ca2Si3O11
Ca2Si3Pb3O11,mp-1214269,3.2434,2.64062383,0.0,"{20: 2, 14: 3, 82: 3, 8: 11}","[8, 14, 20, 82]",811143202823,Ca2Si3Pb3O11
Ca4Si3O11,mp-1202749,0.6341999999999999,1.26687888,0.12099431918981907,"{20: 4, 14: 3, 8: 11}","[8, 14, 20]",811143204,Ca4Si3O11
K2Si4SbO11,mp-1196593,0.30909999999999993,2.30402077,0.08349492470678488,"{19: 2, 14: 4, 51: 1, 8: 11}","[8, 14, 19, 51]",811144192511,K2Si4Sb1O11
K2LuSi4O11,mp-734012,0.5249,0.53145538,0.014552946208335804,"{19: 2, 71: 1, 14: 4, 8: 11}","[8, 14, 19, 71]",811144192711,K2Lu1Si4O11
CaVSi4O11,mp-1196058,3.3626,0.72844857,0.051874556911755576,"{20: 1, 23: 1, 14: 4, 8: 11}","[8, 14, 20, 23]",811144201231,Ca1V1Si4O11
V2Si4O11,mp-867855,0.38039999999999985,4.0854963,0.09670725664213187,"{23: 2, 14: 4, 8: 11}","[8, 14, 23]",811144232,V2Si4O11
Mn2Si4O11,mp-768088,1.0968999999999998,1.99366599,0.094130909325985,"{25: 2, 14: 4, 8: 11}","[8, 14, 25]",811144252,Mn2Si4O11
Si4Pb2O11,mp-1219427,0.4272,2.04553854,0.13401251107842782,"{14: 4, 82: 2, 8: 11}","[8, 14, 82]",811144822,Si4Pb2O11
SiO,mp-32761,0.0,5.01235491,0.4032385374999983,"{14: 1, 8: 1}","[8, 14]",81141,Si1O1
SiCl2O,mp-23079,5.5626,-1.90004368,0.011288820833334157,"{14: 1, 17: 2, 8: 1}","[8, 14, 17]",81141172,Si1Cl2O1
U6Si11O,mp-1207862,0.0,10.62065034,0.2515046359094981,"{92: 6, 14: 11, 8: 1}","[8, 14, 92]",811411926,U6Si11O1
Ca3SiO,mp-1205330,0.05659999999999954,4.52800451,0.0,"{20: 3, 14: 1, 8: 1}","[8, 14, 20]",81141203,Ca3Si1O1
Sr3SiO,mp-30949,0.4234,3.46920082,0.0,"{38: 3, 14: 1, 8: 1}","[8, 14, 38]",81141383,Sr3Si1O1
ZrSiO,mp-7915,0.0,7.90941535,0.25924465958333265,"{40: 1, 14: 1, 8: 1}","[8, 14, 40]",81141401,Zr1Si1O1
Si2O,mp-1063118,0.0,7.40939407,0.7956400183333336,"{14: 2, 8: 1}","[8, 14]",81142,Si2O1
K6Si2S6O,mp-555596,3.1497,0.70722331,0.0,"{19: 6, 14: 2, 16: 6, 8: 1}","[8, 14, 16, 19]",81142166196,K6Si2S6O1
K2Si2Pb2O,mp-643141,0.0,4.6088494,0.6431523039285696,"{19: 2, 14: 2, 82: 2, 8: 1}","[8, 14, 19, 82]",81142192822,K2Si2Pb2O1
Si3O,mp-32881,0.18850000000000033,4.45225032,0.44278015687499916,"{14: 3, 8: 1}","[8, 14]",81143,Si3O1
NaMg3Si4O11F,mp-1173560,4.4609000000000005,2.43342468,0.0,"{11: 1, 12: 3, 14: 4, 8: 11, 9: 1}","[8, 9, 11, 12, 14]",81191111123144,Na1Mg3Si4O11F1
Er4Si3O11F2,mp-554009,5.0561,2.06139694,0.006664683687494843,"{68: 4, 14: 3, 8: 11, 9: 2}","[8, 9, 14, 68]",81192143684,Er4Si3O11F2
NaMgNbSi(SO6)2,mp-2712606,1.0546999999999997,1.68225726,0.11074091643312034,"{11: 1, 12: 1, 41: 1, 14: 1, 16: 2, 8: 12}","[8, 11, 12, 14, 16, 41]",812111121141162411,Na1Mg1Nb1Si1S2O12
NaMgTaSi(SO6)2,mp-2712720,1.5074,1.92047663,0.11453563926215349,"{11: 1, 12: 1, 73: 1, 14: 1, 16: 2, 8: 12}","[8, 11, 12, 14, 16, 73]",812111121141162731,Na1Mg1Ta1Si1S2O12
NaCaMgCr(SiO3)4,mp-1221077,3.5919000000000003,2.97660087,0.0,"{11: 1, 20: 1, 12: 1, 24: 1, 14: 4, 8: 12}","[8, 11, 12, 14, 20, 24]",812111121144201241,Na1Ca1Mg1Cr1Si4O12
NaMg3(SiO3)4,mp-1221159,3.2655999999999996,2.88196135,0.14638665225000125,"{11: 1, 12: 3, 14: 4, 8: 12}","[8, 11, 12, 14]",812111123144,Na1Mg3Si4O12
NaTiNbSi(PO6)2,mp-2715783,2.5784,0.87844046,0.01862952828711606,"{11: 1, 22: 1, 41: 1, 14: 1, 15: 2, 8: 12}","[8, 11, 14, 15, 22, 41]",812111141152221411,Na1Ti1Nb1Si1P2O12
NaTaTiSi(PO6)2,mp-2715682,2.7504,0.95012591,0.0121536124999988,"{11: 1, 73: 1, 22: 1, 14: 1, 15: 2, 8: 12}","[8, 11, 14, 15, 22, 73]",812111141152221731,Na1Ta1Ti1Si1P2O12
NaNbSiGe(PO6)2,mp-2715738,2.7862,1.11785765,0.050931504768516156,"{11: 1, 41: 1, 14: 1, 32: 1, 15: 2, 8: 12}","[8, 11, 14, 15, 32, 41]",812111141152321411,Na1Nb1Si1Ge1P2O12
NaTaSiGe(PO6)2,mp-2715671,3.2702,1.24650993,0.04738632875000537,"{11: 1, 73: 1, 14: 1, 32: 1, 15: 2, 8: 12}","[8, 11, 14, 15, 32, 73]",812111141152321731,Na1Ta1Si1Ge1P2O12
NaZrNbSi(PO6)2,mp-2715582,2.535,0.58948203,0.03260253944446312,"{11: 1, 40: 1, 41: 1, 14: 1, 15: 2, 8: 12}","[8, 11, 14, 15, 40, 41]",812111141152401411,Na1Zr1Nb1Si1P2O12
NaZrTaSi(PO6)2,mp-2715568,3.4006000000000003,0.68094432,0.02777649560185047,"{11: 1, 40: 1, 73: 1, 14: 1, 15: 2, 8: 12}","[8, 11, 14, 15, 40, 73]",812111141152401731,Na1Zr1Ta1Si1P2O12
NaNbSiSn(PO6)2,mp-2715563,2.5295,1.32889469,0.021919856342591082,"{11: 1, 41: 1, 14: 1, 50: 1, 15: 2, 8: 12}","[8, 11, 14, 15, 41, 50]",812111141152411501,Na1Nb1Si1Sn1P2O12
NaHfNbSi(PO6)2,mp-2715628,2.5804,0.74667379,0.028032621898146814,"{11: 1, 72: 1, 41: 1, 14: 1, 15: 2, 8: 12}","[8, 11, 14, 15, 41, 72]",812111141152411721,Na1Hf1Nb1Si1P2O12
NaTaSiSn(PO6)2,mp-2715612,3.3464000000000005,1.46490766,0.022436813740733363,"{11: 1, 73: 1, 14: 1, 50: 1, 15: 2, 8: 12}","[8, 11, 14, 15, 50, 73]",812111141152501731,Na1Ta1Si1Sn1P2O12
NaHfTaSi(PO6)2,mp-2715675,3.3849,0.80668476,0.02350989944444315,"{11: 1, 72: 1, 73: 1, 14: 1, 15: 2, 8: 12}","[8, 11, 14, 15, 72, 73]",812111141152721731,Na1Hf1Ta1Si1P2O12
NaCaNbSi(SO6)2,mp-2712582,0.7451000000000001,1.19768235,0.16725534373676876,"{11: 1, 20: 1, 41: 1, 14: 1, 16: 2, 8: 12}","[8, 11, 14, 16, 20, 41]",812111141162201411,Na1Ca1Nb1Si1S2O12