formula,material_id,band_gap,efermi,energy_above_hull,comp_atoms,sorted_keys_comp_atoms,comp_number,new_formula
Ga2SiSn2S5O24,mp-2713010,2.0263999999999998,1.49669447,0.05223333611520076,"{31: 2, 14: 1, 50: 2, 16: 5, 8: 24}","[8, 14, 16, 31, 50]",824141165312502,Ga2Si1Sn2S5O24
Hf2Ga2SiS5O24,mp-2713105,2.9724000000000004,0.67140388,0.02011848941176453,"{72: 2, 31: 2, 14: 1, 16: 5, 8: 24}","[8, 14, 16, 31, 72]",824141165312722,Hf2Ga2Si1S5O24
NbGa3SiS5O24,mp-2713013,1.6868000000000003,1.01031261,0.044933417941175335,"{41: 1, 31: 3, 14: 1, 16: 5, 8: 24}","[8, 14, 16, 31, 41]",824141165313411,Nb1Ga3Si1S5O24
TaGa3SiS5O24,mp-2712858,2.3297,1.11611787,0.04735694953431313,"{73: 1, 31: 3, 14: 1, 16: 5, 8: 24}","[8, 14, 16, 31, 73]",824141165313731,Ta1Ga3Si1S5O24
In2SiGe2S5O24,mp-2713102,1.3473,1.22480484,0.07963058289216196,"{49: 2, 14: 1, 32: 2, 16: 5, 8: 24}","[8, 14, 16, 32, 49]",824141165322492,In2Si1Ge2S5O24
La2SiGe2S5O24,mp-2712884,0.6604,0.59335237,0.1103311769117461,"{57: 2, 14: 1, 32: 2, 16: 5, 8: 24}","[8, 14, 16, 32, 57]",824141165322572,La2Si1Ge2S5O24
Zr2In2SiS5O24,mp-2712839,3.0538000000000003,0.6221877,0.01703487529411607,"{40: 2, 49: 2, 14: 1, 16: 5, 8: 24}","[8, 14, 16, 40, 49]",824141165402492,Zr2In2Si1S5O24
La2Zr2SiS5O24,mp-2713106,3.4735,0.08051966,0.023598741470588713,"{57: 2, 40: 2, 14: 1, 16: 5, 8: 24}","[8, 14, 16, 40, 57]",824141165402572,La2Zr2Si1S5O24
NbIn3SiS5O24,mp-2712892,1.6647999999999998,1.10227221,0.04781331647058629,"{41: 1, 49: 3, 14: 1, 16: 5, 8: 24}","[8, 14, 16, 41, 49]",824141165411493,Nb1In3Si1S5O24
La3NbSiS5O24,mp-2713042,1.8384000000000003,0.60530464,0.05057278264705278,"{57: 3, 41: 1, 14: 1, 16: 5, 8: 24}","[8, 14, 16, 41, 57]",824141165411573,La3Nb1Si1S5O24
In2SiSn2S5O24,mp-2713067,1.4433999999999998,1.46760802,0.05416917552694045,"{49: 2, 14: 1, 50: 2, 16: 5, 8: 24}","[8, 14, 16, 49, 50]",824141165492502,In2Si1Sn2S5O24
Hf2In2SiS5O24,mp-2712889,2.9231,0.68003111,0.016372655098037647,"{72: 2, 49: 2, 14: 1, 16: 5, 8: 24}","[8, 14, 16, 49, 72]",824141165492722,Hf2In2Si1S5O24
TaIn3SiS5O24,mp-2713080,1.93,1.36174219,0.05353179669117569,"{73: 1, 49: 3, 14: 1, 16: 5, 8: 24}","[8, 14, 16, 49, 73]",824141165493731,Ta1In3Si1S5O24
La2SiSn2S5O24,mp-2712941,1.1374,0.82792688,0.07030589871321613,"{57: 2, 14: 1, 50: 2, 16: 5, 8: 24}","[8, 14, 16, 50, 57]",824141165502572,La2Si1Sn2S5O24
La2Hf2SiS5O24,mp-2713099,4.186,0.28782038,0.025996584705896275,"{57: 2, 72: 2, 14: 1, 16: 5, 8: 24}","[8, 14, 16, 57, 72]",824141165572722,La2Hf2Si1S5O24
La3TaSiS5O24,mp-2713036,2.4263,0.61166035,0.06161043757353557,"{57: 3, 73: 1, 14: 1, 16: 5, 8: 24}","[8, 14, 16, 57, 73]",824141165573731,La3Ta1Si1S5O24
Mn13Si2SbO24,mp-557740,0.0,3.96846989,0.010657543802077285,"{25: 13, 14: 2, 51: 1, 8: 24}","[8, 14, 25, 51]",8241422513511,Mn13Si2Sb1O24
Mn7Zn4Si2(AsO12)2,mp-1196244,0.2096,2.90540348,0.07243337617520407,"{25: 7, 30: 4, 14: 2, 33: 2, 8: 24}","[8, 14, 25, 30, 33]",824142257304332,Mn7Zn4Si2As2O24
Ca10Si3S3(ClO12)2,mp-42163,4.5001999999999995,2.60147859,0.028277599642857254,"{20: 10, 14: 3, 16: 3, 17: 2, 8: 24}","[8, 14, 16, 17, 20]",8241431631722010,Ca10Si3S3Cl2O24
ScNb3Si3(SO8)3,mp-2713929,1.6888,0.43160279,0.03624812531863064,"{21: 1, 41: 3, 14: 3, 16: 3, 8: 24}","[8, 14, 16, 21, 41]",824143163211413,Sc1Nb3Si3S3O24
ScTa3Si3(SO8)3,mp-2713978,2.2228000000000003,0.71283729,0.04347503647058737,"{21: 1, 73: 3, 14: 3, 16: 3, 8: 24}","[8, 14, 16, 21, 73]",824143163211733,Sc1Ta3Si3S3O24
Ti2Nb2Si3(SO8)3,mp-2713861,1.4003999999999999,0.67568911,0.030517745857833845,"{22: 2, 41: 2, 14: 3, 16: 3, 8: 24}","[8, 14, 16, 22, 41]",824143163222412,Ti2Nb2Si3S3O24
Ta2Ti2Si3(SO8)3,mp-2713782,1.6877,0.9764111,0.03394934639705838,"{73: 2, 22: 2, 14: 3, 16: 3, 8: 24}","[8, 14, 16, 22, 73]",824143163222732,Ta2Ti2Si3S3O24
Nb3GaSi3(SO8)3,mp-2713840,1.7733999999999999,0.55536821,0.031282857352939786,"{41: 3, 31: 1, 14: 3, 16: 3, 8: 24}","[8, 14, 16, 31, 41]",824143163311413,Nb3Ga1Si3S3O24
Ta3GaSi3(SO8)3,mp-2713922,2.3744,0.83651635,0.035192763112744885,"{73: 3, 31: 1, 14: 3, 16: 3, 8: 24}","[8, 14, 16, 31, 73]",824143163311733,Ta3Ga1Si3S3O24
Nb2Si3Ge2(SO8)3,mp-2713904,1.5074,0.92041275,0.06958211053920138,"{41: 2, 14: 3, 32: 2, 16: 3, 8: 24}","[8, 14, 16, 32, 41]",824143163322412,Nb2Si3Ge2S3O24
Ta2Si3Ge2(SO8)3,mp-2713784,1.4027,1.25632359,0.04751302068626018,"{73: 2, 14: 3, 32: 2, 16: 3, 8: 24}","[8, 14, 16, 32, 73]",824143163322732,Ta2Si3Ge2S3O24
Zr2Nb2Si3(SO8)3,mp-2714012,1.1406,0.45857933,0.033812448662471795,"{40: 2, 41: 2, 14: 3, 16: 3, 8: 24}","[8, 14, 16, 40, 41]",824143163402412,Zr2Nb2Si3S3O24
Zr2Ta2Si3(SO8)3,mp-2713734,1.6753,0.61208622,0.0340565560294106,"{40: 2, 73: 2, 14: 3, 16: 3, 8: 24}","[8, 14, 16, 40, 73]",824143163402732,Zr2Ta2Si3S3O24
Nb2Si3Sn2(SO8)3,mp-2714018,0.9678000000000001,1.22280428,0.04334211988970349,"{41: 2, 14: 3, 50: 2, 16: 3, 8: 24}","[8, 14, 16, 41, 50]",824143163412502,Nb2Si3Sn2S3O24
Hf2Nb2Si3(SO8)3,mp-2713868,0.9424000000000001,0.67663899,0.023137690196078253,"{72: 2, 41: 2, 14: 3, 16: 3, 8: 24}","[8, 14, 16, 41, 72]",824143163412722,Hf2Nb2Si3S3O24
Nb3InSi3(SO8)3,mp-2713920,1.6414,0.53166141,0.039808644803919435,"{41: 3, 49: 1, 14: 3, 16: 3, 8: 24}","[8, 14, 16, 41, 49]",824143163413491,Nb3In1Si3S3O24
LaNb3Si3(SO8)3,mp-2713910,1.6947,0.4936991,0.06651735343138832,"{57: 1, 41: 3, 14: 3, 16: 3, 8: 24}","[8, 14, 16, 41, 57]",824143163413571,La1Nb3Si3S3O24
Ta3InSi3(SO8)3,mp-2713797,2.0852,0.9714059,0.04697119997549848,"{73: 3, 49: 1, 14: 3, 16: 3, 8: 24}","[8, 14, 16, 49, 73]",824143163491733,Ta3In1Si3S3O24
Ta2Si3Sn2(SO8)3,mp-2713836,1.4001,1.51031868,0.050292335330881066,"{73: 2, 14: 3, 50: 2, 16: 3, 8: 24}","[8, 14, 16, 50, 73]",824143163502732,Ta2Si3Sn2S3O24
LaTa3Si3(SO8)3,mp-2713882,2.3041,0.74447279,0.07330961458333363,"{57: 1, 73: 3, 14: 3, 16: 3, 8: 24}","[8, 14, 16, 57, 73]",824143163571733,La1Ta3Si3S3O24
Hf2Ta2Si3(SO8)3,mp-2713757,1.5735999999999999,0.8152716,0.02834600593137182,"{72: 2, 73: 2, 14: 3, 16: 3, 8: 24}","[8, 14, 16, 72, 73]",824143163722732,Hf2Ta2Si3S3O24
Cr3Si3Pb10(ClO12)2,mp-1226647,1.4457,3.1830603,0.015563593958330735,"{24: 3, 14: 3, 82: 10, 17: 2, 8: 24}","[8, 14, 17, 24, 82]",8241431722438210,Cr3Si3Pb10Cl2O24
Ti4(SiO8)3,mp-1178991,0.0,-1.30161342,0.6466551039516144,"{22: 4, 14: 3, 8: 24}","[8, 14, 22]",824143224,Ti4Si3O24
Mn8Si6ClO24,mp-1200010,0.47040000000000015,1.36598045,0.1055013826744986,"{25: 8, 14: 6, 17: 1, 8: 24}","[8, 14, 17, 25]",824146171258,Mn8Si6Cl1O24
KCa2(SiO3)8,mp-1224857,0.0,0.08104515,0.461498716583316,"{19: 1, 20: 2, 14: 8, 8: 24}","[8, 14, 19, 20]",824148191202,K1Ca2Si8O24
CsNb2(SiO3)8,mp-1226910,0.0,-0.88590784,0.17018481573808764,"{55: 1, 41: 2, 14: 8, 8: 24}","[8, 14, 41, 55]",824148412551,Cs1Nb2Si8O24
Na11TiNb2Si4P2(O12F)2,mp-1210688,0.0,4.11956118,0.011075785263580329,"{11: 11, 22: 1, 41: 2, 14: 4, 15: 2, 8: 24, 9: 2}","[8, 9, 11, 14, 15, 22, 41]",824921111144152221412,Na11Ti1Nb2Si4P2O24F2
Ca10Si3S3(O12F)2,mp-1227873,4.4597999999999995,2.50050302,0.020258774345237818,"{20: 10, 14: 3, 16: 3, 8: 24, 9: 2}","[8, 9, 14, 16, 20]",824921431632010,Ca10Si3S3O24F2
NaCa4Ti4Nb(SiO5)5,mp-720204,2.9213999999999998,2.36272908,0.003391396166668059,"{11: 1, 20: 4, 22: 4, 41: 1, 14: 5, 8: 25}","[8, 11, 14, 20, 22, 41]",825111145204224411,Na1Ca4Ti4Nb1Si5O25
NaCa4TaTi4(SiO5)5,mp-694049,2.8068000000000004,2.46311419,0.0001419144791654503,"{11: 1, 20: 4, 73: 1, 22: 4, 14: 5, 8: 25}","[8, 11, 14, 20, 22, 73]",825111145204224731,Na1Ca4Ta1Ti4Si5O25
Ca3SiS2O25,mp-1196842,0.10930000000000001,0.06087503,0.6323613622311832,"{20: 3, 14: 1, 16: 2, 8: 25}","[8, 14, 16, 20]",825141162203,Ca3Si1S2O25
Si(Bi3O5)5,mp-686175,0.0,4.20777664,0.03438102373983032,"{14: 1, 83: 15, 8: 25}","[8, 14, 83]",8251418315,Si1Bi15O25
KTi3Si2P6O25,mp-541317,0.0,3.4426837,0.005929007426859201,"{19: 1, 22: 3, 14: 2, 15: 6, 8: 25}","[8, 14, 15, 19, 22]",825142156191223,K1Ti3Si2P6O25
RbTi3Si2P6O25,mp-1209312,0.0,3.44116844,0.0005046799028356475,"{37: 1, 22: 3, 14: 2, 15: 6, 8: 25}","[8, 14, 15, 22, 37]",825142156223371,Rb1Ti3Si2P6O25
CsTi3Si2P6O25,mp-541318,0.0,3.58100412,0.0,"{55: 1, 22: 3, 14: 2, 15: 6, 8: 25}","[8, 14, 15, 22, 55]",825142156223551,Cs1Ti3Si2P6O25
Ti3TlSi2P6O25,mp-1208411,0.017599999999999838,3.69397626,0.0007114550312028456,"{22: 3, 81: 1, 14: 2, 15: 6, 8: 25}","[8, 14, 15, 22, 81]",825142156223811,Ti3Tl1Si2P6O25
Si2Ge3P6O25,mp-555982,4.0974,0.66661332,0.0,"{14: 2, 32: 3, 15: 6, 8: 25}","[8, 14, 15, 32]",825142156323,Si2Ge3P6O25
RbSi2Mo3P6O25,mp-705894,0.36450000000000005,2.45206647,1.056705457657647,"{37: 1, 14: 2, 42: 3, 15: 6, 8: 25}","[8, 14, 15, 37, 42]",825142156371423,Rb1Si2Mo3P6O25
CsSi2Mo3P6O25,mp-1213518,1.3245000000000002,2.79316629,0.0,"{55: 1, 14: 2, 42: 3, 15: 6, 8: 25}","[8, 14, 15, 42, 55]",825142156423551,Cs1Si2Mo3P6O25
Si2Mo4P6O25,mp-557690,0.061299999999999244,4.39459236,0.0,"{14: 2, 42: 4, 15: 6, 8: 25}","[8, 14, 15, 42]",825142156424,Si2Mo4P6O25
Si5P6O25,mp-3273,5.6022,1.39988176,0.0,"{14: 5, 15: 6, 8: 25}","[8, 14, 15]",825145156,Si5P6O25
Mn8Si6O25,mp-1180962,0.00869999999999993,1.42144553,0.10991641946047714,"{25: 8, 14: 6, 8: 25}","[8, 14, 25]",825146258,Mn8Si6O25
Na11TiNb2Si4P2O25F,mp-1221508,2.5924000000000005,1.43181541,0.0,"{11: 11, 22: 1, 41: 2, 14: 4, 15: 2, 8: 25, 9: 1}","[8, 9, 11, 14, 15, 22, 41]",825911111144152221412,Na11Ti1Nb2Si4P2O25F1
Na11TiNb2Si4(PO13)2,mp-1221506,0.6257000000000001,1.45385983,0.020138418777174927,"{11: 11, 22: 1, 41: 2, 14: 4, 15: 2, 8: 26}","[8, 11, 14, 15, 22, 41]",8261111144152221412,Na11Ti1Nb2Si4P2O26
NaNd9(Si3O13)2,mp-1221031,4.4314,2.57457753,0.0,"{11: 1, 60: 9, 14: 6, 8: 26}","[8, 11, 14, 60]",826111146609,Na1Nd9Si6O26
NaHo9(Si3O13)2,mp-1220852,4.4207,2.77180525,0.0,"{11: 1, 67: 9, 14: 6, 8: 26}","[8, 11, 14, 67]",826111146679,Na1Ho9Si6O26
Sr3Ta6(Si2O13)2,mp-17103,3.0854999999999997,1.38385535,0.006896537350419507,"{38: 3, 73: 6, 14: 4, 8: 26}","[8, 14, 38, 73]",826144383736,Sr3Ta6Si4O26
KPr9(Si3O13)2,mp-1223421,4.4388,6.95919503,0.0,"{19: 1, 59: 9, 14: 6, 8: 26}","[8, 14, 19, 59]",826146191599,K1Pr9Si6O26
KNd9(Si3O13)2,mp-1223480,4.454,6.98623932,0.0,"{19: 1, 60: 9, 14: 6, 8: 26}","[8, 14, 19, 60]",826146191609,K1Nd9Si6O26
Si6Bi9O26,mp-1266421,0.0,3.87395102,0.05237087243897065,"{14: 6, 83: 9, 8: 26}","[8, 14, 83]",826146839,Si6Bi9O26
Rb6In2Co2Si9O26,mp-562801,2.7696000000000005,1.87863678,0.006820162624999071,"{37: 6, 49: 2, 27: 2, 14: 9, 8: 26}","[8, 14, 27, 37, 49]",826149272376492,Rb6In2Co2Si9O26
KCa12Si4S2O26F,mp-557227,4.2813,2.21053294,0.000835301249991538,"{19: 1, 20: 12, 14: 4, 16: 2, 8: 26, 9: 1}","[8, 9, 14, 16, 19, 20]",826911441621912012,K1Ca12Si4S2O26F1
Na2CaZr2Si10O27,mp-1197941,0.0,-0.68754575,0.10364364031745943,"{11: 2, 20: 1, 40: 2, 14: 10, 8: 27}","[8, 11, 14, 20, 40]",8271121410201402,Na2Ca1Zr2Si10O27
La10(Si2O9)3,mp-531302,3.7138,5.91997522,0.0242781806976744,"{57: 10, 14: 6, 8: 27}","[8, 14, 57]",8271465710,La10Si6O27
NaCr12Si8ClO28,mp-1221145,2.1639000000000004,2.19268623,0.0,"{11: 1, 24: 12, 14: 8, 17: 1, 8: 28}","[8, 11, 14, 17, 24]",8281111481712412,Na1Cr12Si8Cl1O28
NaCr12Si8BrO28,mp-1221115,2.1137999999999995,2.28120228,0.0,"{11: 1, 24: 12, 14: 8, 35: 1, 8: 28}","[8, 11, 14, 24, 35]",8281111482412351,Na1Cr12Si8Br1O28
K4MgNb4(Si2O7)4,mp-2217038,0.0,4.11898849,0.10463835319518822,"{19: 4, 12: 1, 41: 4, 14: 8, 8: 28}","[8, 12, 14, 19, 41]",828121148194414,K4Mg1Nb4Si8O28
Sr2Si(S2O7)4,mp-1020612,4.9136,-0.10953538,0.0,"{38: 2, 14: 1, 16: 8, 8: 28}","[8, 14, 16, 38]",828141168382,Sr2Si1S8O28
Cr13Si2(SbO14)2,mp-1044615,0.18659999999999988,4.05439079,0.3967026709074073,"{24: 13, 14: 2, 51: 2, 8: 28}","[8, 14, 24, 51]",8281422413512,Cr13Si2Sb2O28
Mn13Si2(SbO14)2,mp-1931800,0.0,3.06013213,0.2498980926574088,"{25: 13, 14: 2, 51: 2, 8: 28}","[8, 14, 25, 51]",8281422513512,Mn13Si2Sb2O28
Si2Sb2Mo13O28,mp-1044616,0.0,4.53545242,0.3521751021693156,"{14: 2, 51: 2, 42: 13, 8: 28}","[8, 14, 42, 51]",8281424213512,Si2Sb2Mo13O28
Si2Sn13(SbO14)2,mp-1044174,0.49289999999999967,4.43588793,0.243320679388896,"{14: 2, 50: 13, 51: 2, 8: 28}","[8, 14, 50, 51]",8281425013512,Si2Sn13Sb2O28
Si2Sb15O28,mp-1044140,0.43830000000000036,2.78469632,0.1771919919166578,"{14: 2, 51: 15, 8: 28}","[8, 14, 51]",8281425115,Si2Sb15O28
Si2Bi13(SbO14)2,mp-1248784,0.6391999999999998,4.14697137,0.14137277565608564,"{14: 2, 83: 13, 51: 2, 8: 28}","[8, 14, 51, 83]",8281425128313,Si2Bi13Sb2O28
Ca8Zn4Si3Ge5O28,mp-1227205,3.3116,1.76217645,0.010945640295143555,"{20: 8, 30: 4, 14: 3, 32: 5, 8: 28}","[8, 14, 20, 30, 32]",828143208304325,Ca8Zn4Si3Ge5O28
Mn9Zn6Si4(SbO14)2,mp-850230,1.0069,3.63134519,0.0,"{25: 9, 30: 6, 14: 4, 51: 2, 8: 28}","[8, 14, 25, 30, 51]",828144259306512,Mn9Zn6Si4Sb2O28
Ca4Mn6Si5O28,mp-1227666,0.0,2.16694806,0.2433898224031008,"{20: 4, 25: 6, 14: 5, 8: 28}","[8, 14, 20, 25]",828145204256,Ca4Mn6Si5O28
Ca9Si6(WO7)4,mp-1214849,2.1969999999999996,2.52343803,0.27054363297872275,"{20: 9, 14: 6, 74: 4, 8: 28}","[8, 14, 20, 74]",828146209744,Ca9Si6W4O28
KCr12Si8ClO28,mp-1223595,2.1609999999999996,2.08672698,0.0,"{19: 1, 24: 12, 14: 8, 17: 1, 8: 28}","[8, 14, 17, 19, 24]",8281481711912412,K1Cr12Si8Cl1O28
CaEr15Si8Se11ClO28,mp-720985,2.4593000000000007,7.15652961,0.03877807507811859,"{20: 1, 68: 15, 14: 8, 34: 11, 17: 1, 8: 28}","[8, 14, 17, 20, 34, 68]",82814817120134116815,Ca1Er15Si8Se11Cl1O28
KCr12Si8BrO28,mp-1223609,2.1822,2.09806565,0.0,"{19: 1, 24: 12, 14: 8, 35: 1, 8: 28}","[8, 14, 19, 24, 35]",8281481912412351,K1Cr12Si8Br1O28
Ca8Zn3Co(Si2O7)4,mp-1227259,3.1805999999999996,2.67466791,0.016692247934027016,"{20: 8, 30: 3, 27: 1, 14: 8, 8: 28}","[8, 14, 20, 27, 30]",828148208271303,Ca8Zn3Co1Si8O28
Ca8ZnCo3(Si2O7)4,mp-1227193,3.1614999999999998,2.83553965,0.01846377512152575,"{20: 8, 30: 1, 27: 3, 14: 8, 8: 28}","[8, 14, 20, 27, 30]",828148208273301,Ca8Zn1Co3Si8O28
KCa4Si8O28F,mp-1181193,0.2732,-0.09182796,0.33720539197422283,"{19: 1, 20: 4, 14: 8, 8: 28, 9: 1}","[8, 9, 14, 19, 20]",82891148191204,K1Ca4Si8O28F1
Si18O29,mp-1199711,0.09720000000000018,1.2968861,0.20951922234042542,"{14: 18, 8: 29}","[8, 14]",8291418,Si18O29
SrSi(OF3)2,mp-728573,0.8803000000000001,-1.9624747,0.4217052042499976,"{38: 1, 14: 1, 8: 2, 9: 6}","[8, 9, 14, 38]",8296141381,Sr1Si1O2F6
SiHg2(OF3)2,mp-732203,2.5345000000000004,-1.31262698,0.16692710738636407,"{14: 1, 80: 2, 8: 2, 9: 6}","[8, 9, 14, 80]",8296141802,Si1Hg2O2F6
SiPb(OF3)2,mp-1179522,0.0,-0.34045758,0.4677844458749991,"{14: 1, 82: 1, 8: 2, 9: 6}","[8, 9, 14, 82]",8296141821,Si1Pb1O2F6
Na7TiNb2Si4P2O29F,mp-1200090,0.27980000000000005,0.6768535,0.24442056302536486,"{11: 7, 22: 1, 41: 2, 14: 4, 15: 2, 8: 29, 9: 1}","[8, 9, 11, 14, 15, 22, 41]",82991117144152221412,Na7Ti1Nb2Si4P2O29F1
KNaMg3Zn2(Si2O5)6,mp-1223684,4.285,1.18911416,0.0,"{19: 1, 11: 1, 12: 3, 30: 2, 14: 12, 8: 30}","[8, 11, 12, 14, 19, 30]",8301111231412191302,K1Na1Mg3Zn2Si12O30
RbNaMg3Zn2(Si2O5)6,mp-1219802,4.2766,1.21160875,0.0,"{37: 1, 11: 1, 12: 3, 30: 2, 14: 12, 8: 30}","[8, 11, 12, 14, 30, 37]",8301111231412302371,Rb1Na1Mg3Zn2Si12O30
KNaMg5(Si2O5)6,mp-690914,4.7418000000000005,1.25825015,0.0017463466836451502,"{19: 1, 11: 1, 12: 5, 14: 12, 8: 30}","[8, 11, 12, 14, 19]",8301111251412191,K1Na1Mg5Si12O30
RbNaMg5(Si2O5)6,mp-1173467,4.792400000000001,1.23889928,0.0,"{37: 1, 11: 1, 12: 5, 14: 12, 8: 30}","[8, 11, 12, 14, 37]",8301111251412371,Rb1Na1Mg5Si12O30
Na2Mg3Zn2(Si2O5)6,mp-1221527,4.1812,1.05465415,0.004334179557812234,"{11: 2, 12: 3, 30: 2, 14: 12, 8: 30}","[8, 11, 12, 14, 30]",8301121231412302,Na2Mg3Zn2Si12O30
Na2Mg5(Si2O5)6,mp-1221511,4.6080000000000005,0.94890469,0.004580767551018994,"{11: 2, 12: 5, 14: 12, 8: 30}","[8, 11, 12, 14]",8301121251412,Na2Mg5Si12O30
MgMn8(SiO3)10,mp-1234735,0.4086999999999996,3.3084109,0.05142175154195705,"{12: 1, 25: 8, 14: 10, 8: 30}","[8, 12, 14, 25]",8301211410258,Mg1Mn8Si10O30
K2Mg3Zn2(Si2O5)6,mp-1224589,4.388999999999999,1.09116518,0.0,"{19: 2, 12: 3, 30: 2, 14: 12, 8: 30}","[8, 12, 14, 19, 30]",8301231412192302,K2Mg3Zn2Si12O30
K2Mg5(Si2O5)6,mp-1224161,4.8751,1.17961859,0.0,"{19: 2, 12: 5, 14: 12, 8: 30}","[8, 12, 14, 19]",8301251412192,K2Mg5Si12O30
Mg5(Si4O15)2,mp-1197410,0.02059999999999995,-0.73924598,0.3789440594573632,"{12: 5, 14: 8, 8: 30}","[8, 12, 14]",830125148,Mg5Si8O30
KMn2Zn3(Si2O5)6,mp-1260941,0.004899999999999904,1.84983751,0.017876878695010312,"{19: 1, 25: 2, 30: 3, 14: 12, 8: 30}","[8, 14, 19, 25, 30]",8301412191252303,K1Mn2Zn3Si12O30
K3Mn5(Si2O5)6,mp-1211913,0.0,6.00321371,0.022473452595690446,"{19: 3, 25: 5, 14: 12, 8: 30}","[8, 14, 19, 25]",8301412193255,K3Mn5Si12O30
La4Ti9(Si2O15)2,mp-562731,0.0,6.81857325,0.0051259614361640615,"{57: 4, 22: 9, 14: 4, 8: 30}","[8, 14, 22, 57]",830144229574,La4Ti9Si4O30
Na5Ca7Zr2Ti2Si8(O5F)6,mp-1211060,0.0039999999999995595,4.69699446,0.005673487847202452,"{11: 5, 20: 7, 40: 2, 22: 2, 14: 8, 8: 30, 9: 6}","[8, 9, 11, 14, 20, 22, 40]",83096115148207222402,Na5Ca7Zr2Ti2Si8O30F6
NaSiO3,mp-1186167,0.0,4.73893607,0.25493713337500346,"{11: 1, 14: 1, 8: 3}","[8, 11, 14]",83111141,Na1Si1O3
CsNaSiO3,mp-1225970,3.7895,5.06567397,0.01508467486111087,"{55: 1, 11: 1, 14: 1, 8: 3}","[8, 11, 14, 55]",83111141551,Cs1Na1Si1O3
Na2SiO3,mp-4533,3.8657000000000004,1.19803672,0.0,"{11: 2, 14: 1, 8: 3}","[8, 11, 14]",83112141,Na2Si1O3
K2Mn5Si12O31,mp-1224568,0.5683999999999998,2.03265214,0.08027731721112019,"{19: 2, 25: 5, 14: 12, 8: 31}","[8, 14, 19, 25]",8311412192255,K2Mn5Si12O31
MgSiO3,mp-3470,4.6484,3.16488812,0.007678037916668323,"{12: 1, 14: 1, 8: 3}","[8, 12, 14]",83121141,Mg1Si1O3
Ca2SiCl2O3,mp-556364,5.1049,1.53811328,0.016823797083329595,"{20: 2, 14: 1, 17: 2, 8: 3}","[8, 14, 17, 20]",83141172202,Ca2Si1Cl2O3
Sr2SiCl2O3,mp-557304,5.1218,0.89902926,0.0022898028125020176,"{38: 2, 14: 1, 17: 2, 8: 3}","[8, 14, 17, 38]",83141172382,Sr2Si1Cl2O3
Eu2SiCl2O3,mp-555322,0.6427999999999994,5.07113269,0.0,"{63: 2, 14: 1, 17: 2, 8: 3}","[8, 14, 17, 63]",83141172632,Eu2Si1Cl2O3
KSiO3,mp-1199261,0.0,-0.63870958,0.14834659749999624,"{19: 1, 14: 1, 8: 3}","[8, 14, 19]",83141191,K1Si1O3
K2SiO3,mp-15379,3.6483000000000003,0.22688475,0.0,"{19: 2, 14: 1, 8: 3}","[8, 14, 19]",83141192,K2Si1O3
CaSiO3,mp-4429,4.8413,1.65505433,0.0,"{20: 1, 14: 1, 8: 3}","[8, 14, 20]",83141201,Ca1Si1O3
ScSiO3,mp-1186993,0.0,10.67646484,0.7078265899687413,"{21: 1, 14: 1, 8: 3}","[8, 14, 21]",83141211,Sc1Si1O3
VSiO3,mp-754608,0.0,7.03016242,0.020424157416659483,"{23: 1, 14: 1, 8: 3}","[8, 14, 23]",83141231,V1Si1O3
MnSiO3,mp-5945,2.3995,3.25239261,0.00878835530953026,"{25: 1, 14: 1, 8: 3}","[8, 14, 25]",83141251,Mn1Si1O3
CoSiO3,mp-699575,2.6041,3.6304638,0.02191650058333572,"{27: 1, 14: 1, 8: 3}","[8, 14, 27]",83141271,Co1Si1O3
ZnSiO3,mp-1178612,3.5717999999999996,0.48081788,0.03667183750000369,"{30: 1, 14: 1, 8: 3}","[8, 14, 30]",83141301,Zn1Si1O3
GaSiO3,mp-1184206,0.0,6.39448298,0.6703666545000004,"{31: 1, 14: 1, 8: 3}","[8, 14, 31]",83141311,Ga1Si1O3
SiGeO3,mp-769171,2.8185000000000002,3.2280037,0.10603612629166825,"{14: 1, 32: 1, 8: 3}","[8, 14, 32]",83141321,Si1Ge1O3
Rb2SiO3,mp-16194,3.3292,0.47477581,0.0,"{37: 2, 14: 1, 8: 3}","[8, 14, 37]",83141372,Rb2Si1O3
SrSiO3,mp-3978,4.6251,1.079017,0.0,"{38: 1, 14: 1, 8: 3}","[8, 14, 38]",83141381,Sr1Si1O3
ZrSiO3,mp-1183043,0.0,10.14163877,1.07280004225,"{40: 1, 14: 1, 8: 3}","[8, 14, 40]",83141401,Zr1Si1O3
SiMoO3,mp-1186997,0.0,8.80428943,0.8953065618333378,"{14: 1, 42: 1, 8: 3}","[8, 14, 42]",83141421,Si1Mo1O3
SiPdO3,mp-978490,0.0,6.21688942,0.7127954029999977,"{14: 1, 46: 1, 8: 3}","[8, 14, 46]",83141461,Si1Pd1O3
SiAgO3,mp-1186999,0.0,5.186099,0.4860400653333361,"{14: 1, 47: 1, 8: 3}","[8, 14, 47]",83141471,Si1Ag1O3
SiAg2O3,mp-28195,0.6373000000000002,2.23362905,0.04351927277777712,"{14: 1, 47: 2, 8: 3}","[8, 14, 47]",83141472,Si1Ag2O3
CdSiO3,mp-560560,2.573,1.3090774,0.0,"{48: 1, 14: 1, 8: 3}","[8, 14, 48]",83141481,Cd1Si1O3
InSiO3,mp-1184751,0.0,9.76268023,0.5619665706666659,"{49: 1, 14: 1, 8: 3}","[8, 14, 49]",83141491,In1Si1O3
SiSnO3,mp-776110,2.3936,4.22119339,0.025908295166665596,"{14: 1, 50: 1, 8: 3}","[8, 14, 50]",83141501,Si1Sn1O3
Cs2SiO3,mp-505734,3.3766,1.38472227,0.0,"{55: 2, 14: 1, 8: 3}","[8, 14, 55]",83141552,Cs2Si1O3