formula,material_id,band_gap,efermi,energy_above_hull,comp_atoms,sorted_keys_comp_atoms,comp_number,new_formula
Na7CaZr3Si3(PO8)3,mp-2714697,3.7174000000000005,1.62293527,0.03334253130081333,"{11: 7, 20: 1, 40: 3, 14: 3, 15: 3, 8: 24}","[8, 11, 14, 15, 20, 40]",824117143153201403,Na7Ca1Zr3Si3P3O24
Na7CaSi3Sn3(PO8)3,mp-2715170,2.1426000000000003,2.57929835,0.06049705506097425,"{11: 7, 20: 1, 14: 3, 50: 3, 15: 3, 8: 24}","[8, 11, 14, 15, 20, 50]",824117143153201503,Na7Ca1Si3Sn3P3O24
Na7CaHf3Si3(PO8)3,mp-2714940,4.0222,1.80364057,0.027613427083329256,"{11: 7, 20: 1, 72: 3, 14: 3, 15: 3, 8: 24}","[8, 11, 14, 15, 20, 72]",824117143153201723,Na7Ca1Hf3Si3P3O24
Na7Ca2Nb2Si3(PO8)3,mp-2714740,1.8758,1.77267276,0.086608161524385,"{11: 7, 20: 2, 41: 2, 14: 3, 15: 3, 8: 24}","[8, 11, 14, 15, 20, 41]",824117143153202412,Na7Ca2Nb2Si3P3O24
Na7Ca2Ta2Si3(PO8)3,mp-2714858,2.6805999999999996,1.95389055,0.0833281275813027,"{11: 7, 20: 2, 73: 2, 14: 3, 15: 3, 8: 24}","[8, 11, 14, 15, 20, 73]",824117143153202732,Na7Ca2Ta2Si3P3O24
Na7Sc2Ti2Si3(PO8)3,mp-2714906,2.6163,1.91100133,0.03393715146850784,"{11: 7, 21: 2, 22: 2, 14: 3, 15: 3, 8: 24}","[8, 11, 14, 15, 21, 22]",824117143153212222,Na7Sc2Ti2Si3P3O24
Na7Sc2Si3Ge2(PO8)3,mp-2714862,3.1870999999999996,1.95990705,0.07053835243089512,"{11: 7, 21: 2, 14: 3, 32: 2, 15: 3, 8: 24}","[8, 11, 14, 15, 21, 32]",824117143153212322,Na7Sc2Si3Ge2P3O24
Na7Zr2Sc2Si3(PO8)3,mp-2714899,4.2916,1.48419632,0.022037505497962684,"{11: 7, 40: 2, 21: 2, 14: 3, 15: 3, 8: 24}","[8, 11, 14, 15, 21, 40]",824117143153212402,Na7Zr2Sc2Si3P3O24
Na7Sc2Si3Sn2(PO8)3,mp-2714968,3.3052,2.10939199,0.034443983180890925,"{11: 7, 21: 2, 14: 3, 50: 2, 15: 3, 8: 24}","[8, 11, 14, 15, 21, 50]",824117143153212502,Na7Sc2Si3Sn2P3O24
Na7Hf2Sc2Si3(PO8)3,mp-2714639,4.3573,1.51726578,0.015163521707314942,"{11: 7, 72: 2, 21: 2, 14: 3, 15: 3, 8: 24}","[8, 11, 14, 15, 21, 72]",824117143153212722,Na7Hf2Sc2Si3P3O24
Na7Sc3NbSi3(PO8)3,mp-2715115,2.1992000000000003,1.84746086,0.04138273212398502,"{11: 7, 21: 3, 41: 1, 14: 3, 15: 3, 8: 24}","[8, 11, 14, 15, 21, 41]",824117143153213411,Na7Sc3Nb1Si3P3O24
Na7Sc3TaSi3(PO8)3,mp-2714735,3.1622,1.84634045,0.03445812620935307,"{11: 7, 21: 3, 73: 1, 14: 3, 15: 3, 8: 24}","[8, 11, 14, 15, 21, 73]",824117143153213731,Na7Sc3Ta1Si3P3O24
Na7Ti2Ga2Si3(PO8)3,mp-2714751,2.6901,2.01329319,0.05118854627845337,"{11: 7, 22: 2, 31: 2, 14: 3, 15: 3, 8: 24}","[8, 11, 14, 15, 22, 31]",824117143153222312,Na7Ti2Ga2Si3P3O24
Na7Ti2In2Si3(PO8)3,mp-2714995,2.5968,2.16398202,0.03668521800813718,"{11: 7, 22: 2, 49: 2, 14: 3, 15: 3, 8: 24}","[8, 11, 14, 15, 22, 49]",824117143153222492,Na7Ti2In2Si3P3O24
Na7La2Ti2Si3(PO8)3,mp-2714686,2.526,2.16692678,0.08134850356706735,"{11: 7, 57: 2, 22: 2, 14: 3, 15: 3, 8: 24}","[8, 11, 14, 15, 22, 57]",824117143153222572,Na7La2Ti2Si3P3O24
Na7Ti3ZnSi3(PO8)3,mp-2714842,2.1916,1.95414602,0.051219226008139884,"{11: 7, 22: 3, 30: 1, 14: 3, 15: 3, 8: 24}","[8, 11, 14, 15, 22, 30]",824117143153223301,Na7Ti3Zn1Si3P3O24
Na7ZnSi3Ge3(PO8)3,mp-2714988,2.1355999999999997,2.56798967,0.10665870806909794,"{11: 7, 30: 1, 14: 3, 32: 3, 15: 3, 8: 24}","[8, 11, 14, 15, 30, 32]",824117143153301323,Na7Zn1Si3Ge3P3O24
Na7Zr3ZnSi3(PO8)3,mp-2714954,3.8181000000000003,1.5597377,0.0425387602032572,"{11: 7, 40: 3, 30: 1, 14: 3, 15: 3, 8: 24}","[8, 11, 14, 15, 30, 40]",824117143153301403,Na7Zr3Zn1Si3P3O24
Na7ZnSi3Sn3(PO8)3,mp-2715044,2.3914000000000004,2.70362155,0.05887851306910363,"{11: 7, 30: 1, 14: 3, 50: 3, 15: 3, 8: 24}","[8, 11, 14, 15, 30, 50]",824117143153301503,Na7Zn1Si3Sn3P3O24
Na7Hf3ZnSi3(PO8)3,mp-2714627,3.9869000000000003,1.76904924,0.03231876533537115,"{11: 7, 72: 3, 30: 1, 14: 3, 15: 3, 8: 24}","[8, 11, 14, 15, 30, 72]",824117143153301723,Na7Hf3Zn1Si3P3O24
Na7Nb2Zn2Si3(PO8)3,mp-2714996,1.7647,1.93502099,0.09117125583332708,"{11: 7, 41: 2, 30: 2, 14: 3, 15: 3, 8: 24}","[8, 11, 14, 15, 30, 41]",824117143153302412,Na7Nb2Zn2Si3P3O24
Na7Ta2Zn2Si3(PO8)3,mp-2715117,2.6254,2.06406432,0.0846274653048864,"{11: 7, 73: 2, 30: 2, 14: 3, 15: 3, 8: 24}","[8, 11, 14, 15, 30, 73]",824117143153302732,Na7Ta2Zn2Si3P3O24
Na7Ga2Si3Ge2(PO8)3,mp-2715162,3.1633,2.19672765,0.08343538197155098,"{11: 7, 31: 2, 14: 3, 32: 2, 15: 3, 8: 24}","[8, 11, 14, 15, 31, 32]",824117143153312322,Na7Ga2Si3Ge2P3O24
Na7Zr2Ga2Si3(PO8)3,mp-2715028,3.9425000000000003,1.71974979,0.04719438601626269,"{11: 7, 40: 2, 31: 2, 14: 3, 15: 3, 8: 24}","[8, 11, 14, 15, 31, 40]",824117143153312402,Na7Zr2Ga2Si3P3O24
Na7Ga2Si3Sn2(PO8)3,mp-2714733,3.2384,2.38198097,0.05605566563008324,"{11: 7, 31: 2, 14: 3, 50: 2, 15: 3, 8: 24}","[8, 11, 14, 15, 31, 50]",824117143153312502,Na7Ga2Si3Sn2P3O24
Na7Hf2Ga2Si3(PO8)3,mp-2714684,4.014200000000001,1.78049273,0.040241461432926506,"{11: 7, 72: 2, 31: 2, 14: 3, 15: 3, 8: 24}","[8, 11, 14, 15, 31, 72]",824117143153312722,Na7Hf2Ga2Si3P3O24
Na7NbGa3Si3(PO8)3,mp-2715188,2.3083,2.01987653,0.0626438899593511,"{11: 7, 41: 1, 31: 3, 14: 3, 15: 3, 8: 24}","[8, 11, 14, 15, 31, 41]",824117143153313411,Na7Nb1Ga3Si3P3O24
Na7TaGa3Si3(PO8)3,mp-2714833,3.1614999999999993,2.08159921,0.05821095160568923,"{11: 7, 73: 1, 31: 3, 14: 3, 15: 3, 8: 24}","[8, 11, 14, 15, 31, 73]",824117143153313731,Na7Ta1Ga3Si3P3O24
Na7In2Si3Ge2(PO8)3,mp-2714776,2.9488999999999996,2.45442919,0.07403678341463404,"{11: 7, 49: 2, 14: 3, 32: 2, 15: 3, 8: 24}","[8, 11, 14, 15, 32, 49]",824117143153322492,Na7In2Si3Ge2P3O24
Na7La2Si3Ge2(PO8)3,mp-2714797,2.699,2.26466912,0.123522364014228,"{11: 7, 57: 2, 14: 3, 32: 2, 15: 3, 8: 24}","[8, 11, 14, 15, 32, 57]",824117143153322572,Na7La2Si3Ge2P3O24
Na7Zr2In2Si3(PO8)3,mp-2715121,3.6567,1.90032139,0.026393113800813772,"{11: 7, 40: 2, 49: 2, 14: 3, 15: 3, 8: 24}","[8, 11, 14, 15, 40, 49]",824117143153402492,Na7Zr2In2Si3P3O24
Na7La2Zr2Si3(PO8)3,mp-2715128,4.0466999999999995,1.7035937,0.05824530081301038,"{11: 7, 57: 2, 40: 2, 14: 3, 15: 3, 8: 24}","[8, 11, 14, 15, 40, 57]",824117143153402572,Na7La2Zr2Si3P3O24
Na7NbIn3Si3(PO8)3,mp-2714923,2.449,2.1573038,0.04848009705283918,"{11: 7, 41: 1, 49: 3, 14: 3, 15: 3, 8: 24}","[8, 11, 14, 15, 41, 49]",824117143153411493,Na7Nb1In3Si3P3O24
Na7La3NbSi3(PO8)3,mp-2715072,2.463,2.01231393,0.09460722101625851,"{11: 7, 57: 3, 41: 1, 14: 3, 15: 3, 8: 24}","[8, 11, 14, 15, 41, 57]",824117143153411573,Na7La3Nb1Si3P3O24
Na7In2Si3Sn2(PO8)3,mp-2714848,2.9654000000000003,2.42622068,0.04427725943089289,"{11: 7, 49: 2, 14: 3, 50: 2, 15: 3, 8: 24}","[8, 11, 14, 15, 49, 50]",824117143153492502,Na7In2Si3Sn2P3O24
Na7Hf2In2Si3(PO8)3,mp-2714876,3.6255,1.97873041,0.01973706569105982,"{11: 7, 72: 2, 49: 2, 14: 3, 15: 3, 8: 24}","[8, 11, 14, 15, 49, 72]",824117143153492722,Na7Hf2In2Si3P3O24
Na7TaIn3Si3(PO8)3,mp-2714960,2.9397,2.40897883,0.04731856048780081,"{11: 7, 73: 1, 49: 3, 14: 3, 15: 3, 8: 24}","[8, 11, 14, 15, 49, 73]",824117143153493731,Na7Ta1In3Si3P3O24
Na7La2Si3Sn2(PO8)3,mp-2714910,2.7285,2.36483194,0.08238016471544984,"{11: 7, 57: 2, 14: 3, 50: 2, 15: 3, 8: 24}","[8, 11, 14, 15, 50, 57]",824117143153502572,Na7La2Si3Sn2P3O24
Na7La2Hf2Si3(PO8)3,mp-2714728,4.0939,1.86296587,0.05882619500000352,"{11: 7, 57: 2, 72: 2, 14: 3, 15: 3, 8: 24}","[8, 11, 14, 15, 57, 72]",824117143153572722,Na7La2Hf2Si3P3O24
Na7La3TaSi3(PO8)3,mp-2715190,3.2534,2.10488482,0.09363159201219418,"{11: 7, 57: 3, 73: 1, 14: 3, 15: 3, 8: 24}","[8, 11, 14, 15, 57, 73]",824117143153573731,Na7La3Ta1Si3P3O24
Na7CaSc3Si3(SO8)3,mp-2714165,3.7794,1.77042792,0.09401167388211462,"{11: 7, 20: 1, 21: 3, 14: 3, 16: 3, 8: 24}","[8, 11, 14, 16, 20, 21]",824117143163201213,Na7Ca1Sc3Si3S3O24
Na7CaGa3Si3(SO8)3,mp-2714210,2.6043000000000003,2.15507937,0.14698809020325498,"{11: 7, 20: 1, 31: 3, 14: 3, 16: 3, 8: 24}","[8, 11, 14, 16, 20, 31]",824117143163201313,Na7Ca1Ga3Si3S3O24
Na7CaIn3Si3(SO8)3,mp-2714260,2.3975999999999997,2.22409362,0.11503755197154941,"{11: 7, 20: 1, 49: 3, 14: 3, 16: 3, 8: 24}","[8, 11, 14, 16, 20, 49]",824117143163201493,Na7Ca1In3Si3S3O24
Na7Ca3NbSi3(SO8)3,mp-2714097,0.6838999999999997,1.95460222,0.13054605132114183,"{11: 7, 20: 3, 41: 1, 14: 3, 16: 3, 8: 24}","[8, 11, 14, 16, 20, 41]",824117143163203411,Na7Ca3Nb1Si3S3O24
Na7Ca3TaSi3(SO8)3,mp-2714034,1.4403000000000001,2.0975944,0.13133457646341018,"{11: 7, 20: 3, 73: 1, 14: 3, 16: 3, 8: 24}","[8, 11, 14, 16, 20, 73]",824117143163203731,Na7Ca3Ta1Si3S3O24
Na7Sc3ZnSi3(SO8)3,mp-2714039,3.7146999999999997,1.9269268,0.09226386493647887,"{11: 7, 21: 3, 30: 1, 14: 3, 16: 3, 8: 24}","[8, 11, 14, 16, 21, 30]",824117143163213301,Na7Sc3Zn1Si3S3O24
Na7ZnGa3Si3(SO8)3,mp-2714238,2.8533,2.3258399,0.14319186495935288,"{11: 7, 30: 1, 31: 3, 14: 3, 16: 3, 8: 24}","[8, 11, 14, 16, 30, 31]",824117143163301313,Na7Zn1Ga3Si3S3O24
Na7ZnIn3Si3(SO8)3,mp-2714121,2.6572999999999998,2.31174491,0.11647183489837865,"{11: 7, 30: 1, 49: 3, 14: 3, 16: 3, 8: 24}","[8, 11, 14, 16, 30, 49]",824117143163301493,Na7Zn1In3Si3S3O24
Na7La3ZnSi3(SO8)3,mp-2714316,3.3608,1.97666902,0.12426809575202835,"{11: 7, 57: 3, 30: 1, 14: 3, 16: 3, 8: 24}","[8, 11, 14, 16, 30, 57]",824117143163301573,Na7La3Zn1Si3S3O24
Na7NbZn3Si3(SO8)3,mp-2714104,0.7394000000000003,2.34432336,0.14800614766259912,"{11: 7, 41: 1, 30: 3, 14: 3, 16: 3, 8: 24}","[8, 11, 14, 16, 30, 41]",824117143163303411,Na7Nb1Zn3Si3S3O24
Na7TaZn3Si3(SO8)3,mp-2714282,1.4611,2.35462766,0.14549078353658462,"{11: 7, 73: 1, 30: 3, 14: 3, 16: 3, 8: 24}","[8, 11, 14, 16, 30, 73]",824117143163303731,Na7Ta1Zn3Si3S3O24
Na7U5(SiO6)4,mp-1199161,0.10139999999999993,4.89888624,0.002151520583337785,"{11: 7, 92: 5, 14: 4, 8: 24}","[8, 11, 14, 92]",824117144925,Na7U5Si4O24
Na7Sc2Nb2Si5PO24,mp-2714355,2.4091,1.72962684,0.0552641070934925,"{11: 7, 21: 2, 41: 2, 14: 5, 15: 1, 8: 24}","[8, 11, 14, 15, 21, 41]",824117145151212412,Na7Sc2Nb2Si5P1O24
Na7Sc2Ta2Si5PO24,mp-2714439,3.2636000000000003,1.92365504,0.04912823632114005,"{11: 7, 21: 2, 73: 2, 14: 5, 15: 1, 8: 24}","[8, 11, 14, 15, 21, 73]",824117145151212732,Na7Sc2Ta2Si5P1O24
Na7Ti2Si5Ge2PO24,mp-2714452,2.7123999999999997,2.12027247,0.05537841754065109,"{11: 7, 22: 2, 14: 5, 32: 2, 15: 1, 8: 24}","[8, 11, 14, 15, 22, 32]",824117145151222322,Na7Ti2Si5Ge2P1O24
Na7Zr2Ti2Si5PO24,mp-2714616,2.8689000000000004,1.75230837,0.02827123589430869,"{11: 7, 40: 2, 22: 2, 14: 5, 15: 1, 8: 24}","[8, 11, 14, 15, 22, 40]",824117145151222402,Na7Zr2Ti2Si5P1O24
Na7Ti2Si5Sn2PO24,mp-2714345,2.8394999999999997,2.20859339,0.03215388810975206,"{11: 7, 22: 2, 14: 5, 50: 2, 15: 1, 8: 24}","[8, 11, 14, 15, 22, 50]",824117145151222502,Na7Ti2Si5Sn2P1O24
Na7Hf2Ti2Si5PO24,mp-2714479,2.8282999999999996,1.75757227,0.02023772152439296,"{11: 7, 72: 2, 22: 2, 14: 5, 15: 1, 8: 24}","[8, 11, 14, 15, 22, 72]",824117145151222722,Na7Hf2Ti2Si5P1O24
Na7Ti4Si5PO24,mp-2714527,2.7003000000000004,1.98951144,0.033887263638217036,"{11: 7, 22: 4, 14: 5, 15: 1, 8: 24}","[8, 11, 14, 15, 22]",824117145151224,Na7Ti4Si5P1O24
Na7Nb2Ga2Si5PO24,mp-2714371,2.5372000000000003,1.85348343,0.0677000440853659,"{11: 7, 41: 2, 31: 2, 14: 5, 15: 1, 8: 24}","[8, 11, 14, 15, 31, 41]",824117145151312412,Na7Nb2Ga2Si5P1O24
Na7Ta2Ga2Si5PO24,mp-2714571,3.3537999999999997,1.91518075,0.059742488191053766,"{11: 7, 73: 2, 31: 2, 14: 5, 15: 1, 8: 24}","[8, 11, 14, 15, 31, 73]",824117145151312732,Na7Ta2Ga2Si5P1O24
Na7Zr2Si5Ge2PO24,mp-2714347,3.5211999999999994,1.90776096,0.054695218373980836,"{11: 7, 40: 2, 14: 5, 32: 2, 15: 1, 8: 24}","[8, 11, 14, 15, 32, 40]",824117145151322402,Na7Zr2Si5Ge2P1O24
Na7Si5Sn2Ge2PO24,mp-2714475,3.0643,2.54048401,0.05539528266260163,"{11: 7, 14: 5, 50: 2, 32: 2, 15: 1, 8: 24}","[8, 11, 14, 15, 32, 50]",824117145151322502,Na7Si5Sn2Ge2P1O24
Na7Hf2Si5Ge2PO24,mp-2714515,3.4214,2.01219101,0.04749533485772339,"{11: 7, 72: 2, 14: 5, 32: 2, 15: 1, 8: 24}","[8, 11, 14, 15, 32, 72]",824117145151322722,Na7Hf2Si5Ge2P1O24
Na7Si5Ge4PO24,mp-2714618,3.1220999999999997,2.31649442,0.07609195989837403,"{11: 7, 14: 5, 32: 4, 15: 1, 8: 24}","[8, 11, 14, 15, 32]",824117145151324,Na7Si5Ge4P1O24
Na7Zr2Si5Sn2PO24,mp-2714389,3.4810000000000003,1.77984168,0.027694541626013702,"{11: 7, 40: 2, 14: 5, 50: 2, 15: 1, 8: 24}","[8, 11, 14, 15, 40, 50]",824117145151402502,Na7Zr2Si5Sn2P1O24
Na7Hf2Zr2Si5PO24,mp-2714508,4.3247,1.46981041,0.008501422357730881,"{11: 7, 72: 2, 40: 2, 14: 5, 15: 1, 8: 24}","[8, 11, 14, 15, 40, 72]",824117145151402722,Na7Hf2Zr2Si5P1O24
Na7Zr4Si5PO24,mp-677042,4.4485,1.0194159,0.0053882733536569916,"{11: 7, 40: 4, 14: 5, 15: 1, 8: 24}","[8, 11, 14, 15, 40]",824117145151404,Na7Zr4Si5P1O24
Na7Nb2In2Si5PO24,mp-2714381,2.3247999999999998,2.11839678,0.056499040995932504,"{11: 7, 41: 2, 49: 2, 14: 5, 15: 1, 8: 24}","[8, 11, 14, 15, 41, 49]",824117145151412492,Na7Nb2In2Si5P1O24
Na7La2Nb2Si5PO24,mp-2714602,2.0638999999999994,2.24395816,0.12262422464431122,"{11: 7, 57: 2, 41: 2, 14: 5, 15: 1, 8: 24}","[8, 11, 14, 15, 41, 57]",824117145151412572,Na7La2Nb2Si5P1O24
Na7Ta2In2Si5PO24,mp-2714500,3.0939000000000005,2.18295679,0.0565802726626039,"{11: 7, 73: 2, 49: 2, 14: 5, 15: 1, 8: 24}","[8, 11, 14, 15, 49, 73]",824117145151492732,Na7Ta2In2Si5P1O24
Na7Hf2Si5Sn2PO24,mp-2714397,3.3802,2.0872333,0.017369173475611177,"{11: 7, 72: 2, 14: 5, 50: 2, 15: 1, 8: 24}","[8, 11, 14, 15, 50, 72]",824117145151502722,Na7Hf2Si5Sn2P1O24
Na7Si5Sn4PO24,mp-2714591,2.9752000000000005,2.55168504,0.03064110843495982,"{11: 7, 14: 5, 50: 4, 15: 1, 8: 24}","[8, 11, 14, 15, 50]",824117145151504,Na7Si5Sn4P1O24
Na7La2Ta2Si5PO24,mp-2714396,2.7574000000000005,2.34534222,0.12429295891260583,"{11: 7, 57: 2, 73: 2, 14: 5, 15: 1, 8: 24}","[8, 11, 14, 15, 57, 73]",824117145151572732,Na7La2Ta2Si5P1O24
Na7Hf4Si5PO24,mp-2714403,4.3583,1.53782973,0.0021722807926813914,"{11: 7, 72: 4, 14: 5, 15: 1, 8: 24}","[8, 11, 14, 15, 72]",824117145151724,Na7Hf4Si5P1O24
Na7CaNb3(SiO4)6,mp-2712957,1.9284999999999999,2.20336143,0.06235586184959363,"{11: 7, 20: 1, 41: 3, 14: 6, 8: 24}","[8, 11, 14, 20, 41]",824117146201413,Na7Ca1Nb3Si6O24
Na7CaTa3(SiO4)6,mp-2712891,2.7041000000000004,2.2347766,0.04846121426829075,"{11: 7, 20: 1, 73: 3, 14: 6, 8: 24}","[8, 11, 14, 20, 73]",824117146201733,Na7Ca1Ta3Si6O24
Na7Ti3Nb(SiO4)6,mp-2712886,2.6027000000000005,2.02217493,0.030785804146332474,"{11: 7, 22: 3, 41: 1, 14: 6, 8: 24}","[8, 11, 14, 22, 41]",824117146223411,Na7Ti3Nb1Si6O24
Na7TaTi3(SiO4)6,mp-2712878,2.5377,2.00861306,0.024526160833331367,"{11: 7, 73: 1, 22: 3, 14: 6, 8: 24}","[8, 11, 14, 22, 73]",824117146223731,Na7Ta1Ti3Si6O24
Na7Nb3Zn(SiO4)6,mp-2712832,1.7229,2.35061008,0.06083345067073154,"{11: 7, 41: 3, 30: 1, 14: 6, 8: 24}","[8, 11, 14, 30, 41]",824117146301413,Na7Nb3Zn1Si6O24
Na7Ta3Zn(SiO4)6,mp-2712904,2.5286,2.50757775,0.049678254959348855,"{11: 7, 73: 3, 30: 1, 14: 6, 8: 24}","[8, 11, 14, 30, 73]",824117146301733,Na7Ta3Zn1Si6O24
Na7NbSi6(GeO8)3,mp-2712958,2.5296999999999996,2.47012086,0.06333372595528886,"{11: 7, 41: 1, 14: 6, 32: 3, 8: 24}","[8, 11, 14, 32, 41]",824117146323411,Na7Nb1Si6Ge3O24
Na7TaSi6(GeO8)3,mp-2713084,2.9249,2.47133536,0.059410831768292205,"{11: 7, 73: 1, 14: 6, 32: 3, 8: 24}","[8, 11, 14, 32, 73]",824117146323731,Na7Ta1Si6Ge3O24
Na7Zr3Nb(SiO4)6,mp-2713025,2.7924999999999995,1.61467651,0.023916438902443993,"{11: 7, 40: 3, 41: 1, 14: 6, 8: 24}","[8, 11, 14, 40, 41]",824117146403411,Na7Zr3Nb1Si6O24
Na7Zr3Ta(SiO4)6,mp-2712824,3.6914000000000007,1.62635284,0.01866505363821691,"{11: 7, 40: 3, 73: 1, 14: 6, 8: 24}","[8, 11, 14, 40, 73]",824117146403731,Na7Zr3Ta1Si6O24
Na7NbSi6(SnO8)3,mp-2712879,2.7056999999999998,2.58359731,0.021497821524395277,"{11: 7, 41: 1, 14: 6, 50: 3, 8: 24}","[8, 11, 14, 41, 50]",824117146411503,Na7Nb1Si6Sn3O24
Na7Hf3Nb(SiO4)6,mp-2712835,2.6942000000000004,1.83305167,0.009391752012199106,"{11: 7, 72: 3, 41: 1, 14: 6, 8: 24}","[8, 11, 14, 41, 72]",824117146411723,Na7Hf3Nb1Si6O24
Na7TaSi6(SnO8)3,mp-2713052,3.0527,2.58202927,0.018472245528451836,"{11: 7, 73: 1, 14: 6, 50: 3, 8: 24}","[8, 11, 14, 50, 73]",824117146503731,Na7Ta1Si6Sn3O24
Na7Hf3Ta(SiO4)6,mp-2713077,3.675,1.76410645,0.006015236016262193,"{11: 7, 72: 3, 73: 1, 14: 6, 8: 24}","[8, 11, 14, 72, 73]",824117146723731,Na7Hf3Ta1Si6O24
Na8MgTi3Si4(PO12)2,mp-2716213,2.1894000000000005,2.26779768,0.03653771369047387,"{11: 8, 12: 1, 22: 3, 14: 4, 15: 2, 8: 24}","[8, 11, 12, 14, 15, 22]",824118121144152223,Na8Mg1Ti3Si4P2O24
Na8MgSi4Ge3(PO12)2,mp-2715567,2.1424999999999996,2.79185026,0.0760662473214273,"{11: 8, 12: 1, 14: 4, 32: 3, 15: 2, 8: 24}","[8, 11, 12, 14, 15, 32]",824118121144152323,Na8Mg1Si4Ge3P2O24
Na8MgZr3Si4(PO12)2,mp-2716237,3.3822,2.05510158,0.031529687916659555,"{11: 8, 12: 1, 40: 3, 14: 4, 15: 2, 8: 24}","[8, 11, 12, 14, 15, 40]",824118121144152403,Na8Mg1Zr3Si4P2O24
Na8MgSi4Sn3(PO12)2,mp-2715774,2.4896,2.92599508,0.03523370164682671,"{11: 8, 12: 1, 14: 4, 50: 3, 15: 2, 8: 24}","[8, 11, 12, 14, 15, 50]",824118121144152503,Na8Mg1Si4Sn3P2O24
Na8Hf3MgSi4(PO12)2,mp-2715596,4.0016,1.99715582,0.01546377887896,"{11: 8, 72: 3, 12: 1, 14: 4, 15: 2, 8: 24}","[8, 11, 12, 14, 15, 72]",824118121144152723,Na8Hf3Mg1Si4P2O24
Na8MgTi3Si5SO24,mp-2715623,2.1151999999999997,2.57900629,0.056036058710313696,"{11: 8, 12: 1, 22: 3, 14: 5, 16: 1, 8: 24}","[8, 11, 12, 14, 16, 22]",824118121145161223,Na8Mg1Ti3Si5S1O24
Na8MgSi5Ge3SO24,mp-2715713,1.6106000000000003,2.84564467,0.09721941397817524,"{11: 8, 12: 1, 14: 5, 32: 3, 16: 1, 8: 24}","[8, 11, 12, 14, 16, 32]",824118121145161323,Na8Mg1Si5Ge3S1O24
Na8MgZr3Si5SO24,mp-2715534,3.3725999999999994,2.07319192,0.04884824974206925,"{11: 8, 12: 1, 40: 3, 14: 5, 16: 1, 8: 24}","[8, 11, 12, 14, 16, 40]",824118121145161403,Na8Mg1Zr3Si5S1O24
Na8MgSi5Sn3SO24,mp-2716197,1.5768999999999997,3.24641379,0.05957789537697877,"{11: 8, 12: 1, 14: 5, 50: 3, 16: 1, 8: 24}","[8, 11, 12, 14, 16, 50]",824118121145161503,Na8Mg1Si5Sn3S1O24
Na8Hf3MgSi5SO24,mp-2716226,3.4713,2.24680659,0.04244780511904622,"{11: 8, 72: 3, 12: 1, 14: 5, 16: 1, 8: 24}","[8, 11, 12, 14, 16, 72]",824118121145161723,Na8Hf3Mg1Si5S1O24
Na8Mg2Sc2Si3(SO8)3,mp-2715038,2.5423,2.69422737,0.08983878702876691,"{11: 8, 12: 2, 21: 2, 14: 3, 16: 3, 8: 24}","[8, 11, 12, 14, 16, 21]",824118122143163212,Na8Mg2Sc2Si3S3O24
Na8Mg2Ga2Si3(SO8)3,mp-2715104,2.0781,2.96531773,0.12329991230159276,"{11: 8, 12: 2, 31: 2, 14: 3, 16: 3, 8: 24}","[8, 11, 12, 14, 16, 31]",824118122143163312,Na8Mg2Ga2Si3S3O24
Na8Mg2In2Si3(SO8)3,mp-2715216,2.0058000000000002,3.07792248,0.10300772914682632,"{11: 8, 12: 2, 49: 2, 14: 3, 16: 3, 8: 24}","[8, 11, 12, 14, 16, 49]",824118122143163492,Na8Mg2In2Si3S3O24
Na8La2Mg2Si3(SO8)3,mp-2715209,3.043,2.43016742,0.1216760200396827,"{11: 8, 57: 2, 12: 2, 14: 3, 16: 3, 8: 24}","[8, 11, 12, 14, 16, 57]",824118122143163572,Na8La2Mg2Si3S3O24
Na8Mg2Nb2Si5SO24,mp-2715716,1.6978,2.48598277,0.07859527718253378,"{11: 8, 12: 2, 41: 2, 14: 5, 16: 1, 8: 24}","[8, 11, 12, 14, 16, 41]",824118122145161412,Na8Mg2Nb2Si5S1O24
Na8Mg2Ta2Si5SO24,mp-2715618,2.5846,2.53010889,0.07480845000000258,"{11: 8, 12: 2, 73: 2, 14: 5, 16: 1, 8: 24}","[8, 11, 12, 14, 16, 73]",824118122145161732,Na8Mg2Ta2Si5S1O24
Na8Mg3TiSi3(SO8)3,mp-2715016,1.4419999999999997,2.71296826,0.09700366382936387,"{11: 8, 12: 3, 22: 1, 14: 3, 16: 3, 8: 24}","[8, 11, 12, 14, 16, 22]",824118123143163221,Na8Mg3Ti1Si3S3O24
Na8Mg3Si3Ge(SO8)3,mp-2715151,1.4009999999999998,3.03572628,0.1168742236111111,"{11: 8, 12: 3, 14: 3, 32: 1, 16: 3, 8: 24}","[8, 11, 12, 14, 16, 32]",824118123143163321,Na8Mg3Si3Ge1S3O24
Na8Mg3ZrSi3(SO8)3,mp-2714985,2.8511,2.5385599,0.09630640144840807,"{11: 8, 12: 3, 40: 1, 14: 3, 16: 3, 8: 24}","[8, 11, 12, 14, 16, 40]",824118123143163401,Na8Mg3Zr1Si3S3O24
Na8Mg3Si3Sn(SO8)3,mp-2714921,1.6402,3.06928671,0.10072108557539483,"{11: 8, 12: 3, 14: 3, 50: 1, 16: 3, 8: 24}","[8, 11, 12, 14, 16, 50]",824118123143163501,Na8Mg3Si3Sn1S3O24
Na8HfMg3Si3(SO8)3,mp-2714948,3.3045,2.53437129,0.09593634464285472,"{11: 8, 72: 1, 12: 3, 14: 3, 16: 3, 8: 24}","[8, 11, 12, 14, 16, 72]",824118123143163721,Na8Hf1Mg3Si3S3O24
Na8Ca2Sc2Si3(SO8)3,mp-2715035,2.3594000000000004,2.45256117,0.10701978360119124,"{11: 8, 20: 2, 21: 2, 14: 3, 16: 3, 8: 24}","[8, 11, 14, 16, 20, 21]",824118143163202212,Na8Ca2Sc2Si3S3O24
Na8Ca2Ga2Si3(SO8)3,mp-2714959,1.9261,2.31694086,0.1400087393849203,"{11: 8, 20: 2, 31: 2, 14: 3, 16: 3, 8: 24}","[8, 11, 14, 16, 20, 31]",824118143163202312,Na8Ca2Ga2Si3S3O24