formula,material_id,band_gap,efermi,energy_above_hull,comp_atoms,sorted_keys_comp_atoms,comp_number,new_formula
NaNb3ZnSi3(SO8)3,mp-2713738,1.1657000000000002,1.02487981,0.054426015679708506,"{11: 1, 41: 3, 30: 1, 14: 3, 16: 3, 8: 24}","[8, 11, 14, 16, 30, 41]",824111143163301413,Na1Nb3Zn1Si3S3O24
NaTa3ZnSi3(SO8)3,mp-2714020,1.6935,1.38445522,0.05214499266071204,"{11: 1, 73: 3, 30: 1, 14: 3, 16: 3, 8: 24}","[8, 11, 14, 16, 30, 73]",824111143163301733,Na1Ta3Zn1Si3S3O24
NaNbSi3Ge3(SO8)3,mp-2713842,1.7854999999999999,1.42197426,0.10725988895536531,"{11: 1, 41: 1, 14: 3, 32: 3, 16: 3, 8: 24}","[8, 11, 14, 16, 32, 41]",824111143163323411,Na1Nb1Si3Ge3S3O24
NaTaSi3Ge3(SO8)3,mp-2713765,1.9780000000000002,1.41381378,0.10217648365179599,"{11: 1, 73: 1, 14: 3, 32: 3, 16: 3, 8: 24}","[8, 11, 14, 16, 32, 73]",824111143163323731,Na1Ta1Si3Ge3S3O24
NaZr3NbSi3(SO8)3,mp-2713813,1.7739,0.69110369,0.03443990852892043,"{11: 1, 40: 3, 41: 1, 14: 3, 16: 3, 8: 24}","[8, 11, 14, 16, 40, 41]",824111143163403411,Na1Zr3Nb1Si3S3O24
NaZr3TaSi3(SO8)3,mp-2714019,2.5233000000000003,0.70011963,0.0327570675833293,"{11: 1, 40: 3, 73: 1, 14: 3, 16: 3, 8: 24}","[8, 11, 14, 16, 40, 73]",824111143163403731,Na1Zr3Ta1Si3S3O24
NaNbSi3Sn3(SO8)3,mp-2713975,1.6403999999999999,1.75257726,0.06427625009821547,"{11: 1, 41: 1, 14: 3, 50: 3, 16: 3, 8: 24}","[8, 11, 14, 16, 41, 50]",824111143163411503,Na1Nb1Si3Sn3S3O24
NaHf3NbSi3(SO8)3,mp-2714016,1.6417,0.85893889,0.02997136460034966,"{11: 1, 72: 3, 41: 1, 14: 3, 16: 3, 8: 24}","[8, 11, 14, 16, 41, 72]",824111143163411723,Na1Hf3Nb1Si3S3O24
NaTaSi3Sn3(SO8)3,mp-2714015,1.5455,1.99767641,0.06793012821725952,"{11: 1, 73: 1, 14: 3, 50: 3, 16: 3, 8: 24}","[8, 11, 14, 16, 50, 73]",824111143163503731,Na1Ta1Si3Sn3S3O24
NaHf3TaSi3(SO8)3,mp-2713832,2.2947,1.01424419,0.03150816994047467,"{11: 1, 72: 3, 73: 1, 14: 3, 16: 3, 8: 24}","[8, 11, 14, 16, 72, 73]",824111143163723731,Na1Hf3Ta1Si3S3O24
NaPr9Si6(SO12)2,mp-686572,3.1656000000000004,3.72088565,0.0,"{11: 1, 59: 9, 14: 6, 16: 2, 8: 24}","[8, 11, 14, 16, 59]",824111146162599,Na1Pr9Si6S2O24
NaSm9Si6(SO12)2,mp-686543,3.0262,3.88167696,0.0,"{11: 1, 62: 9, 14: 6, 16: 2, 8: 24}","[8, 11, 14, 16, 62]",824111146162629,Na1Sm9Si6S2O24
KNaCaCo5(SiO3)8,mp-1223618,0.8687,3.06956931,0.024670310385422667,"{19: 1, 11: 1, 20: 1, 27: 5, 14: 8, 8: 24}","[8, 11, 14, 19, 20, 27]",824111148191201275,K1Na1Ca1Co5Si8O24
KNaCa2(SiO3)8,mp-1226150,0.4556,0.39463044,0.3371540679513849,"{19: 1, 11: 1, 20: 2, 14: 8, 8: 24}","[8, 11, 14, 19, 20]",824111148191202,K1Na1Ca2Si8O24
NaCa3ScZn3(SiO3)8,mp-693463,4.2163,2.73413085,0.029447070625000293,"{11: 1, 20: 3, 21: 1, 30: 3, 14: 8, 8: 24}","[8, 11, 14, 20, 21, 30]",824111148203211303,Na1Ca3Sc1Zn3Si8O24
Na2MgTi3Si2(SO6)4,mp-2712683,1.1208999999999998,1.74271896,0.05130188758597676,"{11: 2, 12: 1, 22: 3, 14: 2, 16: 4, 8: 24}","[8, 11, 12, 14, 16, 22]",824112121142164223,Na2Mg1Ti3Si2S4O24
Na2MgSi2Ge3(SO6)4,mp-2712797,1.0402999999999998,2.41554154,0.13337105361111146,"{11: 2, 12: 1, 14: 2, 32: 3, 16: 4, 8: 24}","[8, 11, 12, 14, 16, 32]",824112121142164323,Na2Mg1Si2Ge3S4O24
Na2MgZr3Si2(SO6)4,mp-2712543,2.2099,1.49454589,0.05850669495369587,"{11: 2, 12: 1, 40: 3, 14: 2, 16: 4, 8: 24}","[8, 11, 12, 14, 16, 40]",824112121142164403,Na2Mg1Zr3Si2S4O24
Na2MgSi2Sn3(SO6)4,mp-2712569,0.4514,2.60855944,0.090150572277782,"{11: 2, 12: 1, 14: 2, 50: 3, 16: 4, 8: 24}","[8, 11, 12, 14, 16, 50]",824112121142164503,Na2Mg1Si2Sn3S4O24
Na2Hf3MgSi2(SO6)4,mp-2712724,2.8742,1.87957052,0.052191591018512895,"{11: 2, 72: 3, 12: 1, 14: 2, 16: 4, 8: 24}","[8, 11, 12, 14, 16, 72]",824112121142164723,Na2Hf3Mg1Si2S4O24
Na2Mg2Ti2SiS5O24,mp-2714609,1.1828,1.72946081,0.034534278754626335,"{11: 2, 12: 2, 22: 2, 14: 1, 16: 5, 8: 24}","[8, 11, 12, 14, 16, 22]",824112122141165222,Na2Mg2Ti2Si1S5O24
Na2Mg2SiGe2S5O24,mp-2714494,0.36050000000000004,2.3107557,0.09166743356481089,"{11: 2, 12: 2, 14: 1, 32: 2, 16: 5, 8: 24}","[8, 11, 12, 14, 16, 32]",824112122141165322,Na2Mg2Si1Ge2S5O24
Na2Mg2Zr2SiS5O24,mp-2715735,2.3194999999999997,1.63019322,0.03734601659258896,"{11: 2, 12: 2, 40: 2, 14: 1, 16: 5, 8: 24}","[8, 11, 12, 14, 16, 40]",824112122141165402,Na2Mg2Zr2Si1S5O24
Na2Mg2SiSn2S5O24,mp-2714391,0.5030000000000001,2.72778232,0.055765637620382336,"{11: 2, 12: 2, 14: 1, 50: 2, 16: 5, 8: 24}","[8, 11, 12, 14, 16, 50]",824112122141165502,Na2Mg2Si1Sn2S5O24
Na2Hf2Mg2SiS5O24,mp-2715558,2.9148,1.95236623,0.03652004496296879,"{11: 2, 72: 2, 12: 2, 14: 1, 16: 5, 8: 24}","[8, 11, 12, 14, 16, 72]",824112122141165722,Na2Hf2Mg2Si1S5O24
Na2Ca2Ti2SiS5O24,mp-2714520,1.2636000000000003,1.13331141,0.063980639513888,"{11: 2, 20: 2, 22: 2, 14: 1, 16: 5, 8: 24}","[8, 11, 14, 16, 20, 22]",824112141165202222,Na2Ca2Ti2Si1S5O24
Na2Ca2SiGe2S5O24,mp-2714421,0.18700000000000006,0.82546902,0.1371651403298575,"{11: 2, 20: 2, 14: 1, 32: 2, 16: 5, 8: 24}","[8, 11, 14, 16, 20, 32]",824112141165202322,Na2Ca2Si1Ge2S5O24
Na2Ca2Zr2SiS5O24,mp-2714489,2.0728,1.36078309,0.047008173842587375,"{11: 2, 20: 2, 40: 2, 14: 1, 16: 5, 8: 24}","[8, 11, 14, 16, 20, 40]",824112141165202402,Na2Ca2Zr2Si1S5O24
Na2Ca2SiSn2S5O24,mp-2714334,0.5984,1.64978787,0.07693428087962673,"{11: 2, 20: 2, 14: 1, 50: 2, 16: 5, 8: 24}","[8, 11, 14, 16, 20, 50]",824112141165202502,Na2Ca2Si1Sn2S5O24
Na2Ca2Hf2SiS5O24,mp-2714353,2.8873999999999995,1.43766094,0.04796542189814623,"{11: 2, 20: 2, 72: 2, 14: 1, 16: 5, 8: 24}","[8, 11, 14, 16, 20, 72]",824112141165202722,Na2Ca2Hf2Si1S5O24
Na2Sc2Ga2SiS5O24,mp-2715743,1.7425,1.69197492,0.06905500851851709,"{11: 2, 21: 2, 31: 2, 14: 1, 16: 5, 8: 24}","[8, 11, 14, 16, 21, 31]",824112141165212312,Na2Sc2Ga2Si1S5O24
Na2Sc2In2SiS5O24,mp-2714603,0.8163,2.83441001,0.043422318796295656,"{11: 2, 21: 2, 49: 2, 14: 1, 16: 5, 8: 24}","[8, 11, 14, 16, 21, 49]",824112141165212492,Na2Sc2In2Si1S5O24
Na2La2Sc2SiS5O24,mp-2715725,2.0540000000000003,1.64165752,0.06879122300346996,"{11: 2, 57: 2, 21: 2, 14: 1, 16: 5, 8: 24}","[8, 11, 14, 16, 21, 57]",824112141165212572,Na2La2Sc2Si1S5O24
Na2Sc4SiS5O24,mp-2714423,2.4401,1.54136635,0.023428835734954134,"{11: 2, 21: 4, 14: 1, 16: 5, 8: 24}","[8, 11, 14, 16, 21]",824112141165214,Na2Sc4Si1S5O24
Na2Ti2Zn2SiS5O24,mp-2714612,1.3239999999999998,1.41632409,0.04053546667824204,"{11: 2, 22: 2, 30: 2, 14: 1, 16: 5, 8: 24}","[8, 11, 14, 16, 22, 30]",824112141165222302,Na2Ti2Zn2Si1S5O24
Na2Zn2SiGe2S5O24,mp-2714557,0.2811000000000001,1.94932962,0.09411915833912143,"{11: 2, 30: 2, 14: 1, 32: 2, 16: 5, 8: 24}","[8, 11, 14, 16, 30, 32]",824112141165302322,Na2Zn2Si1Ge2S5O24
Na2Zr2Zn2SiS5O24,mp-2714615,2.6169000000000002,1.22028607,0.038631993900461126,"{11: 2, 40: 2, 30: 2, 14: 1, 16: 5, 8: 24}","[8, 11, 14, 16, 30, 40]",824112141165302402,Na2Zr2Zn2Si1S5O24
Na2Zn2SiSn2S5O24,mp-2714383,0.7900999999999998,2.23189163,0.05029014521991382,"{11: 2, 30: 2, 14: 1, 50: 2, 16: 5, 8: 24}","[8, 11, 14, 16, 30, 50]",824112141165302502,Na2Zn2Si1Sn2S5O24
Na2Hf2Zn2SiS5O24,mp-2715569,3.0599000000000003,1.57410055,0.03734550019676064,"{11: 2, 72: 2, 30: 2, 14: 1, 16: 5, 8: 24}","[8, 11, 14, 16, 30, 72]",824112141165302722,Na2Hf2Zn2Si1S5O24
Na2La2Ga2SiS5O24,mp-2715577,1.2349,1.53133163,0.12185354050926822,"{11: 2, 57: 2, 31: 2, 14: 1, 16: 5, 8: 24}","[8, 11, 14, 16, 31, 57]",824112141165312572,Na2La2Ga2Si1S5O24
Na2Ga4SiS5O24,mp-2714573,1.4901999999999997,2.37629488,0.06301833921295241,"{11: 2, 31: 4, 14: 1, 16: 5, 8: 24}","[8, 11, 14, 16, 31]",824112141165314,Na2Ga4Si1S5O24
Na2La2In2SiS5O24,mp-2715715,0.7764,2.08719585,0.08619492180555355,"{11: 2, 57: 2, 49: 2, 14: 1, 16: 5, 8: 24}","[8, 11, 14, 16, 49, 57]",824112141165492572,Na2La2In2Si1S5O24
Na2In4SiS5O24,mp-2714504,1.0368999999999997,2.50420047,0.04610615430555409,"{11: 2, 49: 4, 14: 1, 16: 5, 8: 24}","[8, 11, 14, 16, 49]",824112141165494,Na2In4Si1S5O24
Na2La4SiS5O24,mp-2714332,2.5372000000000003,1.70829997,0.05576780696759975,"{11: 2, 57: 4, 14: 1, 16: 5, 8: 24}","[8, 11, 14, 16, 57]",824112141165574,Na2La4Si1S5O24
Na2ScNb3Si2(PO6)4,mp-2715736,2.3084000000000002,0.77421783,0.019224920416583302,"{11: 2, 21: 1, 41: 3, 14: 2, 15: 4, 8: 24}","[8, 11, 14, 15, 21, 41]",824112142154211413,Na2Sc1Nb3Si2P4O24
Na2ScTa3Si2(PO6)4,mp-2715646,3.1361999999999997,1.07743094,0.012925077060186752,"{11: 2, 21: 1, 73: 3, 14: 2, 15: 4, 8: 24}","[8, 11, 14, 15, 21, 73]",824112142154211733,Na2Sc1Ta3Si2P4O24
Na2Nb3GaSi2(PO6)4,mp-2715733,2.3045,1.11316267,0.020868639884259466,"{11: 2, 41: 3, 31: 1, 14: 2, 15: 4, 8: 24}","[8, 11, 14, 15, 31, 41]",824112142154311413,Na2Nb3Ga1Si2P4O24
Na2Ta3GaSi2(PO6)4,mp-2715606,3.1294,1.20387879,0.017571773657405032,"{11: 2, 73: 3, 31: 1, 14: 2, 15: 4, 8: 24}","[8, 11, 14, 15, 31, 73]",824112142154311733,Na2Ta3Ga1Si2P4O24
Na2Nb3InSi2(PO6)4,mp-2715557,2.2767999999999997,1.03572805,0.022913594791670988,"{11: 2, 41: 3, 49: 1, 14: 2, 15: 4, 8: 24}","[8, 11, 14, 15, 41, 49]",824112142154413491,Na2Nb3In1Si2P4O24
Na2LaNb3Si2(PO6)4,mp-2715701,2.0987999999999998,1.01578623,0.05961990787030658,"{11: 2, 57: 1, 41: 3, 14: 2, 15: 4, 8: 24}","[8, 11, 14, 15, 41, 57]",824112142154413571,Na2La1Nb3Si2P4O24
Na2Ta3InSi2(PO6)4,mp-2715679,3.0549,1.25960292,0.018411260046297784,"{11: 2, 73: 3, 49: 1, 14: 2, 15: 4, 8: 24}","[8, 11, 14, 15, 49, 73]",824112142154491733,Na2Ta3In1Si2P4O24
Na2LaTa3Si2(PO6)4,mp-2715617,2.9634,1.16067152,0.0553055631018573,"{11: 2, 57: 1, 73: 3, 14: 2, 15: 4, 8: 24}","[8, 11, 14, 15, 57, 73]",824112142154571733,Na2La1Ta3Si2P4O24
Na2CaTi3Si2(SO6)4,mp-2712680,1.3551000000000002,1.34555441,0.06736702495369684,"{11: 2, 20: 1, 22: 3, 14: 2, 16: 4, 8: 24}","[8, 11, 14, 16, 20, 22]",824112142164201223,Na2Ca1Ti3Si2S4O24
Na2CaSi2Ge3(SO6)4,mp-2712678,1.2657999999999998,1.4140838,0.161950614079859,"{11: 2, 20: 1, 14: 2, 32: 3, 16: 4, 8: 24}","[8, 11, 14, 16, 20, 32]",824112142164201323,Na2Ca1Si2Ge3S4O24
Na2CaZr3Si2(SO6)4,mp-2712626,2.0847,1.36362284,0.057593910555554295,"{11: 2, 20: 1, 40: 3, 14: 2, 16: 4, 8: 24}","[8, 11, 14, 16, 20, 40]",824112142164201403,Na2Ca1Zr3Si2S4O24
Na2CaSi2Sn3(SO6)4,mp-2712819,0.3158000000000001,2.06330035,0.09659994310185027,"{11: 2, 20: 1, 14: 2, 50: 3, 16: 4, 8: 24}","[8, 11, 14, 16, 20, 50]",824112142164201503,Na2Ca1Si2Sn3S4O24
Na2CaHf3Si2(SO6)4,mp-2712798,2.8156999999999996,1.62550137,0.0572276035185153,"{11: 2, 20: 1, 72: 3, 14: 2, 16: 4, 8: 24}","[8, 11, 14, 16, 20, 72]",824112142164201723,Na2Ca1Hf3Si2S4O24
Na2Sc3NbSi2(SO6)4,mp-2712531,1.7191999999999998,1.3159374,0.05755820305555659,"{11: 2, 21: 3, 41: 1, 14: 2, 16: 4, 8: 24}","[8, 11, 14, 16, 21, 41]",824112142164213411,Na2Sc3Nb1Si2S4O24
Na2Sc3TaSi2(SO6)4,mp-2712527,2.2851999999999997,1.55308661,0.061159443611110476,"{11: 2, 21: 3, 73: 1, 14: 2, 16: 4, 8: 24}","[8, 11, 14, 16, 21, 73]",824112142164213731,Na2Sc3Ta1Si2S4O24
Na2Ti3ZnSi2(SO6)4,mp-2712684,1.1447,1.5747612,0.05782993297453842,"{11: 2, 22: 3, 30: 1, 14: 2, 16: 4, 8: 24}","[8, 11, 14, 16, 22, 30]",824112142164223301,Na2Ti3Zn1Si2S4O24
Na2ZnSi2Ge3(SO6)4,mp-2712603,0.6780999999999999,1.95074386,0.12833740905671487,"{11: 2, 30: 1, 14: 2, 32: 3, 16: 4, 8: 24}","[8, 11, 14, 16, 30, 32]",824112142164301323,Na2Zn1Si2Ge3S4O24
Na2Zr3ZnSi2(SO6)4,mp-2712596,2.4907,1.31685112,0.04946502611110759,"{11: 2, 40: 3, 30: 1, 14: 2, 16: 4, 8: 24}","[8, 11, 14, 16, 30, 40]",824112142164301403,Na2Zr3Zn1Si2S4O24
Na2ZnSi2Sn3(SO6)4,mp-2712815,0.7206000000000001,2.34701059,0.08202956515046989,"{11: 2, 30: 1, 14: 2, 50: 3, 16: 4, 8: 24}","[8, 11, 14, 16, 30, 50]",824112142164301503,Na2Zn1Si2Sn3S4O24
Na2Hf3ZnSi2(SO6)4,mp-2712592,3.0660000000000003,1.58638215,0.044215715740743455,"{11: 2, 72: 3, 30: 1, 14: 2, 16: 4, 8: 24}","[8, 11, 14, 16, 30, 72]",824112142164301723,Na2Hf3Zn1Si2S4O24
Na2NbGa3Si2(SO6)4,mp-2712620,1.7502000000000002,1.602575,0.07661672949073761,"{11: 2, 41: 1, 31: 3, 14: 2, 16: 4, 8: 24}","[8, 11, 14, 16, 31, 41]",824112142164313411,Na2Nb1Ga3Si2S4O24
Na2TaGa3Si2(SO6)4,mp-2712663,2.2565999999999997,1.76083937,0.07264146555555584,"{11: 2, 73: 1, 31: 3, 14: 2, 16: 4, 8: 24}","[8, 11, 14, 16, 31, 73]",824112142164313731,Na2Ta1Ga3Si2S4O24
Na2NbIn3Si2(SO6)4,mp-2712725,1.6269999999999998,1.93117279,0.06897086310185152,"{11: 2, 41: 1, 49: 3, 14: 2, 16: 4, 8: 24}","[8, 11, 14, 16, 41, 49]",824112142164411493,Na2Nb1In3Si2S4O24
Na2La3NbSi2(SO6)4,mp-2712664,1.7759999999999998,1.44280451,0.10938996722222694,"{11: 2, 57: 3, 41: 1, 14: 2, 16: 4, 8: 24}","[8, 11, 14, 16, 41, 57]",824112142164411573,Na2La3Nb1Si2S4O24
Na2TaIn3Si2(SO6)4,mp-2712554,1.8073,2.17068608,0.06907088314814835,"{11: 2, 73: 1, 49: 3, 14: 2, 16: 4, 8: 24}","[8, 11, 14, 16, 49, 73]",824112142164493731,Na2Ta1In3Si2S4O24
Na2La3TaSi2(SO6)4,mp-2712523,2.5694,1.51439615,0.10985221243055676,"{11: 2, 57: 3, 73: 1, 14: 2, 16: 4, 8: 24}","[8, 11, 14, 16, 57, 73]",824112142164573731,Na2La3Ta1Si2S4O24
Na2Sc2Nb2Si3(SO8)3,mp-2713905,0.5029000000000001,1.47945915,0.09533584667328299,"{11: 2, 21: 2, 41: 2, 14: 3, 16: 3, 8: 24}","[8, 11, 14, 16, 21, 41]",824112143163212412,Na2Sc2Nb2Si3S3O24
Na2Sc2Ta2Si3(SO8)3,mp-2713443,1.3065,1.57239283,0.0955357989351846,"{11: 2, 21: 2, 73: 2, 14: 3, 16: 3, 8: 24}","[8, 11, 14, 16, 21, 73]",824112143163212732,Na2Sc2Ta2Si3S3O24
Na2Ti2Si3Ge2(SO8)3,mp-2713413,1.4446999999999999,1.8180654,0.10489210821759798,"{11: 2, 22: 2, 14: 3, 32: 2, 16: 3, 8: 24}","[8, 11, 14, 16, 22, 32]",824112143163222322,Na2Ti2Si3Ge2S3O24
Na2Zr2Ti2Si3(SO8)3,mp-2713397,1.3031,1.35928763,0.047303142199070614,"{11: 2, 40: 2, 22: 2, 14: 3, 16: 3, 8: 24}","[8, 11, 14, 16, 22, 40]",824112143163222402,Na2Zr2Ti2Si3S3O24
Na2Ti2Si3Sn2(SO8)3,mp-2713400,1.6570999999999998,1.96255925,0.07529121118056015,"{11: 2, 22: 2, 14: 3, 50: 2, 16: 3, 8: 24}","[8, 11, 14, 16, 22, 50]",824112143163222502,Na2Ti2Si3Sn2S3O24
Na2Hf2Ti2Si3(SO8)3,mp-2713805,2.4542,1.24135881,0.036813124583336077,"{11: 2, 72: 2, 22: 2, 14: 3, 16: 3, 8: 24}","[8, 11, 14, 16, 22, 72]",824112143163222722,Na2Hf2Ti2Si3S3O24
Na2Ti4Si3(SO8)3,mp-2713431,1.483,1.45546501,0.045092877430555234,"{11: 2, 22: 4, 14: 3, 16: 3, 8: 24}","[8, 11, 14, 16, 22]",824112143163224,Na2Ti4Si3S3O24
Na2Nb2Ga2Si3(SO8)3,mp-2713822,0.7632000000000001,1.71216595,0.08893420333994762,"{11: 2, 41: 2, 31: 2, 14: 3, 16: 3, 8: 24}","[8, 11, 14, 16, 31, 41]",824112143163312412,Na2Nb2Ga2Si3S3O24
Na2Ta2Ga2Si3(SO8)3,mp-2713370,1.2778000000000003,2.01890043,0.08623937291666728,"{11: 2, 73: 2, 31: 2, 14: 3, 16: 3, 8: 24}","[8, 11, 14, 16, 31, 73]",824112143163312732,Na2Ta2Ga2Si3S3O24
Na2Zr2Si3Ge2(SO8)3,mp-2713816,1.0713,1.60390259,0.11226825351852376,"{11: 2, 40: 2, 14: 3, 32: 2, 16: 3, 8: 24}","[8, 11, 14, 16, 32, 40]",824112143163322402,Na2Zr2Si3Ge2S3O24
Na2Si3Sn2Ge2(SO8)3,mp-2713815,0.7512000000000003,2.58944289,0.1271022187210642,"{11: 2, 14: 3, 50: 2, 32: 2, 16: 3, 8: 24}","[8, 11, 14, 16, 32, 50]",824112143163322502,Na2Si3Sn2Ge2S3O24
Na2Hf2Si3Ge2(SO8)3,mp-2713204,2.4025000000000003,1.55539767,0.09594893212963118,"{11: 2, 72: 2, 14: 3, 32: 2, 16: 3, 8: 24}","[8, 11, 14, 16, 32, 72]",824112143163322722,Na2Hf2Si3Ge2S3O24
Na2Si3Ge4(SO8)3,mp-2713185,1.2127,2.34953661,0.13941056477430713,"{11: 2, 14: 3, 32: 4, 16: 3, 8: 24}","[8, 11, 14, 16, 32]",824112143163324,Na2Si3Ge4S3O24
Na2Zr2Si3Sn2(SO8)3,mp-2713412,1.1999000000000002,1.87207372,0.07271129731482073,"{11: 2, 40: 2, 14: 3, 50: 2, 16: 3, 8: 24}","[8, 11, 14, 16, 40, 50]",824112143163402502,Na2Zr2Si3Sn2S3O24
Na2Hf2Zr2Si3(SO8)3,mp-2713182,3.223,1.21597899,0.03725073416666902,"{11: 2, 72: 2, 40: 2, 14: 3, 16: 3, 8: 24}","[8, 11, 14, 16, 40, 72]",824112143163402722,Na2Hf2Zr2Si3S3O24
Na2Zr4Si3(SO8)3,mp-2713427,2.3440999999999996,1.09841399,0.040781483796290985,"{11: 2, 40: 4, 14: 3, 16: 3, 8: 24}","[8, 11, 14, 16, 40]",824112143163404,Na2Zr4Si3S3O24
Na2Nb2In2Si3(SO8)3,mp-2713803,0.5621999999999998,1.77044124,0.10305314389550269,"{11: 2, 41: 2, 49: 2, 14: 3, 16: 3, 8: 24}","[8, 11, 14, 16, 41, 49]",824112143163412492,Na2Nb2In2Si3S3O24
Na2La2Nb2Si3(SO8)3,mp-2713390,1.0015,1.15207898,0.18032557037698282,"{11: 2, 57: 2, 41: 2, 14: 3, 16: 3, 8: 24}","[8, 11, 14, 16, 41, 57]",824112143163412572,Na2La2Nb2Si3S3O24
Na2Hf2Si3Sn2(SO8)3,mp-2713196,2.0460000000000003,2.05725247,0.07005331629630085,"{11: 2, 72: 2, 14: 3, 50: 2, 16: 3, 8: 24}","[8, 11, 14, 16, 50, 72]",824112143163502722,Na2Hf2Si3Sn2S3O24
Na2Si3Sn4(SO8)3,mp-2713485,0.7544999999999997,2.49873114,0.08998159723957677,"{11: 2, 14: 3, 50: 4, 16: 3, 8: 24}","[8, 11, 14, 16, 50]",824112143163504,Na2Si3Sn4S3O24
Na2La2Ta2Si3(SO8)3,mp-2713502,1.8445999999999998,1.20511306,0.18777719134259474,"{11: 2, 57: 2, 73: 2, 14: 3, 16: 3, 8: 24}","[8, 11, 14, 16, 57, 73]",824112143163572732,Na2La2Ta2Si3S3O24
Na2Hf4Si3(SO8)3,mp-2713424,3.1928,1.35579544,0.032534554814811045,"{11: 2, 72: 4, 14: 3, 16: 3, 8: 24}","[8, 11, 14, 16, 72]",824112143163724,Na2Hf4Si3S3O24
Na2ScNb3Si4(SO12)2,mp-2715541,1.8646,0.98261224,0.06464003121693196,"{11: 2, 21: 1, 41: 3, 14: 4, 16: 2, 8: 24}","[8, 11, 14, 16, 21, 41]",824112144162211413,Na2Sc1Nb3Si4S2O24
Na2ScTa3Si4(SO12)2,mp-2715666,2.4749,1.3117599,0.05574943583332903,"{11: 2, 21: 1, 73: 3, 14: 4, 16: 2, 8: 24}","[8, 11, 14, 16, 21, 73]",824112144162211733,Na2Sc1Ta3Si4S2O24
Na2Nb3GaSi4(SO12)2,mp-2715698,1.9232,1.09961592,0.060807187374339655,"{11: 2, 41: 3, 31: 1, 14: 4, 16: 2, 8: 24}","[8, 11, 14, 16, 31, 41]",824112144162311413,Na2Nb3Ga1Si4S2O24
Na2Ta3GaSi4(SO12)2,mp-2715649,2.6281,1.34258607,0.04909106305555433,"{11: 2, 73: 3, 31: 1, 14: 4, 16: 2, 8: 24}","[8, 11, 14, 16, 31, 73]",824112144162311733,Na2Ta3Ga1Si4S2O24
Na2Nb3InSi4(SO12)2,mp-2715579,1.9359000000000002,1.070397,0.06423086339286144,"{11: 2, 41: 3, 49: 1, 14: 4, 16: 2, 8: 24}","[8, 11, 14, 16, 41, 49]",824112144162413491,Na2Nb3In1Si4S2O24
Na2LaNb3Si4(SO12)2,mp-2715600,1.9554999999999998,0.88101932,0.09790894992063492,"{11: 2, 57: 1, 41: 3, 14: 4, 16: 2, 8: 24}","[8, 11, 14, 16, 41, 57]",824112144162413571,Na2La1Nb3Si4S2O24
Na2Ta3InSi4(SO12)2,mp-2715668,2.6287,1.23590887,0.05309713148148454,"{11: 2, 73: 3, 49: 1, 14: 4, 16: 2, 8: 24}","[8, 11, 14, 16, 49, 73]",824112144162491733,Na2Ta3In1Si4S2O24
Na2LaTa3Si4(SO12)2,mp-2715806,2.3928000000000003,1.1827802,0.09801541467592756,"{11: 2, 57: 1, 73: 3, 14: 4, 16: 2, 8: 24}","[8, 11, 14, 16, 57, 73]",824112144162571733,Na2La1Ta3Si4S2O24
Na2Ta2Nb2Si5SO24,mp-2713463,2.1679,1.0474972,0.02765475734788403,"{11: 2, 73: 2, 41: 2, 14: 5, 16: 1, 8: 24}","[8, 11, 14, 16, 41, 73]",824112145161412732,Na2Ta2Nb2Si5S1O24
Na2Nb4Si5SO24,mp-2713479,2.1858,1.00364952,0.041352627890212545,"{11: 2, 41: 4, 14: 5, 16: 1, 8: 24}","[8, 11, 14, 16, 41]",824112145161414,Na2Nb4Si5S1O24
Na2Ta4Si5SO24,mp-2713385,2.9768000000000003,1.25614202,0.018959613287035992,"{11: 2, 73: 4, 14: 5, 16: 1, 8: 24}","[8, 11, 14, 16, 73]",824112145161734,Na2Ta4Si5S1O24
KNa2Tb(SiO3)8,mp-1198876,0.05930000000000002,0.39379373,0.4092680742013943,"{19: 1, 11: 2, 65: 1, 14: 8, 8: 24}","[8, 11, 14, 19, 65]",824112148191651,K1Na2Tb1Si8O24
Na3CaMgCr3(SiO3)8,mp-1221259,3.1858,2.92684015,0.0014431553749902903,"{11: 3, 20: 1, 12: 1, 24: 3, 14: 8, 8: 24}","[8, 11, 12, 14, 20, 24]",824113121148201243,Na3Ca1Mg1Cr3Si8O24
Na3Sc2Nb2SiP5O24,mp-2713057,2.2919,1.01087172,0.03205484585585516,"{11: 3, 21: 2, 41: 2, 14: 1, 15: 5, 8: 24}","[8, 11, 14, 15, 21, 41]",824113141155212412,Na3Sc2Nb2Si1P5O24
Na3Sc2Ta2SiP5O24,mp-2713058,3.0478,1.20655088,0.035733781711714485,"{11: 3, 21: 2, 73: 2, 14: 1, 15: 5, 8: 24}","[8, 11, 14, 15, 21, 73]",824113141155212732,Na3Sc2Ta2Si1P5O24
Na3Ti2SiGe2P5O24,mp-2713112,2.5302999999999995,1.62277143,0.04952184396396664,"{11: 3, 22: 2, 14: 1, 32: 2, 15: 5, 8: 24}","[8, 11, 14, 15, 22, 32]",824113141155222322,Na3Ti2Si1Ge2P5O24
Na3Zr2Ti2SiP5O24,mp-2713060,2.5772999999999997,1.09739256,0.021871844618019054,"{11: 3, 40: 2, 22: 2, 14: 1, 15: 5, 8: 24}","[8, 11, 14, 15, 22, 40]",824113141155222402,Na3Zr2Ti2Si1P5O24
Na3Ti2SiSn2P5O24,mp-2712985,2.5008999999999997,1.74401751,0.021300568549546206,"{11: 3, 22: 2, 14: 1, 50: 2, 15: 5, 8: 24}","[8, 11, 14, 15, 22, 50]",824113141155222502,Na3Ti2Si1Sn2P5O24
Na3Hf2Ti2SiP5O24,mp-2713024,2.5068,1.20726621,0.020794866915313293,"{11: 3, 72: 2, 22: 2, 14: 1, 15: 5, 8: 24}","[8, 11, 14, 15, 22, 72]",824113141155222722,Na3Hf2Ti2Si1P5O24