formula,material_id,band_gap,efermi,energy_above_hull,comp_atoms,sorted_keys_comp_atoms,comp_number,new_formula
Sr2NbCoO6,mp-1218740,1.5007000000000001,2.56030472,0.007444154000028291,"{38: 2, 41: 1, 27: 1, 8: 6}","[8, 27, 38, 41]",86271382411,Sr2Nb1Co1O6
Sr2CoMoO6,mp-510546,0.0,4.05367274,0.0,"{38: 2, 27: 1, 42: 1, 8: 6}","[8, 27, 38, 42]",86271382421,Sr2Co1Mo1O6
Sr2CoRuO6,mp-1218846,0.0,3.45825546,0.03416103499999412,"{38: 2, 27: 1, 44: 1, 8: 6}","[8, 27, 38, 44]",86271382441,Sr2Co1Ru1O6
Sr2CoSbO6,mp-1218837,0.6470000000000002,3.50769144,0.007824560000019076,"{38: 2, 27: 1, 51: 1, 8: 6}","[8, 27, 38, 51]",86271382511,Sr2Co1Sb1O6
Sr2CoTeO6,mp-561642,1.5099999999999998,4.01083871,0.0,"{38: 2, 27: 1, 52: 1, 8: 6}","[8, 27, 38, 52]",86271382521,Sr2Co1Te1O6
Sr2LaCoO6,mp-1080670,0.0,3.26006532,0.17010349866667163,"{38: 2, 57: 1, 27: 1, 8: 6}","[8, 27, 38, 57]",86271382571,Sr2La1Co1O6
Sr2CeCoO6,mp-1516664,0.0,3.38009275,0.10636239819999105,"{38: 2, 58: 1, 27: 1, 8: 6}","[8, 27, 38, 58]",86271382581,Sr2Ce1Co1O6
Sr2PrCoO6,mp-1517407,0.0,2.40527351,0.1722626184791709,"{38: 2, 59: 1, 27: 1, 8: 6}","[8, 27, 38, 59]",86271382591,Sr2Pr1Co1O6
Sr2TbCoO6,mp-1517177,0.0,2.33404391,0.10960949897916628,"{38: 2, 65: 1, 27: 1, 8: 6}","[8, 27, 38, 65]",86271382651,Sr2Tb1Co1O6
Sr2HfCoO6,mp-1517280,0.0,2.69812083,0.10766115831451373,"{38: 2, 72: 1, 27: 1, 8: 6}","[8, 27, 38, 72]",86271382721,Sr2Hf1Co1O6
Sr2TaCoO6,mp-1283831,1.6183000000000005,4.36952775,0.0,"{38: 2, 73: 1, 27: 1, 8: 6}","[8, 27, 38, 73]",86271382731,Sr2Ta1Co1O6
Sr2CoWO6,mp-1274308,2.0256000000000003,3.13179124,0.0,"{38: 2, 27: 1, 74: 1, 8: 6}","[8, 27, 38, 74]",86271382741,Sr2Co1W1O6
Sr2CoReO6,mp-561870,0.0,4.65916888,0.039462350833331605,"{38: 2, 27: 1, 75: 1, 8: 6}","[8, 27, 38, 75]",86271382751,Sr2Co1Re1O6
Sr2CoOsO6,mp-1079403,0.0,4.08051246,0.0,"{38: 2, 27: 1, 76: 1, 8: 6}","[8, 27, 38, 76]",86271382761,Sr2Co1Os1O6
Sr2CoBiO6,mp-1519628,0.0,3.31683513,0.16138667158697917,"{38: 2, 27: 1, 83: 1, 8: 6}","[8, 27, 38, 83]",86271382831,Sr2Co1Bi1O6
Sr2UCoO6,mp-22415,0.0,4.63477697,0.13907674625000688,"{38: 2, 92: 1, 27: 1, 8: 6}","[8, 27, 38, 92]",86271382921,Sr2U1Co1O6
Sr3CoRuO6,mp-1284324,0.15159999999999973,3.95159855,0.0,"{38: 3, 27: 1, 44: 1, 8: 6}","[8, 27, 38, 44]",86271383441,Sr3Co1Ru1O6
BaSr(CoO3)2,mp-1205807,0.0,2.18808566,0.025014695666668807,"{56: 1, 38: 1, 27: 2, 8: 6}","[8, 27, 38, 56]",86272381561,Ba1Sr1Co2O6
SrLa(CoO3)2,mp-1218224,0.0,5.57270865,0.10761178745160649,"{38: 1, 57: 1, 27: 2, 8: 6}","[8, 27, 38, 57]",86272381571,Sr1La1Co2O6
SrPr(CoO3)2,mp-1218091,0.0,3.2607819,0.01171612576410741,"{38: 1, 59: 1, 27: 2, 8: 6}","[8, 27, 38, 59]",86272381591,Sr1Pr1Co2O6
SrNd(CoO3)2,mp-1218211,0.0,3.72639571,0.10659607247581704,"{38: 1, 60: 1, 27: 2, 8: 6}","[8, 27, 38, 60]",86272381601,Sr1Nd1Co2O6
SrEu(CoO3)2,mp-1218310,0.0,3.35530898,0.14430795582660405,"{38: 1, 63: 1, 27: 2, 8: 6}","[8, 27, 38, 63]",86272381631,Sr1Eu1Co2O6
SrGd(CoO3)2,mp-1218287,0.0,3.90357208,0.46832880907660623,"{38: 1, 64: 1, 27: 2, 8: 6}","[8, 27, 38, 64]",86272381641,Sr1Gd1Co2O6
Sr3(CoO3)2,mp-1192011,1.3059000000000003,2.98232977,0.0,"{38: 3, 27: 2, 8: 6}","[8, 27, 38]",86272383,Sr3Co2O6
SrCu(SeO3)2,mp-9640,0.3056000000000001,1.88653879,0.0,"{38: 1, 29: 1, 34: 2, 8: 6}","[8, 29, 34, 38]",86291342381,Sr1Cu1Se2O6
SrLaCuRuO6,mp-1173178,0.013700000000000045,5.16070344,0.01869941416666787,"{38: 1, 57: 1, 29: 1, 44: 1, 8: 6}","[8, 29, 38, 44, 57]",86291381441571,Sr1La1Cu1Ru1O6
SrLaCuSbO6,mp-1218225,0.3682999999999996,5.5613323,0.055760611624997125,"{38: 1, 57: 1, 29: 1, 51: 1, 8: 6}","[8, 29, 38, 51, 57]",86291381511571,Sr1La1Cu1Sb1O6
SrCu(TeO3)2,mp-557970,0.0,3.84625086,0.011442679166675518,"{38: 1, 29: 1, 52: 2, 8: 6}","[8, 29, 38, 52]",86291381522,Sr1Cu1Te2O6
BaSrCuBiO6,mp-1519172,0.0,3.19012788,0.05927496459374826,"{56: 1, 38: 1, 29: 1, 83: 1, 8: 6}","[8, 29, 38, 56, 83]",86291381561831,Ba1Sr1Cu1Bi1O6
SrEuCuBiO6,mp-1517598,0.0,4.00906683,0.21307037981249888,"{38: 1, 63: 1, 29: 1, 83: 1, 8: 6}","[8, 29, 38, 63, 83]",86291381631831,Sr1Eu1Cu1Bi1O6
Sr2NbCuO6,mp-1516290,0.0,3.037822,0.05618457599999882,"{38: 2, 41: 1, 29: 1, 8: 6}","[8, 29, 38, 41]",86291382411,Sr2Nb1Cu1O6
Sr2CuMoO6,mp-1079351,0.0,3.62285516,0.06795379149999636,"{38: 2, 29: 1, 42: 1, 8: 6}","[8, 29, 38, 42]",86291382421,Sr2Cu1Mo1O6
Sr2CuSbO6,mp-1517843,0.0,3.92177968,0.0825313139999988,"{38: 2, 29: 1, 51: 1, 8: 6}","[8, 29, 38, 51]",86291382511,Sr2Cu1Sb1O6
Sr2CuTeO6,mp-6252,0.21980000000000022,4.37031391,0.0331624073750012,"{38: 2, 29: 1, 52: 1, 8: 6}","[8, 29, 38, 52]",86291382521,Sr2Cu1Te1O6
Sr2CuWO6,mp-510294,0.0,3.33130248,0.0399085831999999,"{38: 2, 29: 1, 74: 1, 8: 6}","[8, 29, 38, 74]",86291382741,Sr2Cu1W1O6
Sr2CuOsO6,mp-546295,0.0,4.08069407,0.0,"{38: 2, 29: 1, 76: 1, 8: 6}","[8, 29, 38, 76]",86291382761,Sr2Cu1Os1O6
Sr2CuBiO6,mp-1520951,0.0,3.51839556,0.06437478041666456,"{38: 2, 29: 1, 83: 1, 8: 6}","[8, 29, 38, 83]",86291382831,Sr2Cu1Bi1O6
Sr2Cu(BiO3)2,mp-555827,0.0,4.73325123,0.058785784545457354,"{38: 2, 29: 1, 83: 2, 8: 6}","[8, 29, 38, 83]",86291382832,Sr2Cu1Bi2O6
Sr3CuRhO6,mp-18444,0.0,3.26403646,0.0009307129545428339,"{38: 3, 29: 1, 45: 1, 8: 6}","[8, 29, 38, 45]",86291383451,Sr3Cu1Rh1O6
Sr3CuIrO6,mp-504867,0.0,3.83592522,0.0,"{38: 3, 29: 1, 77: 1, 8: 6}","[8, 29, 38, 77]",86291383771,Sr3Cu1Ir1O6
Sr3CuPtO6,mp-6595,0.0,3.6572118,0.0,"{38: 3, 29: 1, 78: 1, 8: 6}","[8, 29, 38, 78]",86291383781,Sr3Cu1Pt1O6
Sr2Cu2Te(BrO3)2,mp-555814,0.012499999999999734,2.6156217,0.023781883153850103,"{38: 2, 29: 2, 52: 1, 35: 2, 8: 6}","[8, 29, 35, 38, 52]",86292352382521,Sr2Cu2Te1Br2O6
SrLaNd(CuO3)2,mp-1218164,0.0,5.0523362,0.06474709666666101,"{38: 1, 57: 1, 60: 1, 29: 2, 8: 6}","[8, 29, 38, 57, 60]",86292381571601,Sr1La1Nd1Cu2O6
SrLa2(CuO3)2,mp-1218240,0.0,6.11124409,0.04040471772726839,"{38: 1, 57: 2, 29: 2, 8: 6}","[8, 29, 38, 57]",86292381572,Sr1La2Cu2O6
SrNd2(CuO3)2,mp-1218190,0.0,4.25626186,0.05831898363635801,"{38: 1, 60: 2, 29: 2, 8: 6}","[8, 29, 38, 60]",86292381602,Sr1Nd2Cu2O6
Sr2LaCu2HgO6,mp-1208803,0.0,4.69351851,0.10426924833333473,"{38: 2, 57: 1, 29: 2, 80: 1, 8: 6}","[8, 29, 38, 57, 80]",86292382571801,Sr2La1Cu2Hg1O6
BaSrSm(CuO2)3,mp-1227431,0.0,3.24114048,0.026395600708348788,"{56: 1, 38: 1, 62: 1, 29: 3, 8: 6}","[8, 29, 38, 56, 62]",86293381561621,Ba1Sr1Sm1Cu3O6
SrZn(SeO3)2,mp-555691,4.3754,0.40413948,0.0,"{38: 1, 30: 1, 34: 2, 8: 6}","[8, 30, 34, 38]",86301342381,Sr1Zn1Se2O6
SrLaNbZnO6,mp-41918,2.3728999999999996,4.34540638,0.12546686674999918,"{38: 1, 57: 1, 41: 1, 30: 1, 8: 6}","[8, 30, 38, 41, 57]",86301381411571,Sr1La1Nb1Zn1O6
SrLaZnRuO6,mp-1218204,0.47170000000000023,5.11356639,0.0015352006666775608,"{38: 1, 57: 1, 30: 1, 44: 1, 8: 6}","[8, 30, 38, 44, 57]",86301381441571,Sr1La1Zn1Ru1O6
SrPrZnRuO6,mp-1218068,0.0,3.66196074,0.0,"{38: 1, 59: 1, 30: 1, 44: 1, 8: 6}","[8, 30, 38, 44, 59]",86301381441591,Sr1Pr1Zn1Ru1O6
SrNdZnRuO6,mp-1218066,0.0,3.63415684,0.0032114118333286257,"{38: 1, 60: 1, 30: 1, 44: 1, 8: 6}","[8, 30, 38, 44, 60]",86301381441601,Sr1Nd1Zn1Ru1O6
SrZnSnWO6,mp-1517877,2.9475000000000002,3.45166676,0.1450750459999961,"{38: 1, 30: 1, 50: 1, 74: 1, 8: 6}","[8, 30, 38, 50, 74]",86301381501741,Sr1Zn1Sn1W1O6
BaSrZnWO6,mp-1227377,3.3966000000000003,2.32807066,0.019826625999999514,"{56: 1, 38: 1, 30: 1, 74: 1, 8: 6}","[8, 30, 38, 56, 74]",86301381561741,Ba1Sr1Zn1W1O6
SrPrZnBiO6,mp-1522142,0.0,3.65447141,0.19684205550000478,"{38: 1, 59: 1, 30: 1, 83: 1, 8: 6}","[8, 30, 38, 59, 83]",86301381591831,Sr1Pr1Zn1Bi1O6
SrEuZnWO6,mp-1519428,0.49570000000000025,5.28054914,0.06864030699999546,"{38: 1, 63: 1, 30: 1, 74: 1, 8: 6}","[8, 30, 38, 63, 74]",86301381631741,Sr1Eu1Zn1W1O6
SrEuZnBiO6,mp-1517942,0.0,2.91038003,0.22939025162498616,"{38: 1, 63: 1, 30: 1, 83: 1, 8: 6}","[8, 30, 38, 63, 83]",86301381631831,Sr1Eu1Zn1Bi1O6
Sr2ZnMoO6,mp-1079971,2.4361,2.68058793,0.010877846000004077,"{38: 2, 30: 1, 42: 1, 8: 6}","[8, 30, 38, 42]",86301382421,Sr2Zn1Mo1O6
Sr2ZnWO6,mp-1195362,3.5827000000000004,2.0649635,0.0034979632499965163,"{38: 2, 30: 1, 74: 1, 8: 6}","[8, 30, 38, 74]",86301382741,Sr2Zn1W1O6
Sr2ZnReO6,mp-559614,0.0,4.54697413,0.04114814126666122,"{38: 2, 30: 1, 75: 1, 8: 6}","[8, 30, 38, 75]",86301382751,Sr2Zn1Re1O6
Sr2UZnO6,mp-554059,1.8031000000000001,3.13367241,0.05400626300000777,"{38: 2, 92: 1, 30: 1, 8: 6}","[8, 30, 38, 92]",86301382921,Sr2U1Zn1O6
Sr3ZnRhO6,mp-18330,0.0,3.00049496,0.0,"{38: 3, 30: 1, 45: 1, 8: 6}","[8, 30, 38, 45]",86301383451,Sr3Zn1Rh1O6
Sr3ZnIrO6,mp-6723,0.0,3.70247607,0.0,"{38: 3, 30: 1, 77: 1, 8: 6}","[8, 30, 38, 77]",86301383771,Sr3Zn1Ir1O6
Sr3ZnPtO6,mp-6730,2.5660999999999996,3.00092914,0.0,"{38: 3, 30: 1, 78: 1, 8: 6}","[8, 30, 38, 78]",86301383781,Sr3Zn1Pt1O6
SrEuNbGaO6,mp-1518126,0.30710000000000015,5.48328013,0.03267407872221639,"{38: 1, 63: 1, 41: 1, 31: 1, 8: 6}","[8, 31, 38, 41, 63]",86311381411631,Sr1Eu1Nb1Ga1O6
SrInGaWO6,mp-1520202,0.9516999999999998,5.55222162,0.19683018981250733,"{38: 1, 49: 1, 31: 1, 74: 1, 8: 6}","[8, 31, 38, 49, 74]",86311381491741,Sr1In1Ga1W1O6
BaSrGaBiO6,mp-1521803,0.0,3.0456353,0.0577119571249991,"{56: 1, 38: 1, 31: 1, 83: 1, 8: 6}","[8, 31, 38, 56, 83]",86311381561831,Ba1Sr1Ga1Bi1O6
SrEuGaBiO6,mp-1520538,0.0,4.17426299,0.2249075875000015,"{38: 1, 63: 1, 31: 1, 83: 1, 8: 6}","[8, 31, 38, 63, 83]",86311381631831,Sr1Eu1Ga1Bi1O6
Sr2NbGaO6,mp-1205677,3.2457,2.64929287,0.008673644375008394,"{38: 2, 41: 1, 31: 1, 8: 6}","[8, 31, 38, 41]",86311382411,Sr2Nb1Ga1O6
Sr2GaSbO6,mp-6304,1.2913999999999999,3.74374365,0.026484868750002555,"{38: 2, 31: 1, 51: 1, 8: 6}","[8, 31, 38, 51]",86311382511,Sr2Ga1Sb1O6
Sr2TaGaO6,mp-12427,4.0418,2.66927386,0.0,"{38: 2, 73: 1, 31: 1, 8: 6}","[8, 31, 38, 73]",86311382731,Sr2Ta1Ga1O6
Sr2GaReO6,mp-1206618,0.22779999999999934,5.07259559,0.08304096933750227,"{38: 2, 31: 1, 75: 1, 8: 6}","[8, 31, 38, 75]",86311382751,Sr2Ga1Re1O6
Sr2GaOsO6,mp-1207126,0.20730000000000004,4.71193316,0.03254310130113858,"{38: 2, 31: 1, 76: 1, 8: 6}","[8, 31, 38, 76]",86311382761,Sr2Ga1Os1O6
Sr2GaBiO6,mp-1523254,0.0,3.15895319,0.06965358049999804,"{38: 2, 31: 1, 83: 1, 8: 6}","[8, 31, 38, 83]",86311382831,Sr2Ga1Bi1O6
Sr3(GaO3)2,mp-4446,3.5,1.07999862,0.0016157510984804446,"{38: 3, 31: 2, 8: 6}","[8, 31, 38]",86312383,Sr3Ga2O6
SrEuZrGeO6,mp-1518560,0.7382999999999997,6.12197514,0.07598957718749944,"{38: 1, 63: 1, 40: 1, 32: 1, 8: 6}","[8, 32, 38, 40, 63]",86321381401631,Sr1Eu1Zr1Ge1O6
SrGeTeO6,mp-10341,2.9532,1.70480685,0.0,"{38: 1, 32: 1, 52: 1, 8: 6}","[8, 32, 38, 52]",86321381521,Sr1Ge1Te1O6
Sr2ZrGeO6,mp-1523090,4.057499999999999,2.82559142,0.04249755941667299,"{38: 2, 40: 1, 32: 1, 8: 6}","[8, 32, 38, 40]",86321382401,Sr2Zr1Ge1O6
Sr2CeGeO6,mp-1517419,2.0483,3.24961524,0.11660570300000028,"{38: 2, 58: 1, 32: 1, 8: 6}","[8, 32, 38, 58]",86321382581,Sr2Ce1Ge1O6
Sr2PrGeO6,mp-1521453,0.0,1.92026597,0.16533564381250088,"{38: 2, 59: 1, 32: 1, 8: 6}","[8, 32, 38, 59]",86321382591,Sr2Pr1Ge1O6
Sr2TbGeO6,mp-1520630,0.0,2.07297359,0.11639368256250027,"{38: 2, 65: 1, 32: 1, 8: 6}","[8, 32, 38, 65]",86321382651,Sr2Tb1Ge1O6
Sr(AsO3)2,mp-983061,3.2580999999999998,1.84747478,0.0,"{38: 1, 33: 2, 8: 6}","[8, 33, 38]",86332381,Sr1As2O6
BaSrSmSeO6,mp-1516342,0.0,3.9718792,0.17699631568749208,"{56: 1, 38: 1, 62: 1, 34: 1, 8: 6}","[8, 34, 38, 56, 62]",86341381561621,Ba1Sr1Sm1Se1O6
BaSrEuSeO6,mp-1521369,0.0,4.803742,0.23387085887499115,"{56: 1, 38: 1, 63: 1, 34: 1, 8: 6}","[8, 34, 38, 56, 63]",86341381561631,Ba1Sr1Eu1Se1O6
BaSrTbSeO6,mp-1517448,0.0,4.137834,0.18140526481249175,"{56: 1, 38: 1, 65: 1, 34: 1, 8: 6}","[8, 34, 38, 56, 65]",86341381561651,Ba1Sr1Tb1Se1O6
BaSrDySeO6,mp-1520831,0.0,4.00824457,0.17975890587499244,"{56: 1, 38: 1, 66: 1, 34: 1, 8: 6}","[8, 34, 38, 56, 66]",86341381561661,Ba1Sr1Dy1Se1O6
Ba2SrSeO6,mp-1523293,2.3123000000000005,2.66968517,0.0,"{56: 2, 38: 1, 34: 1, 8: 6}","[8, 34, 38, 56]",86341381562,Ba2Sr1Se1O6
Sr2TbSeO6,mp-1520448,0.0,4.39030564,0.18413467868749578,"{38: 2, 65: 1, 34: 1, 8: 6}","[8, 34, 38, 65]",86341382651,Sr2Tb1Se1O6
Sr2DySeO6,mp-1517072,0.0,4.40289558,0.1801594537499973,"{38: 2, 66: 1, 34: 1, 8: 6}","[8, 34, 38, 66]",86341382661,Sr2Dy1Se1O6
Sr(BrO3)2,mp-504910,4.148000000000001,0.01137641,0.0651018078888903,"{38: 1, 35: 2, 8: 6}","[8, 35, 38]",86352381,Sr1Br2O6
SrO6,mp-1179143,0.0,0.0558964,0.07630307857142782,"{38: 1, 8: 6}","[8, 38]",86381,Sr1O6
BaSrYNbO6,mp-1519152,3.0516000000000005,1.84452608,0.014502049999993716,"{56: 1, 38: 1, 39: 1, 41: 1, 8: 6}","[8, 38, 39, 41, 56]",86381391411561,Ba1Sr1Y1Nb1O6
SrEuYNbO6,mp-1521037,0.3205,4.51965416,0.09478800790442854,"{38: 1, 63: 1, 39: 1, 41: 1, 8: 6}","[8, 38, 39, 41, 63]",86381391411631,Sr1Eu1Y1Nb1O6
BaSrYSbO6,mp-1521613,3.4776,2.96829413,0.016233568750000593,"{56: 1, 38: 1, 39: 1, 51: 1, 8: 6}","[8, 38, 39, 51, 56]",86381391511561,Ba1Sr1Y1Sb1O6
SrEuYSbO6,mp-1520937,0.3461999999999996,6.09089889,0.1267977901875028,"{38: 1, 63: 1, 39: 1, 51: 1, 8: 6}","[8, 38, 39, 51, 63]",86381391511631,Sr1Eu1Y1Sb1O6
BaSrYWO6,mp-1519405,2.0380999999999996,3.40643107,0.017750805041686135,"{56: 1, 38: 1, 39: 1, 74: 1, 8: 6}","[8, 38, 39, 56, 74]",86381391561741,Ba1Sr1Y1W1O6
BaSrYBiO6,mp-1516562,1.7909000000000002,2.29664065,0.0,"{56: 1, 38: 1, 39: 1, 83: 1, 8: 6}","[8, 38, 39, 56, 83]",86381391561831,Ba1Sr1Y1Bi1O6
SrEuYWO6,mp-1522166,0.0,5.03650182,0.1894299253333287,"{38: 1, 63: 1, 39: 1, 74: 1, 8: 6}","[8, 38, 39, 63, 74]",86381391631741,Sr1Eu1Y1W1O6
SrZrNbInO6,mp-1521570,0.5707000000000004,4.48806289,0.13293574488889703,"{38: 1, 40: 1, 41: 1, 49: 1, 8: 6}","[8, 38, 40, 41, 49]",86381401411491,Sr1Zr1Nb1In1O6
BaSrZrNbO6,mp-1521067,0.0,5.51922184,0.04262701174999961,"{56: 1, 38: 1, 40: 1, 41: 1, 8: 6}","[8, 38, 40, 41, 56]",86381401411561,Ba1Sr1Zr1Nb1O6
SrZrInSbO6,mp-1518482,0.8413000000000004,5.85005577,0.19195629176137086,"{38: 1, 40: 1, 49: 1, 51: 1, 8: 6}","[8, 38, 40, 49, 51]",86381401491511,Sr1Zr1In1Sb1O6
BaSrZrSnO6,mp-1516294,3.9199,3.16891728,0.01618035924999983,"{56: 1, 38: 1, 40: 1, 50: 1, 8: 6}","[8, 38, 40, 50, 56]",86381401501561,Ba1Sr1Zr1Sn1O6
SrEuZrSnO6,mp-1519044,0.6193,6.310319,0.08109109864999553,"{38: 1, 63: 1, 40: 1, 50: 1, 8: 6}","[8, 38, 40, 50, 63]",86381401501631,Sr1Eu1Zr1Sn1O6
SrHfZrSnO6,mp-1521324,3.149,3.97987663,0.18063033474999557,"{38: 1, 72: 1, 40: 1, 50: 1, 8: 6}","[8, 38, 40, 50, 72]",86381401501721,Sr1Hf1Zr1Sn1O6
SrEuZrSbO6,mp-1518145,0.0,5.84581864,0.23496045626137096,"{38: 1, 63: 1, 40: 1, 51: 1, 8: 6}","[8, 38, 40, 51, 63]",86381401511631,Sr1Eu1Zr1Sb1O6
BaSrCeZrO6,mp-1521105,2.2322,2.43183066,0.028261073999996,"{56: 1, 38: 1, 58: 1, 40: 1, 8: 6}","[8, 38, 40, 56, 58]",86381401561581,Ba1Sr1Ce1Zr1O6
BaSrPrZrO6,mp-1521255,0.0,1.36474003,0.10587649181250036,"{56: 1, 38: 1, 59: 1, 40: 1, 8: 6}","[8, 38, 40, 56, 59]",86381401561591,Ba1Sr1Pr1Zr1O6
BaSrTbZrO6,mp-1517876,0.0,1.33397715,0.0696797618125018,"{56: 1, 38: 1, 65: 1, 40: 1, 8: 6}","[8, 38, 40, 56, 65]",86381401561651,Ba1Sr1Tb1Zr1O6
BaSrHfZrO6,mp-1520590,3.5330000000000004,2.18743756,0.013847056999999552,"{56: 1, 38: 1, 72: 1, 40: 1, 8: 6}","[8, 38, 40, 56, 72]",86381401561721,Ba1Sr1Hf1Zr1O6
SrEuHfZrO6,mp-1519163,0.4306000000000001,5.22099172,0.06344758574999965,"{38: 1, 63: 1, 72: 1, 40: 1, 8: 6}","[8, 38, 40, 63, 72]",86381401631721,Sr1Eu1Hf1Zr1O6
SrZr2SnO6,mp-1519544,2.3604999999999996,3.71831738,0.11524425855000153,"{38: 1, 40: 2, 50: 1, 8: 6}","[8, 38, 40, 50]",86381402501,Sr1Zr2Sn1O6
BaSrZr2O6,mp-1521140,3.123,2.05632204,0.02781563775000251,"{56: 1, 38: 1, 40: 2, 8: 6}","[8, 38, 40, 56]",86381402561,Ba1Sr1Zr2O6
SrEuZr2O6,mp-1516749,0.0,5.15628393,0.03264155899999999,"{38: 1, 63: 1, 40: 2, 8: 6}","[8, 38, 40, 63]",86381402631,Sr1Eu1Zr2O6
BaSrNbInO6,mp-1516590,3.3943,2.94558205,0.018766724499993614,"{56: 1, 38: 1, 41: 1, 49: 1, 8: 6}","[8, 38, 41, 49, 56]",86381411491561,Ba1Sr1Nb1In1O6
SrHfNbInO6,mp-1519782,0.5890000000000004,4.73845538,0.12277119563888661,"{38: 1, 72: 1, 41: 1, 49: 1, 8: 6}","[8, 38, 41, 49, 72]",86381411491721,Sr1Hf1Nb1In1O6
SrHfNbSnO6,mp-1519878,0.0,6.40258246,0.19860482574999772,"{38: 1, 72: 1, 41: 1, 50: 1, 8: 6}","[8, 38, 41, 50, 72]",86381411501721,Sr1Hf1Nb1Sn1O6
BaSrNbSbO6,mp-1520345,2.1944999999999997,3.54864518,0.09057346887499396,"{56: 1, 38: 1, 41: 1, 51: 1, 8: 6}","[8, 38, 41, 51, 56]",86381411511561,Ba1Sr1Nb1Sb1O6
BaSrLaNbO6,mp-1521789,3.0144,2.73899197,0.04745437270833186,"{56: 1, 38: 1, 57: 1, 41: 1, 8: 6}","[8, 38, 41, 56, 57]",86381411561571,Ba1Sr1La1Nb1O6
BaSrCeNbO6,mp-1518497,0.0,5.56980752,0.05141327345832636,"{56: 1, 38: 1, 58: 1, 41: 1, 8: 6}","[8, 38, 41, 56, 58]",86381411561581,Ba1Sr1Ce1Nb1O6
BaSrPrNbO6,mp-1519309,3.0166999999999997,1.73448195,0.03347310227083078,"{56: 1, 38: 1, 59: 1, 41: 1, 8: 6}","[8, 38, 41, 56, 59]",86381411561591,Ba1Sr1Pr1Nb1O6
BaSrNdNbO6,mp-1522395,3.0702999999999996,1.70089418,0.02672287870833223,"{56: 1, 38: 1, 60: 1, 41: 1, 8: 6}","[8, 38, 41, 56, 60]",86381411561601,Ba1Sr1Nd1Nb1O6
BaSrSmNbO6,mp-1522073,2.9737999999999998,1.85670072,0.023169968395833962,"{56: 1, 38: 1, 62: 1, 41: 1, 8: 6}","[8, 38, 41, 56, 62]",86381411561621,Ba1Sr1Sm1Nb1O6
BaSrEuNbO6,mp-1516637,0.0,2.20532378,0.09922018983332492,"{56: 1, 38: 1, 63: 1, 41: 1, 8: 6}","[8, 38, 41, 56, 63]",86381411561631,Ba1Sr1Eu1Nb1O6
BaSrGdNbO6,mp-1522883,2.7823,1.90374266,0.01159439362499981,"{56: 1, 38: 1, 64: 1, 41: 1, 8: 6}","[8, 38, 41, 56, 64]",86381411561641,Ba1Sr1Gd1Nb1O6
BaSrTbNbO6,mp-1522360,2.9825999999999997,1.90554288,0.012901362968751329,"{56: 1, 38: 1, 65: 1, 41: 1, 8: 6}","[8, 38, 41, 56, 65]",86381411561651,Ba1Sr1Tb1Nb1O6
BaSrDyNbO6,mp-1518454,3.0423,1.77355763,0.007518863999999681,"{56: 1, 38: 1, 66: 1, 41: 1, 8: 6}","[8, 38, 41, 56, 66]",86381411561661,Ba1Sr1Dy1Nb1O6
BaSrHfNbO6,mp-1518868,0.0,5.73315338,0.054264228499999234,"{56: 1, 38: 1, 72: 1, 41: 1, 8: 6}","[8, 38, 41, 56, 72]",86381411561721,Ba1Sr1Hf1Nb1O6
BaSrNbWO6,mp-1519649,0.8734000000000002,4.39239497,0.08160262371429461,"{56: 1, 38: 1, 41: 1, 74: 1, 8: 6}","[8, 38, 41, 56, 74]",86381411561741,Ba1Sr1Nb1W1O6
BaSrNbBiO6,mp-1520985,2.1204,3.46401435,0.04234615231665462,"{56: 1, 38: 1, 41: 1, 83: 1, 8: 6}","[8, 38, 41, 56, 83]",86381411561831,Ba1Sr1Nb1Bi1O6
SrLaEuNbO6,mp-1519994,0.23749999999999982,5.78584227,0.030062547578120657,"{38: 1, 57: 1, 63: 1, 41: 1, 8: 6}","[8, 38, 41, 57, 63]",86381411571631,Sr1La1Eu1Nb1O6
SrCeEuNbO6,mp-1522289,0.0,6.01225238,0.0953211773000131,"{38: 1, 58: 1, 63: 1, 41: 1, 8: 6}","[8, 38, 41, 58, 63]",86381411581631,Sr1Ce1Eu1Nb1O6
SrPrEuNbO6,mp-1519242,0.1748000000000003,4.8235723,0.02713361902083733,"{38: 1, 59: 1, 63: 1, 41: 1, 8: 6}","[8, 38, 41, 59, 63]",86381411591631,Sr1Pr1Eu1Nb1O6
SrNdEuNbO6,mp-1519937,0.09629999999999939,4.74909636,0.075420787208337,"{38: 1, 60: 1, 63: 1, 41: 1, 8: 6}","[8, 38, 41, 60, 63]",86381411601631,Sr1Nd1Eu1Nb1O6
SrSmEuNbO6,mp-1523233,0.1490999999999998,4.76706661,0.010283251145835948,"{38: 1, 62: 1, 63: 1, 41: 1, 8: 6}","[8, 38, 41, 62, 63]",86381411621631,Sr1Sm1Eu1Nb1O6
SrEuDyNbO6,mp-1518315,0.3102999999999998,4.56844186,0.08701742258333489,"{38: 1, 63: 1, 66: 1, 41: 1, 8: 6}","[8, 38, 41, 63, 66]",86381411631661,Sr1Eu1Dy1Nb1O6
SrEuHfNbO6,mp-1519386,0.0,5.72418545,0.06745146241666156,"{38: 1, 63: 1, 72: 1, 41: 1, 8: 6}","[8, 38, 41, 63, 72]",86381411631721,Sr1Eu1Hf1Nb1O6
SrEuNbWO6,mp-1518537,0.0,5.32182178,0.14147088016666132,"{38: 1, 63: 1, 41: 1, 74: 1, 8: 6}","[8, 38, 41, 63, 74]",86381411631741,Sr1Eu1Nb1W1O6
SrEuNbBiO6,mp-1518541,0.045399999999999885,5.26811081,0.0945509220000087,"{38: 1, 63: 1, 41: 1, 83: 1, 8: 6}","[8, 38, 41, 63, 83]",86381411631831,Sr1Eu1Nb1Bi1O6
SrNb2O6,mp-4591,2.9977,1.08666926,0.0,"{38: 1, 41: 2, 8: 6}","[8, 38, 41]",86381412,Sr1Nb2O6
SrNb4O6,mp-617266,0.0,5.6025157,0.02738005712121172,"{38: 1, 41: 4, 8: 6}","[8, 38, 41]",86381414,Sr1Nb4O6
BaSr(MoO3)2,mp-1227741,0.0,4.8582711,0.04715631249999852,"{56: 1, 38: 1, 42: 2, 8: 6}","[8, 38, 42, 56]",86381422561,Ba1Sr1Mo2O6
Sr(RuO3)2,mp-1079784,0.02829999999999977,2.51172882,0.0,"{38: 1, 44: 2, 8: 6}","[8, 38, 44]",86381442,Sr1Ru2O6
SrLa(RuO3)2,mp-1218253,0.0,6.24897111,0.018635361499996783,"{38: 1, 57: 1, 44: 2, 8: 6}","[8, 38, 44, 57]",86381442571,Sr1La1Ru2O6