formula,material_id,band_gap,efermi,energy_above_hull,comp_atoms,sorted_keys_comp_atoms,comp_number,new_formula
SrEuInSnO6,mp-1522043,0.0,3.76343625,0.2612110532499994,"{38: 1, 63: 1, 49: 1, 50: 1, 8: 6}","[8, 38, 49, 50, 63]",86381491501631,Sr1Eu1In1Sn1O6
BaSrInSbO6,mp-1519864,0.7664000000000004,4.09569964,0.021819281800017798,"{56: 1, 38: 1, 49: 1, 51: 1, 8: 6}","[8, 38, 49, 51, 56]",86381491511561,Ba1Sr1In1Sb1O6
SrEuInSbO6,mp-1520042,0.0,6.0482087,0.11625392540000767,"{38: 1, 63: 1, 49: 1, 51: 1, 8: 6}","[8, 38, 49, 51, 63]",86381491511631,Sr1Eu1In1Sb1O6
SrHfInSbO6,mp-1522175,0.867,6.12928353,0.19913845951136722,"{38: 1, 72: 1, 49: 1, 51: 1, 8: 6}","[8, 38, 49, 51, 72]",86381491511721,Sr1Hf1In1Sb1O6
BaSrInWO6,mp-1516873,0.0,5.92119448,0.12449998962499809,"{56: 1, 38: 1, 49: 1, 74: 1, 8: 6}","[8, 38, 49, 56, 74]",86381491561741,Ba1Sr1In1W1O6
BaSrInBiO6,mp-1516651,0.41869999999999985,3.31036273,0.0006277218750074809,"{56: 1, 38: 1, 49: 1, 83: 1, 8: 6}","[8, 38, 49, 56, 83]",86381491561831,Ba1Sr1In1Bi1O6
SrEuHfInO6,mp-1521439,0.0,2.88758483,0.26483673899999793,"{38: 1, 63: 1, 72: 1, 49: 1, 8: 6}","[8, 38, 49, 63, 72]",86381491631721,Sr1Eu1Hf1In1O6
SrEuInWO6,mp-1519289,0.0,5.98519369,0.18926315399999716,"{38: 1, 63: 1, 49: 1, 74: 1, 8: 6}","[8, 38, 49, 63, 74]",86381491631741,Sr1Eu1In1W1O6
SrEuInBiO6,mp-1518471,0.0,4.63450209,0.2583047124999993,"{38: 1, 63: 1, 49: 1, 83: 1, 8: 6}","[8, 38, 49, 63, 83]",86381491631831,Sr1Eu1In1Bi1O6
SrEuSnSbO6,mp-1521767,0.0,6.84167092,0.18243078928409062,"{38: 1, 63: 1, 50: 1, 51: 1, 8: 6}","[8, 38, 50, 51, 63]",86381501511631,Sr1Eu1Sn1Sb1O6
BaSrCeSnO6,mp-1518052,2.1779999999999995,3.32509122,0.01222568912499522,"{56: 1, 38: 1, 58: 1, 50: 1, 8: 6}","[8, 38, 50, 56, 58]",86381501561581,Ba1Sr1Ce1Sn1O6
BaSrPrSnO6,mp-1522690,0.0,2.14702587,0.0753969462031252,"{56: 1, 38: 1, 59: 1, 50: 1, 8: 6}","[8, 38, 50, 56, 59]",86381501561591,Ba1Sr1Pr1Sn1O6
BaSrTbSnO6,mp-1522402,0.0,2.29575137,0.04783735431249703,"{56: 1, 38: 1, 65: 1, 50: 1, 8: 6}","[8, 38, 50, 56, 65]",86381501561651,Ba1Sr1Tb1Sn1O6
BaSrHfSnO6,mp-1520657,3.7375,3.25188607,0.00964375175000054,"{56: 1, 38: 1, 72: 1, 50: 1, 8: 6}","[8, 38, 50, 56, 72]",86381501561721,Ba1Sr1Hf1Sn1O6
SrLaDySnO6,mp-1521737,3.2292000000000005,4.06035436,0.07579742881249985,"{38: 1, 57: 1, 66: 1, 50: 1, 8: 6}","[8, 38, 50, 57, 66]",86381501571661,Sr1La1Dy1Sn1O6
SrEuHfSnO6,mp-1518253,0.3763000000000005,6.60399736,0.07429508931249806,"{38: 1, 63: 1, 72: 1, 50: 1, 8: 6}","[8, 38, 50, 63, 72]",86381501631721,Sr1Eu1Hf1Sn1O6
BaSr(SnO3)2,mp-1227742,0.7130999999999998,4.29407846,0.02405392275000029,"{56: 1, 38: 1, 50: 2, 8: 6}","[8, 38, 50, 56]",86381502561,Ba1Sr1Sn2O6
BaSrLaSbO6,mp-1518099,3.6883999999999997,3.51429182,0.013128400499999415,"{56: 1, 38: 1, 57: 1, 51: 1, 8: 6}","[8, 38, 51, 56, 57]",86381511561571,Ba1Sr1La1Sb1O6
BaSrCeSbO6,mp-1518051,0.11070000000000046,5.34491622,0.06691036422917396,"{56: 1, 38: 1, 58: 1, 51: 1, 8: 6}","[8, 38, 51, 56, 58]",86381511561581,Ba1Sr1Ce1Sb1O6
BaSrPrSbO6,mp-1519366,3.6275,2.62263727,0.0,"{56: 1, 38: 1, 59: 1, 51: 1, 8: 6}","[8, 38, 51, 56, 59]",86381511561591,Ba1Sr1Pr1Sb1O6
BaSrNdSbO6,mp-1522133,3.6367000000000003,2.62469227,0.0,"{56: 1, 38: 1, 60: 1, 51: 1, 8: 6}","[8, 38, 51, 56, 60]",86381511561601,Ba1Sr1Nd1Sb1O6
BaSrSmSbO6,mp-1522804,3.6073,2.74816916,0.013116526999948697,"{56: 1, 38: 1, 62: 1, 51: 1, 8: 6}","[8, 38, 51, 56, 62]",86381511561621,Ba1Sr1Sm1Sb1O6
BaSrEuSbO6,mp-1519221,0.0,2.94561481,0.05538021349999678,"{56: 1, 38: 1, 63: 1, 51: 1, 8: 6}","[8, 38, 51, 56, 63]",86381511561631,Ba1Sr1Eu1Sb1O6
BaSrGdSbO6,mp-1523308,3.4364,2.78823416,0.0047624598749997915,"{56: 1, 38: 1, 64: 1, 51: 1, 8: 6}","[8, 38, 51, 56, 64]",86381511561641,Ba1Sr1Gd1Sb1O6
BaSrTbSbO6,mp-1520523,3.5885000000000002,2.80212283,0.004673632624999868,"{56: 1, 38: 1, 65: 1, 51: 1, 8: 6}","[8, 38, 51, 56, 65]",86381511561651,Ba1Sr1Tb1Sb1O6
BaSrDySbO6,mp-1518907,3.5496999999999996,2.81006675,0.0,"{56: 1, 38: 1, 66: 1, 51: 1, 8: 6}","[8, 38, 51, 56, 66]",86381511561661,Ba1Sr1Dy1Sb1O6
BaSrBiSbO6,mp-1518348,1.7818999999999994,4.14306544,0.010457700700017725,"{56: 1, 38: 1, 83: 1, 51: 1, 8: 6}","[8, 38, 51, 56, 83]",86381511561831,Ba1Sr1Bi1Sb1O6
SrLaEuSbO6,mp-1518162,0.08689999999999998,7.04886948,0.07941142061666007,"{38: 1, 57: 1, 63: 1, 51: 1, 8: 6}","[8, 38, 51, 57, 63]",86381511571631,Sr1La1Eu1Sb1O6
SrCeEuSbO6,mp-1519227,0.0,6.47504821,0.18709031170000223,"{38: 1, 58: 1, 63: 1, 51: 1, 8: 6}","[8, 38, 51, 58, 63]",86381511581631,Sr1Ce1Eu1Sb1O6
SrPrEuSbO6,mp-1521602,0.0,6.00255118,0.06237625407499259,"{38: 1, 59: 1, 63: 1, 51: 1, 8: 6}","[8, 38, 51, 59, 63]",86381511591631,Sr1Pr1Eu1Sb1O6
SrNdEuSbO6,mp-1522789,0.0,5.97484574,0.061357855208326484,"{38: 1, 60: 1, 63: 1, 51: 1, 8: 6}","[8, 38, 51, 60, 63]",86381511601631,Sr1Nd1Eu1Sb1O6
SrSmEuSbO6,mp-1520883,0.01929999999999943,6.09683593,0.07067403625000246,"{38: 1, 62: 1, 63: 1, 51: 1, 8: 6}","[8, 38, 51, 62, 63]",86381511621631,Sr1Sm1Eu1Sb1O6
SrEuGdSbO6,mp-1518060,0.4206000000000003,5.81801937,0.12910811732500171,"{38: 1, 63: 1, 64: 1, 51: 1, 8: 6}","[8, 38, 51, 63, 64]",86381511631641,Sr1Eu1Gd1Sb1O6
SrTbEuSbO6,mp-1516843,0.29600000000000026,5.97468194,0.11962292641250372,"{38: 1, 65: 1, 63: 1, 51: 1, 8: 6}","[8, 38, 51, 63, 65]",86381511631651,Sr1Tb1Eu1Sb1O6
SrEuDySbO6,mp-1523028,0.0,6.19218619,0.06612022230000214,"{38: 1, 63: 1, 66: 1, 51: 1, 8: 6}","[8, 38, 51, 63, 66]",86381511631661,Sr1Eu1Dy1Sb1O6
SrEuHfSbO6,mp-1517552,0.0,5.92057793,0.23236517701135995,"{38: 1, 63: 1, 72: 1, 51: 1, 8: 6}","[8, 38, 51, 63, 72]",86381511631721,Sr1Eu1Hf1Sb1O6
SrEuBiSbO6,mp-1516901,0.0,5.94633852,0.07561716100000204,"{38: 1, 63: 1, 83: 1, 51: 1, 8: 6}","[8, 38, 51, 63, 83]",86381511631831,Sr1Eu1Bi1Sb1O6
Sr(SbO3)2,mp-9126,2.7881,2.4277574,0.0,"{38: 1, 51: 2, 8: 6}","[8, 38, 51]",86381512,Sr1Sb2O6
Ba2SrTeO6,mp-13356,3.1291999999999995,2.65837498,0.0,"{56: 2, 38: 1, 52: 1, 8: 6}","[8, 38, 52, 56]",86381521562,Ba2Sr1Te1O6
Sr(IO3)2,mp-754521,3.2691999999999997,1.60344205,0.0,"{38: 1, 53: 2, 8: 6}","[8, 38, 53]",86381532,Sr1I2O6
BaSrLaWO6,mp-1517703,2.2542999999999997,4.1792971,0.059096157583315545,"{56: 1, 38: 1, 57: 1, 74: 1, 8: 6}","[8, 38, 56, 57, 74]",86381561571741,Ba1Sr1La1W1O6
BaSrLaBiO6,mp-1522224,1.8135999999999997,2.96740277,0.010108580499999853,"{56: 1, 38: 1, 57: 1, 83: 1, 8: 6}","[8, 38, 56, 57, 83]",86381561571831,Ba1Sr1La1Bi1O6
BaSrTbCeO6,mp-1520565,0.0,1.84095799,0.07381051793749371,"{56: 1, 38: 1, 65: 1, 58: 1, 8: 6}","[8, 38, 56, 58, 65]",86381561581651,Ba1Sr1Tb1Ce1O6
BaSrCeHfO6,mp-1522455,2.1941000000000006,2.38130307,0.03291153199999286,"{56: 1, 38: 1, 58: 1, 72: 1, 8: 6}","[8, 38, 56, 58, 72]",86381561581721,Ba1Sr1Ce1Hf1O6
BaSrCeWO6,mp-1517687,0.6247999999999996,4.30068738,0.07362293474997372,"{56: 1, 38: 1, 58: 1, 74: 1, 8: 6}","[8, 38, 56, 58, 74]",86381561581741,Ba1Sr1Ce1W1O6
BaSrCeBiO6,mp-1518927,0.10740000000000016,4.04949333,0.025237119100005145,"{56: 1, 38: 1, 58: 1, 83: 1, 8: 6}","[8, 38, 56, 58, 83]",86381561581831,Ba1Sr1Ce1Bi1O6
BaSrCe2O6,mp-1519537,2.1796999999999995,2.82485535,0.015708765999995933,"{56: 1, 38: 1, 58: 2, 8: 6}","[8, 38, 56, 58]",86381561582,Ba1Sr1Ce2O6
BaSrPrHfO6,mp-1522632,0.0,1.44443979,0.09779566618749769,"{56: 1, 38: 1, 59: 1, 72: 1, 8: 6}","[8, 38, 56, 59, 72]",86381561591721,Ba1Sr1Pr1Hf1O6
BaSrPrWO6,mp-1518103,2.1062999999999996,3.22743434,0.044418244458324097,"{56: 1, 38: 1, 59: 1, 74: 1, 8: 6}","[8, 38, 56, 59, 74]",86381561591741,Ba1Sr1Pr1W1O6
BaSrPrBiO6,mp-1519048,1.7972000000000001,2.1300192,0.023031964999999488,"{56: 1, 38: 1, 59: 1, 83: 1, 8: 6}","[8, 38, 56, 59, 83]",86381561591831,Ba1Sr1Pr1Bi1O6
BaSrNdWO6,mp-1523102,2.0977,3.2603701,0.042084984916657575,"{56: 1, 38: 1, 60: 1, 74: 1, 8: 6}","[8, 38, 56, 60, 74]",86381561601741,Ba1Sr1Nd1W1O6
BaSrNdBiO6,mp-1519269,1.7161,2.06161706,0.011443133500000258,"{56: 1, 38: 1, 60: 1, 83: 1, 8: 6}","[8, 38, 56, 60, 83]",86381561601831,Ba1Sr1Nd1Bi1O6
BaSrSmWO6,mp-1520675,2.0033999999999996,3.31812423,0.029961371708337126,"{56: 1, 38: 1, 62: 1, 74: 1, 8: 6}","[8, 38, 56, 62, 74]",86381561621741,Ba1Sr1Sm1W1O6
BaSrSmBiO6,mp-1518078,1.8037,2.1626492,0.01638117062499944,"{56: 1, 38: 1, 62: 1, 83: 1, 8: 6}","[8, 38, 56, 62, 83]",86381561621831,Ba1Sr1Sm1Bi1O6
BaSrEuWO6,mp-1518836,0.010399999999999743,4.75358674,0.051161017375008555,"{56: 1, 38: 1, 63: 1, 74: 1, 8: 6}","[8, 38, 56, 63, 74]",86381561631741,Ba1Sr1Eu1W1O6
BaSrEuBiO6,mp-1522436,0.0,2.42688516,0.031370823611124976,"{56: 1, 38: 1, 63: 1, 83: 1, 8: 6}","[8, 38, 56, 63, 83]",86381561631831,Ba1Sr1Eu1Bi1O6
BaSrGdBiO6,mp-1518043,1.4773,2.25463666,0.008457053375000356,"{56: 1, 38: 1, 64: 1, 83: 1, 8: 6}","[8, 38, 56, 64, 83]",86381561641831,Ba1Sr1Gd1Bi1O6
BaSrTbHfO6,mp-1522244,0.0,1.51756296,0.07057685593749952,"{56: 1, 38: 1, 65: 1, 72: 1, 8: 6}","[8, 38, 56, 65, 72]",86381561651721,Ba1Sr1Tb1Hf1O6
BaSrTbWO6,mp-1518778,2.038,3.42905966,0.021674967812510104,"{56: 1, 38: 1, 65: 1, 74: 1, 8: 6}","[8, 38, 56, 65, 74]",86381561651741,Ba1Sr1Tb1W1O6
BaSrTbBiO6,mp-1518219,1.8169,2.28346383,0.0033354240000038615,"{56: 1, 38: 1, 65: 1, 83: 1, 8: 6}","[8, 38, 56, 65, 83]",86381561651831,Ba1Sr1Tb1Bi1O6
BaSrDyWO6,mp-1522319,2.0345,3.30042294,0.010549421124999014,"{56: 1, 38: 1, 66: 1, 74: 1, 8: 6}","[8, 38, 56, 66, 74]",86381561661741,Ba1Sr1Dy1W1O6
BaSrDyBiO6,mp-1516677,1.8030000000000004,2.35088971,0.015941970749999257,"{56: 1, 38: 1, 66: 1, 83: 1, 8: 6}","[8, 38, 56, 66, 83]",86381561661831,Ba1Sr1Dy1Bi1O6
BaSrLuBiO6,mp-1227532,1.7561999999999998,2.18623058,0.012137145250012082,"{56: 1, 38: 1, 71: 1, 83: 1, 8: 6}","[8, 38, 56, 71, 83]",86381561711831,Ba1Sr1Lu1Bi1O6
BaSrHf2O6,mp-1227645,3.7481999999999998,2.39685754,0.015406673500001133,"{56: 1, 38: 1, 72: 2, 8: 6}","[8, 38, 56, 72]",86381561722,Ba1Sr1Hf2O6
BaSr(PbO3)2,mp-1227843,0.5665,2.90518296,0.007023128750000218,"{56: 1, 38: 1, 82: 2, 8: 6}","[8, 38, 56, 82]",86381561822,Ba1Sr1Pb2O6
Ba2SrWO6,mp-18764,3.2504,1.88899355,0.0,"{56: 2, 38: 1, 74: 1, 8: 6}","[8, 38, 56, 74]",86381562741,Ba2Sr1W1O6
Ba2SrIrO6,mp-9115,0.0,2.82800517,0.0,"{56: 2, 38: 1, 77: 1, 8: 6}","[8, 38, 56, 77]",86381562771,Ba2Sr1Ir1O6
Ba2SrUO6,mp-14552,2.0496,2.22298749,0.0,"{56: 2, 38: 1, 92: 1, 8: 6}","[8, 38, 56, 92]",86381562921,Ba2Sr1U1O6
SrNdHf2O6,mp-1521236,0.0,6.84655382,0.1249861879062415,"{38: 1, 60: 1, 72: 2, 8: 6}","[8, 38, 60, 72]",86381601722,Sr1Nd1Hf2O6
SrTbEuWO6,mp-1518567,0.0,5.28677983,0.0891438743124926,"{38: 1, 65: 1, 63: 1, 74: 1, 8: 6}","[8, 38, 63, 65, 74]",86381631651741,Sr1Tb1Eu1W1O6
SrEuDyWO6,mp-1521152,0.0,5.67534358,0.20791581391665837,"{38: 1, 63: 1, 66: 1, 74: 1, 8: 6}","[8, 38, 63, 66, 74]",86381631661741,Sr1Eu1Dy1W1O6
SrEu(WO3)2,mp-1516642,0.03780000000000072,5.91536269,0.06925573712498334,"{38: 1, 63: 1, 74: 2, 8: 6}","[8, 38, 63, 74]",86381631742,Sr1Eu1W2O6
SrTa2O6,mp-17715,3.2307,1.53913755,0.0,"{38: 1, 73: 2, 8: 6}","[8, 38, 73]",86381732,Sr1Ta2O6
SrU2O6,mp-676249,0.0,7.244637,0.05675808455555931,"{38: 1, 92: 2, 8: 6}","[8, 38, 92]",86381922,Sr1U2O6
Sr2YNbO6,mp-6019,3.2249,1.69424012,0.0,"{38: 2, 39: 1, 41: 1, 8: 6}","[8, 38, 39, 41]",86382391411,Sr2Y1Nb1O6
Sr2YRuO6,mp-14430,0.0,3.25034712,0.0,"{38: 2, 39: 1, 44: 1, 8: 6}","[8, 38, 39, 44]",86382391441,Sr2Y1Ru1O6
Sr2YSbO6,mp-12878,3.7072999999999996,2.78827777,0.0,"{38: 2, 39: 1, 51: 1, 8: 6}","[8, 38, 39, 51]",86382391511,Sr2Y1Sb1O6
Sr2YTaO6,mp-12355,3.8491,1.95304725,0.0,"{38: 2, 39: 1, 73: 1, 8: 6}","[8, 38, 39, 73]",86382391731,Sr2Y1Ta1O6
Sr2YWO6,mp-1523213,0.0,5.06409292,0.14188621633332943,"{38: 2, 39: 1, 74: 1, 8: 6}","[8, 38, 39, 74]",86382391741,Sr2Y1W1O6
Sr2YReO6,mp-7889,0.0,4.68201772,0.08403000685417616,"{38: 2, 39: 1, 75: 1, 8: 6}","[8, 38, 39, 75]",86382391751,Sr2Y1Re1O6
Sr2YOsO6,mp-1105147,0.17300000000000004,3.93768475,0.0,"{38: 2, 39: 1, 76: 1, 8: 6}","[8, 38, 39, 76]",86382391761,Sr2Y1Os1O6
Sr2YIrO6,mp-15887,0.0,3.64002767,0.0,"{38: 2, 39: 1, 77: 1, 8: 6}","[8, 38, 39, 77]",86382391771,Sr2Y1Ir1O6
Sr2YBiO6,mp-1522480,1.9723999999999995,2.23423581,0.0,"{38: 2, 39: 1, 83: 1, 8: 6}","[8, 38, 39, 83]",86382391831,Sr2Y1Bi1O6
Sr2ZrNbO6,mp-1521908,0.0,5.61056391,0.05397646900002151,"{38: 2, 40: 1, 41: 1, 8: 6}","[8, 38, 40, 41]",86382401411,Sr2Zr1Nb1O6
Sr2ZrMoO6,mp-1218217,0.0,4.62332478,0.0631675042500035,"{38: 2, 40: 1, 42: 1, 8: 6}","[8, 38, 40, 42]",86382401421,Sr2Zr1Mo1O6
Sr2ZrSnO6,mp-1522474,3.902,3.18324644,0.025015835500001415,"{38: 2, 40: 1, 50: 1, 8: 6}","[8, 38, 40, 50]",86382401501,Sr2Zr1Sn1O6
Sr2CeZrO6,mp-1519555,2.3352999999999997,2.33641196,0.04836055799999528,"{38: 2, 58: 1, 40: 1, 8: 6}","[8, 38, 40, 58]",86382401581,Sr2Ce1Zr1O6
Sr2TbZrO6,mp-1521282,0.0,1.3140047,0.09027626418750145,"{38: 2, 65: 1, 40: 1, 8: 6}","[8, 38, 40, 65]",86382401651,Sr2Tb1Zr1O6
Sr2HfZrO6,mp-1519753,3.4242,2.25854135,0.04406771824999822,"{38: 2, 72: 1, 40: 1, 8: 6}","[8, 38, 40, 72]",86382401721,Sr2Hf1Zr1O6
Sr2ZrWO6,mp-1522533,0.0,4.78232854,0.11993376024999414,"{38: 2, 40: 1, 74: 1, 8: 6}","[8, 38, 40, 74]",86382401741,Sr2Zr1W1O6
Sr2NbInO6,mp-20222,3.2116,2.6676901,0.0,"{38: 2, 41: 1, 49: 1, 8: 6}","[8, 38, 41, 49]",86382411491,Sr2Nb1In1O6
Sr2NbSnO6,mp-1521167,0.0,6.81949391,0.15861387331247734,"{38: 2, 41: 1, 50: 1, 8: 6}","[8, 38, 41, 50]",86382411501,Sr2Nb1Sn1O6
Sr2NbSbO6,mp-1520815,1.1448999999999998,4.8044895,0.12139638065002156,"{38: 2, 41: 1, 51: 1, 8: 6}","[8, 38, 41, 51]",86382411511,Sr2Nb1Sb1O6
Sr2LaNbO6,mp-1518670,3.0938,2.77626121,0.06582139962500122,"{38: 2, 57: 1, 41: 1, 8: 6}","[8, 38, 41, 57]",86382411571,Sr2La1Nb1O6
Sr2CeNbO6,mp-1522970,0.0,5.66816297,0.06640119633821762,"{38: 2, 58: 1, 41: 1, 8: 6}","[8, 38, 41, 58]",86382411581,Sr2Ce1Nb1O6
Sr2PrNbO6,mp-1517368,3.5137,1.48786959,0.06108651543750199,"{38: 2, 59: 1, 41: 1, 8: 6}","[8, 38, 41, 59]",86382411591,Sr2Pr1Nb1O6
Sr2NdNbO6,mp-1521536,3.0047000000000006,1.74156264,0.05232267112500111,"{38: 2, 60: 1, 41: 1, 8: 6}","[8, 38, 41, 60]",86382411601,Sr2Nd1Nb1O6
Sr2SmNbO6,mp-8496,3.1716000000000006,1.69809568,0.0032816765624978927,"{38: 2, 62: 1, 41: 1, 8: 6}","[8, 38, 41, 62]",86382411621,Sr2Sm1Nb1O6
Sr2EuNbO6,mp-1520209,0.0,2.36166823,0.11766722999999857,"{38: 2, 63: 1, 41: 1, 8: 6}","[8, 38, 41, 63]",86382411631,Sr2Eu1Nb1O6
Sr2GdNbO6,mp-1518774,2.8344000000000005,1.99790654,0.0234097497499981,"{38: 2, 64: 1, 41: 1, 8: 6}","[8, 38, 41, 64]",86382411641,Sr2Gd1Nb1O6
Sr2TbNbO6,mp-1516557,3.1053999999999995,1.81029805,0.016661777187499283,"{38: 2, 65: 1, 41: 1, 8: 6}","[8, 38, 41, 65]",86382411651,Sr2Tb1Nb1O6
Sr2DyNbO6,mp-1517204,2.8969000000000005,2.00616925,0.05739561499999901,"{38: 2, 66: 1, 41: 1, 8: 6}","[8, 38, 41, 66]",86382411661,Sr2Dy1Nb1O6
Sr2TmNbO6,mp-557387,2.8569999999999993,2.14065064,0.03303300462500047,"{38: 2, 69: 1, 41: 1, 8: 6}","[8, 38, 41, 69]",86382411691,Sr2Tm1Nb1O6
Sr2LuNbO6,mp-1188959,3.2094,4.84261241,0.0,"{38: 2, 71: 1, 41: 1, 8: 6}","[8, 38, 41, 71]",86382411711,Sr2Lu1Nb1O6
Sr2HfNbO6,mp-1518847,0.0,5.83417104,0.05865348275001381,"{38: 2, 72: 1, 41: 1, 8: 6}","[8, 38, 41, 72]",86382411721,Sr2Hf1Nb1O6
Sr2NbWO6,mp-1517644,0.7211999999999996,4.59058468,0.10221577399999582,"{38: 2, 41: 1, 74: 1, 8: 6}","[8, 38, 41, 74]",86382411741,Sr2Nb1W1O6
Sr2NbBiO6,mp-1518801,2.0916,3.50157156,0.06068233350000263,"{38: 2, 41: 1, 83: 1, 8: 6}","[8, 38, 41, 83]",86382411831,Sr2Nb1Bi1O6
Sr2GdMoO6,mp-1105454,1.3501000000000003,4.43212321,0.0,"{38: 2, 64: 1, 42: 1, 8: 6}","[8, 38, 42, 64]",86382421641,Sr2Gd1Mo1O6
Sr2DyMoO6,mp-1105402,1.3440000000000003,4.58771249,0.0,"{38: 2, 66: 1, 42: 1, 8: 6}","[8, 38, 42, 66]",86382421661,Sr2Dy1Mo1O6
Sr2HoMoO6,mp-1105394,1.3319999999999999,4.52899136,0.0,"{38: 2, 67: 1, 42: 1, 8: 6}","[8, 38, 42, 67]",86382421671,Sr2Ho1Mo1O6
Sr2ErMoO6,mp-18744,0.9364999999999997,3.32433521,0.0,"{38: 2, 68: 1, 42: 1, 8: 6}","[8, 38, 42, 68]",86382421681,Sr2Er1Mo1O6
Sr2RuO6,mp-675618,0.20209999999999995,1.27738534,0.6425222993849182,"{38: 2, 44: 1, 8: 6}","[8, 38, 44]",86382441,Sr2Ru1O6
Sr2GdRuO6,mp-16796,0.2536999999999998,3.03869703,0.0,"{38: 2, 64: 1, 44: 1, 8: 6}","[8, 38, 44, 64]",86382441641,Sr2Gd1Ru1O6
Sr2TbRuO6,mp-6068,0.18789999999999996,3.05258049,0.0,"{38: 2, 65: 1, 44: 1, 8: 6}","[8, 38, 44, 65]",86382441651,Sr2Tb1Ru1O6
Sr2DyRuO6,mp-1188108,0.25180000000000025,3.20066429,0.0,"{38: 2, 66: 1, 44: 1, 8: 6}","[8, 38, 44, 66]",86382441661,Sr2Dy1Ru1O6
Sr2HoRuO6,mp-6676,0.0,3.18413055,0.0,"{38: 2, 67: 1, 44: 1, 8: 6}","[8, 38, 44, 67]",86382441671,Sr2Ho1Ru1O6
Sr2ErRuO6,mp-6294,0.0,3.35086358,0.0,"{38: 2, 68: 1, 44: 1, 8: 6}","[8, 38, 44, 68]",86382441681,Sr2Er1Ru1O6
Sr2TmRuO6,mp-542767,0.0,3.27641607,0.0,"{38: 2, 69: 1, 44: 1, 8: 6}","[8, 38, 44, 69]",86382441691,Sr2Tm1Ru1O6
Sr2LuRuO6,mp-20687,0.11470000000000002,3.12757098,0.0,"{38: 2, 71: 1, 44: 1, 8: 6}","[8, 38, 44, 71]",86382441711,Sr2Lu1Ru1O6
Sr2CdWO6,mp-19014,3.4605,1.68183696,0.0,"{38: 2, 48: 1, 74: 1, 8: 6}","[8, 38, 48, 74]",86382481741,Sr2Cd1W1O6
Sr2UCdO6,mp-1188876,1.9642999999999997,4.45304767,0.010074257500007455,"{38: 2, 92: 1, 48: 1, 8: 6}","[8, 38, 48, 92]",86382481921,Sr2U1Cd1O6
Sr2InSbO6,mp-22355,2.0177,3.77618628,0.0,"{38: 2, 49: 1, 51: 1, 8: 6}","[8, 38, 49, 51]",86382491511,Sr2In1Sb1O6
Sr2TaInO6,mp-1190108,3.9813,6.74343843,0.0,"{38: 2, 73: 1, 49: 1, 8: 6}","[8, 38, 49, 73]",86382491731,Sr2Ta1In1O6
Sr2InWO6,mp-1520931,0.0,6.02740877,0.14685220199999982,"{38: 2, 49: 1, 74: 1, 8: 6}","[8, 38, 49, 74]",86382491741,Sr2In1W1O6
Sr2InReO6,mp-1205698,0.0,5.52903049,0.10849896726189456,"{38: 2, 49: 1, 75: 1, 8: 6}","[8, 38, 49, 75]",86382491751,Sr2In1Re1O6
Sr2InOsO6,mp-1105283,0.47219999999999995,5.17232076,0.0,"{38: 2, 49: 1, 76: 1, 8: 6}","[8, 38, 49, 76]",86382491761,Sr2In1Os1O6
Sr2InBiO6,mp-1518266,0.6187,3.20256119,0.002795937250001934,"{38: 2, 49: 1, 83: 1, 8: 6}","[8, 38, 49, 83]",86382491831,Sr2In1Bi1O6
Sr2UInO6,mp-1206007,1.0488,6.12723915,0.11097046944444777,"{38: 2, 92: 1, 49: 1, 8: 6}","[8, 38, 49, 92]",86382491921,Sr2U1In1O6
BaSr2In2O6,mp-1227817,1.0725000000000002,3.00852886,0.044860575909098976,"{56: 1, 38: 2, 49: 2, 8: 6}","[8, 38, 49, 56]",86382492561,Ba1Sr2In2O6
Sr2CeSnO6,mp-1518971,2.2874,3.24677073,0.021115265249997073,"{38: 2, 58: 1, 50: 1, 8: 6}","[8, 38, 50, 58]",86382501581,Sr2Ce1Sn1O6
Sr2PrSnO6,mp-1517243,0.0,2.14747507,0.1083547477031166,"{38: 2, 59: 1, 50: 1, 8: 6}","[8, 38, 50, 59]",86382501591,Sr2Pr1Sn1O6
Sr2TbSnO6,mp-1517981,0.0,2.24751643,0.06680747731250847,"{38: 2, 65: 1, 50: 1, 8: 6}","[8, 38, 50, 65]",86382501651,Sr2Tb1Sn1O6
Sr2HfSnO6,mp-1520511,3.7826999999999997,3.31101027,0.018647883250000774,"{38: 2, 72: 1, 50: 1, 8: 6}","[8, 38, 50, 72]",86382501721,Sr2Hf1Sn1O6
Sr2LaSbO6,mp-1189102,3.4224,6.9715775,0.0,"{38: 2, 57: 1, 51: 1, 8: 6}","[8, 38, 51, 57]",86382511571,Sr2La1Sb1O6
Sr2CeSbO6,mp-1518851,0.0,6.79094003,0.08310653110000299,"{38: 2, 58: 1, 51: 1, 8: 6}","[8, 38, 51, 58]",86382511581,Sr2Ce1Sb1O6
Sr2PrSbO6,mp-1519896,3.4762999999999997,2.68993006,0.0,"{38: 2, 59: 1, 51: 1, 8: 6}","[8, 38, 51, 59]",86382511591,Sr2Pr1Sb1O6
Sr2NdSbO6,mp-1516795,3.507,2.7617923,0.0,"{38: 2, 60: 1, 51: 1, 8: 6}","[8, 38, 51, 60]",86382511601,Sr2Nd1Sb1O6
Sr2SmSbO6,mp-972216,3.6616,2.63488419,0.0,"{38: 2, 62: 1, 51: 1, 8: 6}","[8, 38, 51, 62]",86382511621,Sr2Sm1Sb1O6
Sr2EuSbO6,mp-1522409,0.0,3.11498305,0.0470303895000006,"{38: 2, 63: 1, 51: 1, 8: 6}","[8, 38, 51, 63]",86382511631,Sr2Eu1Sb1O6
Sr2GdSbO6,mp-1523375,3.3665,2.83967391,0.0,"{38: 2, 64: 1, 51: 1, 8: 6}","[8, 38, 51, 64]",86382511641,Sr2Gd1Sb1O6
Sr2TbSbO6,mp-1517293,3.5439000000000003,2.81879974,0.0,"{38: 2, 65: 1, 51: 1, 8: 6}","[8, 38, 51, 65]",86382511651,Sr2Tb1Sb1O6
Sr2DySbO6,mp-1519036,3.4625999999999997,3.02790175,0.0,"{38: 2, 66: 1, 51: 1, 8: 6}","[8, 38, 51, 66]",86382511661,Sr2Dy1Sb1O6
Sr2HoSbO6,mp-558039,3.6445000000000003,2.72881782,0.0,"{38: 2, 67: 1, 51: 1, 8: 6}","[8, 38, 51, 67]",86382511671,Sr2Ho1Sb1O6
Sr2BiSbO6,mp-1518287,1.9364,4.11250866,0.027240078250007294,"{38: 2, 83: 1, 51: 1, 8: 6}","[8, 38, 51, 83]",86382511831,Sr2Bi1Sb1O6
BaSr2UO6,mp-1227809,2.2417,2.10597311,0.011261629500001646,"{56: 1, 38: 2, 92: 1, 8: 6}","[8, 38, 56, 92]",86382561921,Ba1Sr2U1O6