formula,material_id,band_gap,efermi,energy_above_hull,comp_atoms,sorted_keys_comp_atoms,comp_number,new_formula
Sr2La2CuRuO8,mp-1218695,0.0,6.26012323,0.0825657661607222,"{38: 2, 57: 2, 29: 1, 44: 1, 8: 8}","[8, 29, 38, 44, 57]",88291382441572,Sr2La2Cu1Ru1O8
Sr3LaCuRuO8,mp-1218344,0.0,4.56735347,0.04155524330357263,"{38: 3, 57: 1, 29: 1, 44: 1, 8: 8}","[8, 29, 38, 44, 57]",88291383441571,Sr3La1Cu1Ru1O8
Sr3NdCuRuO8,mp-1218490,0.0,3.77089711,0.0532916524107403,"{38: 3, 60: 1, 29: 1, 44: 1, 8: 8}","[8, 29, 38, 44, 60]",88291383441601,Sr3Nd1Cu1Ru1O8
SrLa3(CuO4)2,mp-1218244,0.0,6.42511046,0.03974291001120989,"{38: 1, 57: 3, 29: 2, 8: 8}","[8, 29, 38, 57]",88292381573,Sr1La3Cu2O8
Sr2YCu2BiPbO8,mp-1219942,0.0,3.89905519,0.0,"{38: 2, 39: 1, 29: 2, 83: 1, 82: 1, 8: 8}","[8, 29, 38, 39, 82, 83]",88292382391821831,Sr2Y1Cu2Bi1Pb1O8
Sr2YCu2(BiO4)2,mp-1208863,0.0,5.2812548,0.091557456291679,"{38: 2, 39: 1, 29: 2, 83: 2, 8: 8}","[8, 29, 38, 39, 83]",88292382391832,Sr2Y1Cu2Bi2O8
Sr2NdNb(CuO4)2,mp-1173261,0.0,3.92683092,0.016059287142851986,"{38: 2, 60: 1, 41: 1, 29: 2, 8: 8}","[8, 29, 38, 41, 60]",88292382411601,Sr2Nd1Nb1Cu2O8
Sr2SmNb(CuO4)2,mp-18490,0.0,3.87482605,0.013347558973215712,"{38: 2, 62: 1, 41: 1, 29: 2, 8: 8}","[8, 29, 38, 41, 62]",88292382411621,Sr2Sm1Nb1Cu2O8
Sr2EuNb(CuO4)2,mp-16786,0.0,3.4460327,0.05742290857142951,"{38: 2, 63: 1, 41: 1, 29: 2, 8: 8}","[8, 29, 38, 41, 63]",88292382411631,Sr2Eu1Nb1Cu2O8
Sr2GdCu2RuO8,mp-1194240,0.0,3.92606448,0.021344923928584336,"{38: 2, 64: 1, 29: 2, 44: 1, 8: 8}","[8, 29, 38, 44, 64]",88292382441641,Sr2Gd1Cu2Ru1O8
Sr2HoCu2RuO8,mp-1218811,0.0,4.0958192,0.056064856071417424,"{38: 2, 67: 1, 29: 2, 44: 1, 8: 8}","[8, 29, 38, 44, 67]",88292382441671,Sr2Ho1Cu2Ru1O8
Sr2LaCu2(BiO4)2,mp-1209034,0.0,5.6986815,0.08900861866666432,"{38: 2, 57: 1, 29: 2, 83: 2, 8: 8}","[8, 29, 38, 57, 83]",88292382571832,Sr2La1Cu2Bi2O8
Sr2PrCu2(BiO4)2,mp-1208752,0.0,5.05599766,0.11212486266666755,"{38: 2, 59: 1, 29: 2, 83: 2, 8: 8}","[8, 29, 38, 59, 83]",88292382591832,Sr2Pr1Cu2Bi2O8
Sr2NdTa(CuO4)2,mp-1173255,0.0,3.92804165,0.005810249107145005,"{38: 2, 60: 1, 73: 1, 29: 2, 8: 8}","[8, 29, 38, 60, 73]",88292382601731,Sr2Nd1Ta1Cu2O8
Sr2NdCu2(BiO4)2,mp-1208768,0.0,5.04937113,0.10949829866666594,"{38: 2, 60: 1, 29: 2, 83: 2, 8: 8}","[8, 29, 38, 60, 83]",88292382601832,Sr2Nd1Cu2Bi2O8
Sr2SmTa(CuO4)2,mp-1173254,0.0,3.93352755,0.014535492857137733,"{38: 2, 62: 1, 73: 1, 29: 2, 8: 8}","[8, 29, 38, 62, 73]",88292382621731,Sr2Sm1Ta1Cu2O8
Sr2SmCu2(BiO4)2,mp-1208767,0.0,5.03546754,0.10764348200001184,"{38: 2, 62: 1, 29: 2, 83: 2, 8: 8}","[8, 29, 38, 62, 83]",88292382621832,Sr2Sm1Cu2Bi2O8
Sr2EuTa(CuO4)2,mp-1208877,0.0,3.38327757,0.06583404946428484,"{38: 2, 63: 1, 73: 1, 29: 2, 8: 8}","[8, 29, 38, 63, 73]",88292382631731,Sr2Eu1Ta1Cu2O8
Sr2EuCu2(BiO4)2,mp-1208972,0.0,4.62953061,0.12382373100001764,"{38: 2, 63: 1, 29: 2, 83: 2, 8: 8}","[8, 29, 38, 63, 83]",88292382631832,Sr2Eu1Cu2Bi2O8
Sr2GdTa(CuO4)2,mp-1209256,0.0,4.23121217,0.043866956071427765,"{38: 2, 64: 1, 73: 1, 29: 2, 8: 8}","[8, 29, 38, 64, 73]",88292382641731,Sr2Gd1Ta1Cu2O8
Sr2GdCu2IrO8,mp-1218849,0.0,3.98074535,0.0,"{38: 2, 64: 1, 29: 2, 77: 1, 8: 8}","[8, 29, 38, 64, 77]",88292382641771,Sr2Gd1Cu2Ir1O8
Sr2TbCu2IrO8,mp-1218764,0.0,5.89498102,0.06513067250000049,"{38: 2, 65: 1, 29: 2, 77: 1, 8: 8}","[8, 29, 38, 65, 77]",88292382651771,Sr2Tb1Cu2Ir1O8
Sr2TbCu2(BiO4)2,mp-1208746,0.0,5.17766112,0.10947587162501815,"{38: 2, 65: 1, 29: 2, 83: 2, 8: 8}","[8, 29, 38, 65, 83]",88292382651832,Sr2Tb1Cu2Bi2O8
Sr2DyCu2(BiO4)2,mp-1209149,0.0,5.23958693,0.08915540333335148,"{38: 2, 66: 1, 29: 2, 83: 2, 8: 8}","[8, 29, 38, 66, 83]",88292382661832,Sr2Dy1Cu2Bi2O8
Sr2HoCu2(BiO4)2,mp-1208840,0.0,5.22112753,0.11523009562501851,"{38: 2, 67: 1, 29: 2, 83: 2, 8: 8}","[8, 29, 38, 67, 83]",88292382671832,Sr2Ho1Cu2Bi2O8
Sr2ErCu2(BiO4)2,mp-1208931,0.0,5.2819214,0.11539252866666327,"{38: 2, 68: 1, 29: 2, 83: 2, 8: 8}","[8, 29, 38, 68, 83]",88292382681832,Sr2Er1Cu2Bi2O8
Sr2TmCu2(BiO4)2,mp-1208757,0.0,5.37929453,0.11982005374999538,"{38: 2, 69: 1, 29: 2, 83: 2, 8: 8}","[8, 29, 38, 69, 83]",88292382691832,Sr2Tm1Cu2Bi2O8
Sr2LuCu2(BiO4)2,mp-1208811,0.0,5.29836923,0.13384132587499575,"{38: 2, 71: 1, 29: 2, 83: 2, 8: 8}","[8, 29, 38, 71, 83]",88292382711832,Sr2Lu1Cu2Bi2O8
Sr2YCu3(PbO4)2,mp-1198573,0.0,4.78188204,0.023811186435544585,"{38: 2, 39: 1, 29: 3, 82: 2, 8: 8}","[8, 29, 38, 39, 82]",88293382391822,Sr2Y1Cu3Pb2O8
Sr2PrCu3(PbO4)2,mp-1218727,0.0,4.55010712,0.019367532382815966,"{38: 2, 59: 1, 29: 3, 82: 2, 8: 8}","[8, 29, 38, 59, 82]",88293382591822,Sr2Pr1Cu3Pb2O8
Sr2NdCu3(PbO4)2,mp-1218726,0.0,4.50309992,0.017992559257812957,"{38: 2, 60: 1, 29: 3, 82: 2, 8: 8}","[8, 29, 38, 60, 82]",88293382601822,Sr2Nd1Cu3Pb2O8
Sr2SmCu3(PbO4)2,mp-20437,0.0,4.50775427,0.020783872763676214,"{38: 2, 62: 1, 29: 3, 82: 2, 8: 8}","[8, 29, 38, 62, 82]",88293382621822,Sr2Sm1Cu3Pb2O8
Sr2EuCu3(PbO4)2,mp-20041,0.0,4.23392024,0.05634280741210862,"{38: 2, 63: 1, 29: 3, 82: 2, 8: 8}","[8, 29, 38, 63, 82]",88293382631822,Sr2Eu1Cu3Pb2O8
Sr2GdCu3(PbO4)2,mp-22543,0.0,4.44891398,0.024468021318353017,"{38: 2, 64: 1, 29: 3, 82: 2, 8: 8}","[8, 29, 38, 64, 82]",88293382641822,Sr2Gd1Cu3Pb2O8
Sr2DyCu3(PbO4)2,mp-22301,0.0,4.56862286,0.02653524366210913,"{38: 2, 66: 1, 29: 3, 82: 2, 8: 8}","[8, 29, 38, 66, 82]",88293382661822,Sr2Dy1Cu3Pb2O8
Sr2HoCu3(PbO4)2,mp-18089,0.0,4.81171089,0.022531855185546235,"{38: 2, 67: 1, 29: 3, 82: 2, 8: 8}","[8, 29, 38, 67, 82]",88293382671822,Sr2Ho1Cu3Pb2O8
Sr2ErCu3(PbO4)2,mp-14825,0.0,4.58845786,0.03064178147460961,"{38: 2, 68: 1, 29: 3, 82: 2, 8: 8}","[8, 29, 38, 68, 82]",88293382681822,Sr2Er1Cu3Pb2O8
BaSrY(CuO2)4,mp-1227433,0.0,3.40682501,0.0016457893333274853,"{56: 1, 38: 1, 39: 1, 29: 4, 8: 8}","[8, 29, 38, 39, 56]",88294381391561,Ba1Sr1Y1Cu4O8
Sr3La(CuO2)4,mp-1218623,0.0,4.54130274,0.02846000187500053,"{38: 3, 57: 1, 29: 4, 8: 8}","[8, 29, 38, 57]",88294383571,Sr3La1Cu4O8
Sr3LaZnRuO8,mp-1218437,0.5087999999999999,3.78293065,0.010878561517857044,"{38: 3, 57: 1, 30: 1, 44: 1, 8: 8}","[8, 30, 38, 44, 57]",88301383441571,Sr3La1Zn1Ru1O8
SrZn2(AsO4)2,mp-15740,2.8662,-0.09432265,0.0,"{38: 1, 30: 2, 33: 2, 8: 8}","[8, 30, 33, 38]",88302332381,Sr1Zn2As2O8
SrGa2(GeO4)2,mp-540621,3.0761,-0.12981792,0.0,"{38: 1, 31: 2, 32: 2, 8: 8}","[8, 31, 32, 38]",88312322381,Sr1Ga2Ge2O8
Sr(AsO4)2,mp-726670,2.0151,0.67245448,0.5842798711363546,"{38: 1, 33: 2, 8: 8}","[8, 33, 38]",88332381,Sr1As2O8
SrLaTl(AsO4)2,mp-685195,3.5481,1.76131075,0.0,"{38: 1, 57: 1, 81: 1, 33: 2, 8: 8}","[8, 33, 38, 57, 81]",88332381571811,Sr1La1Tl1As2O8
Sr3(AsO4)2,mp-755082,3.7859999999999996,1.54909262,0.0,"{38: 3, 33: 2, 8: 8}","[8, 33, 38]",88332383,Sr3As2O8
SrU(SeO4)2,mp-556481,1.9813999999999998,0.86831518,0.0,"{38: 1, 92: 1, 34: 2, 8: 8}","[8, 34, 38, 92]",88342381921,Sr1U1Se2O8
SrBiBr5O8,mp-1179695,0.0,-1.20046949,0.5597504962500022,"{38: 1, 83: 1, 35: 5, 8: 8}","[8, 35, 38, 83]",88355381831,Sr1Bi1Br5O8
BaSrY4O8,mp-1227529,3.7192999999999996,1.84299623,0.005620707767876709,"{56: 1, 38: 1, 39: 4, 8: 8}","[8, 38, 39, 56]",88381394561,Ba1Sr1Y4O8
SrMo5O8,mp-15096,1.3900000000000006,4.08510906,0.24465615214285208,"{38: 1, 42: 5, 8: 8}","[8, 38, 42]",88381425,Sr1Mo5O8
Sr(RhO2)4,mp-1218903,0.06809999999999938,4.46282405,0.037060774846140454,"{38: 1, 45: 4, 8: 8}","[8, 38, 45]",88381454,Sr1Rh4O8
SrAg2(IO2)4,mp-1179111,0.7904999999999998,3.58536886,0.21665240844444345,"{38: 1, 47: 2, 53: 4, 8: 8}","[8, 38, 47, 53]",88381472534,Sr1Ag2I4O8
SrCd(IO2)4,mp-727834,0.0,1.53615113,0.6136552900753989,"{38: 1, 48: 1, 53: 4, 8: 8}","[8, 38, 48, 53]",88381481534,Sr1Cd1I4O8
SrTe3O8,mp-3252,2.1871,4.6466872,0.005273383124996478,"{38: 1, 52: 3, 8: 8}","[8, 38, 52]",88381523,Sr1Te3O8
SrHg(IO2)4,mp-1197293,0.3247,2.18015412,0.35640321598212577,"{38: 1, 80: 1, 53: 4, 8: 8}","[8, 38, 53, 80]",88381534801,Sr1Hg1I4O8
BaSrLa4O8,mp-1227776,3.2168,4.42165259,0.04727711517857358,"{56: 1, 38: 1, 57: 4, 8: 8}","[8, 38, 56, 57]",88381561574,Ba1Sr1La4O8
BaSrNd4O8,mp-1227531,3.4682000000000004,1.81615232,0.023218972857145914,"{56: 1, 38: 1, 60: 4, 8: 8}","[8, 38, 56, 60]",88381561604,Ba1Sr1Nd4O8
BaSrSm4O8,mp-1227501,3.5735,1.72822932,0.01667012848215954,"{56: 1, 38: 1, 62: 4, 8: 8}","[8, 38, 56, 62]",88381561624,Ba1Sr1Sm4O8
BaSrEu4O8,mp-1227979,0.0,2.0246193,0.2068412282142873,"{56: 1, 38: 1, 63: 4, 8: 8}","[8, 38, 56, 63]",88381561634,Ba1Sr1Eu4O8
BaSrGd4O8,mp-1228688,3.0431000000000004,5.05990617,0.010817031250001108,"{56: 1, 38: 1, 64: 4, 8: 8}","[8, 38, 56, 64]",88381561644,Ba1Sr1Gd4O8
BaSrDy4O8,mp-1227771,3.6976,1.79103808,0.006304938928572312,"{56: 1, 38: 1, 66: 4, 8: 8}","[8, 38, 56, 66]",88381561664,Ba1Sr1Dy4O8
BaSrHo4O8,mp-1227777,3.7376,1.72851021,0.004519962410734379,"{56: 1, 38: 1, 67: 4, 8: 8}","[8, 38, 56, 67]",88381561674,Ba1Sr1Ho4O8
BaSrEr4O8,mp-1227774,3.7462,1.71424285,0.0036303308928573585,"{56: 1, 38: 1, 68: 4, 8: 8}","[8, 38, 56, 68]",88381561684,Ba1Sr1Er4O8
BaSrTm4O8,mp-1227530,3.7798000000000003,1.66509715,0.0037221030357112994,"{56: 1, 38: 1, 69: 4, 8: 8}","[8, 38, 56, 69]",88381561694,Ba1Sr1Tm4O8
Ba3Sr(HgO2)4,mp-1228453,2.2041,2.67457724,0.0700862947916665,"{56: 3, 38: 1, 80: 4, 8: 8}","[8, 38, 56, 80]",88381563804,Ba3Sr1Hg4O8
Sr(AuO4)2,mp-1102450,0.0,1.85364314,0.39278663863636076,"{38: 1, 79: 2, 8: 8}","[8, 38, 79]",88381792,Sr1Au2O8
Sr3Ta2O8,mp-769252,4.082,1.11747976,0.058097754871836216,"{38: 3, 73: 2, 8: 8}","[8, 38, 73]",88383732,Sr3Ta2O8
Sr4SnPbO8,mp-1208734,1.8592999999999997,2.74824525,0.06656931749999728,"{38: 4, 50: 1, 82: 1, 8: 8}","[8, 38, 50, 82]",88384501821,Sr4Sn1Pb1O8
Sr4CePrO8,mp-1218498,0.0,1.8966658,0.03526260102678869,"{38: 4, 58: 1, 59: 1, 8: 8}","[8, 38, 58, 59]",88384581591,Sr4Ce1Pr1O8
Sr5(AuO4)2,mp-28796,1.3224,2.44944505,0.0,"{38: 5, 79: 2, 8: 8}","[8, 38, 79]",88385792,Sr5Au2O8
Sr2GaP2(O4F)2,mp-1197925,0.006399999999999961,1.05996828,0.063975770055551,"{38: 2, 31: 1, 15: 2, 8: 8, 9: 2}","[8, 9, 15, 31, 38]",8892152311382,Sr2Ga1P2O8F2
NaSr(PO3)3,mp-1020657,5.4112,0.69519953,0.0,"{11: 1, 38: 1, 15: 3, 8: 9}","[8, 11, 15, 38]",89111153381,Na1Sr1P3O9
NaSr2Ta3O9,mp-1220872,0.0,5.84983024,0.018042742059238392,"{11: 1, 38: 2, 73: 3, 8: 9}","[8, 11, 38, 73]",89111382733,Na1Sr2Ta3O9
Na2SrVP2O9,mp-555920,2.5425999999999993,1.92977888,0.000404240749996454,"{11: 2, 38: 1, 23: 1, 15: 2, 8: 9}","[8, 11, 15, 23, 38]",89112152231381,Na2Sr1V1P2O9
Na2SrV3O9,mp-557927,1.9857,3.317472,0.0,"{11: 2, 38: 1, 23: 3, 8: 9}","[8, 11, 23, 38]",89112233381,Na2Sr1V3O9
Na4Sr(SiO3)3,mp-559773,3.8397000000000006,1.3230175,0.04029230705880771,"{11: 4, 38: 1, 14: 3, 8: 9}","[8, 11, 14, 38]",89114143381,Na4Sr1Si3O9
Ba3SrMgNb2O9,mp-2232695,0.9994000000000001,2.81858354,0.20328984962499863,"{56: 3, 38: 1, 12: 1, 41: 2, 8: 9}","[8, 12, 38, 41, 56]",89121381412563,Ba3Sr1Mg1Nb2O9
Sr3MgTa2O9,mp-1103508,3.2965999999999998,2.57223991,0.0,"{38: 3, 12: 1, 73: 2, 8: 9}","[8, 12, 38, 73]",89121383732,Sr3Mg1Ta2O9
SrP2S2O9,mp-1179257,0.0,1.23337508,1.2501334872098226,"{38: 1, 15: 2, 16: 2, 8: 9}","[8, 15, 16, 38]",89152162381,Sr1P2S2O9
Sr2TiP2O9,mp-1218529,2.8073,2.15527438,0.010836186071438547,"{38: 2, 22: 1, 15: 2, 8: 9}","[8, 15, 22, 38]",89152221382,Sr2Ti1P2O9
SrVZnP2O9,mp-15526,2.4493,1.89884322,0.00875795157140935,"{38: 1, 23: 1, 30: 1, 15: 2, 8: 9}","[8, 15, 23, 30, 38]",89152231301381,Sr1V1Zn1P2O9
Sr2VP2O9,mp-1218530,1.5748000000000002,2.36528162,0.010047228035723776,"{38: 2, 23: 1, 15: 2, 8: 9}","[8, 15, 23, 38]",89152231382,Sr2V1P2O9
SrV2P2O9,mp-21614,1.174,2.77737621,0.0,"{38: 1, 23: 2, 15: 2, 8: 9}","[8, 15, 23, 38]",89152232381,Sr1V2P2O9
KSr2(BiO3)3,mp-1223333,0.0,3.56440491,0.05608682516666619,"{19: 1, 38: 2, 83: 3, 8: 9}","[8, 19, 38, 83]",89191382833,K1Sr2Bi3O9
K2SrV3O9,mp-554684,2.12,3.05506144,0.0,"{19: 2, 38: 1, 23: 3, 8: 9}","[8, 19, 23, 38]",89192233381,K2Sr1V3O9
Sr2CaTi3O9,mp-1218872,2.0672,3.07668933,0.011969809000001774,"{38: 2, 20: 1, 22: 3, 8: 9}","[8, 20, 22, 38]",89201223382,Sr2Ca1Ti3O9
Sr2CaFe2Bi2O9,mp-1209081,0.0,4.21815689,0.1062044304296883,"{38: 2, 20: 1, 26: 2, 83: 2, 8: 9}","[8, 20, 26, 38, 83]",89201262382832,Sr2Ca1Fe2Bi2O9
Sr2CaCu2Bi2O9,mp-1218884,0.0,3.4168963,0.1840414859374997,"{38: 2, 20: 1, 29: 2, 83: 2, 8: 9}","[8, 20, 29, 38, 83]",89201292382832,Sr2Ca1Cu2Bi2O9
Sr3CaRu2O9,mp-557111,0.0,3.46417236,0.0,"{38: 3, 20: 1, 44: 2, 8: 9}","[8, 20, 38, 44]",89201383442,Sr3Ca1Ru2O9
Sr3CaIr2O9,mp-1195131,0.0,3.72257141,0.0,"{38: 3, 20: 1, 77: 2, 8: 9}","[8, 20, 38, 77]",89201383772,Sr3Ca1Ir2O9
Sr2Ca2Ga(CuO3)3,mp-1209020,0.0,2.80435515,0.027288872058820246,"{38: 2, 20: 2, 31: 1, 29: 3, 8: 9}","[8, 20, 29, 31, 38]",89202293311382,Sr2Ca2Ga1Cu3O9
BaSrCa2Tl(CuO3)3,mp-1227794,0.0,3.31722297,0.023453583039216852,"{56: 1, 38: 1, 20: 2, 81: 1, 29: 3, 8: 9}","[8, 20, 29, 38, 56, 81]",89202293381561811,Ba1Sr1Ca2Tl1Cu3O9
SrCa2(TeO3)3,mp-1208684,3.3848999999999996,1.7784393,0.0036123119555480088,"{38: 1, 20: 2, 52: 3, 8: 9}","[8, 20, 38, 52]",89202381523,Sr1Ca2Te3O9
Sr3ZrTi2O9,mp-1218576,1.9425999999999997,4.64210312,0.018031799166665863,"{38: 3, 40: 1, 22: 2, 8: 9}","[8, 22, 38, 40]",89222383401,Sr3Zr1Ti2O9
Ba2SrTi3O9,mp-1228362,1.8073000000000001,3.04105107,0.0072884499999581465,"{56: 2, 38: 1, 22: 3, 8: 9}","[8, 22, 38, 56]",89223381562,Ba2Sr1Ti3O9
SrLa2Ti3O9,mp-1218904,0.0,8.53292476,0.023043555354187006,"{38: 1, 57: 2, 22: 3, 8: 9}","[8, 22, 38, 57]",89223381572,Sr1La2Ti3O9
Sr2VAs2O9,mp-1218545,1.8582999999999998,3.70680838,0.010061247321361932,"{38: 2, 23: 1, 33: 2, 8: 9}","[8, 23, 33, 38]",89231332382,Sr2V1As2O9
Sr2V3O9,mp-1218556,1.7738,1.55810253,0.014886901964283439,"{38: 2, 23: 3, 8: 9}","[8, 23, 38]",89233382,Sr2V3O9
SrV4O9,mp-18716,2.5099,1.27629151,0.0337116745982069,"{38: 1, 23: 4, 8: 9}","[8, 23, 38]",89234381,Sr1V4O9
Sr4Cr3O9,mp-554541,0.0,3.023766,0.04121368684895721,"{38: 4, 24: 3, 8: 9}","[8, 24, 38]",89243384,Sr4Cr3O9
Sr4Mn2CoO9,mp-562909,0.0,3.84090613,0.01749929071875833,"{38: 4, 25: 2, 27: 1, 8: 9}","[8, 25, 27, 38]",89252271384,Sr4Mn2Co1O9
Sr4Mn2CuO9,mp-1218681,0.6674000000000002,3.01883438,0.0,"{38: 4, 25: 2, 29: 1, 8: 9}","[8, 25, 29, 38]",89252291384,Sr4Mn2Cu1O9
SrLa2Mn3O9,mp-1218302,0.0,6.19830195,0.12246326899997229,"{38: 1, 57: 2, 25: 3, 8: 9}","[8, 25, 38, 57]",89253381572,Sr1La2Mn3O9
SrPr2Mn3O9,mp-1218264,0.0,4.3250925,0.0,"{38: 1, 59: 2, 25: 3, 8: 9}","[8, 25, 38, 59]",89253381592,Sr1Pr2Mn3O9
SrNd2Mn3O9,mp-1218259,0.0,4.04056546,0.0,"{38: 1, 60: 2, 25: 3, 8: 9}","[8, 25, 38, 60]",89253381602,Sr1Nd2Mn3O9
Sr2CeMn3O9,mp-1218910,0.0,4.43644363,0.02912393402777269,"{38: 2, 58: 1, 25: 3, 8: 9}","[8, 25, 38, 58]",89253382581,Sr2Ce1Mn3O9
Sr2PrMn3O9,mp-1218779,0.0,3.50218698,0.005141840916667029,"{38: 2, 59: 1, 25: 3, 8: 9}","[8, 25, 38, 59]",89253382591,Sr2Pr1Mn3O9
Sr2NdMn3O9,mp-1218797,0.0,3.51016696,0.00904411887882084,"{38: 2, 60: 1, 25: 3, 8: 9}","[8, 25, 38, 60]",89253382601,Sr2Nd1Mn3O9
Sr4FeRh2O9,mp-1208805,0.0,3.38590997,0.0,"{38: 4, 26: 1, 45: 2, 8: 9}","[8, 26, 38, 45]",89261384452,Sr4Fe1Rh2O9
Sr3Fe2MoO9,mp-1218650,0.7011000000000003,3.68104509,1.8087541668876383e-05,"{38: 3, 26: 2, 42: 1, 8: 9}","[8, 26, 38, 42]",89262383421,Sr3Fe2Mo1O9
Sr3Fe2RuO9,mp-1218474,0.0,3.10228409,0.024343843333334725,"{38: 3, 26: 2, 44: 1, 8: 9}","[8, 26, 38, 44]",89262383441,Sr3Fe2Ru1O9
Sr3Fe2TeO9,mp-1218440,2.1802000000000006,3.49670102,0.0015821836666702893,"{38: 3, 26: 2, 52: 1, 8: 9}","[8, 26, 38, 52]",89262383521,Sr3Fe2Te1O9
Sr3UFe2O9,mp-1218655,0.8969,3.84061852,0.036568728416666474,"{38: 3, 92: 1, 26: 2, 8: 9}","[8, 26, 38, 92]",89262383921,Sr3U1Fe2O9
Sr4TlFe2O9,mp-1218464,0.0,2.78073134,0.0,"{38: 4, 81: 1, 26: 2, 8: 9}","[8, 26, 38, 81]",89262384811,Sr4Tl1Fe2O9
SrLa2(FeO3)3,mp-1218605,0.0,5.33222262,0.012029344333337022,"{38: 1, 57: 2, 26: 3, 8: 9}","[8, 26, 38, 57]",89263381572,Sr1La2Fe3O9
SrGd2(FeO3)3,mp-1218646,0.0,4.12815546,0.11947082499999873,"{38: 1, 64: 2, 26: 3, 8: 9}","[8, 26, 38, 64]",89263381642,Sr1Gd2Fe3O9
SrFe3Bi2O9,mp-1218295,0.0,4.84731588,0.12783522899999689,"{38: 1, 26: 3, 83: 2, 8: 9}","[8, 26, 38, 83]",89263381832,Sr1Fe3Bi2O9
Sr2La(FeO3)3,mp-1218808,0.0,4.28804469,0.004330482000004743,"{38: 2, 57: 1, 26: 3, 8: 9}","[8, 26, 38, 57]",89263382571,Sr2La1Fe3O9
Sr2Pr(FeO3)3,mp-1218794,0.0,3.34368557,0.0,"{38: 2, 59: 1, 26: 3, 8: 9}","[8, 26, 38, 59]",89263382591,Sr2Pr1Fe3O9
Sr2Nd(FeO3)3,mp-1218798,0.0,3.27717163,0.0,"{38: 2, 60: 1, 26: 3, 8: 9}","[8, 26, 38, 60]",89263382601,Sr2Nd1Fe3O9
Sr2Gd(FeO3)3,mp-1218942,0.0,3.10136509,0.010264314500002314,"{38: 2, 64: 1, 26: 3, 8: 9}","[8, 26, 38, 64]",89263382641,Sr2Gd1Fe3O9
Sr2Co(SeO3)3,mp-17540,2.9627,1.49093039,0.0,"{38: 2, 27: 1, 34: 3, 8: 9}","[8, 27, 34, 38]",89271343382,Sr2Co1Se3O9
Sr3Nb2CoO9,mp-1179777,0.4104000000000001,1.04025861,0.2575617811666726,"{38: 3, 41: 2, 27: 1, 8: 9}","[8, 27, 38, 41]",89271383412,Sr3Nb2Co1O9
Sr3CoSb2O9,mp-1218557,0.6048,4.47482763,0.02664964616666854,"{38: 3, 27: 1, 51: 2, 8: 9}","[8, 27, 38, 51]",89271383512,Sr3Co1Sb2O9
Sr3LaGaCo2O9,mp-1218696,0.0,4.07009299,0.17443999484374917,"{38: 3, 57: 1, 31: 1, 27: 2, 8: 9}","[8, 27, 31, 38, 57]",89272311383571,Sr3La1Ga1Co2O9
Sr3Co2O9,mp-1208785,0.0,2.38096295,0.36783254732142634,"{38: 3, 27: 2, 8: 9}","[8, 27, 38]",89272383,Sr3Co2O9
Sr3Co2TeO9,mp-1218444,0.0,3.86461038,0.06735228053334463,"{38: 3, 27: 2, 52: 1, 8: 9}","[8, 27, 38, 52]",89272383521,Sr3Co2Te1O9
Sr3Co2WO9,mp-1218612,0.0,3.23742491,0.07033748753334645,"{38: 3, 27: 2, 74: 1, 8: 9}","[8, 27, 38, 74]",89272383741,Sr3Co2W1O9
SrLa2(CoO3)3,mp-1308812,0.0,5.18294788,0.003858822500028225,"{38: 1, 57: 2, 27: 3, 8: 9}","[8, 27, 38, 57]",89273381572,Sr1La2Co3O9
Sr2Cu(SeO3)3,mp-17738,0.08410000000000029,2.42338579,0.005247150000005085,"{38: 2, 29: 1, 34: 3, 8: 9}","[8, 29, 34, 38]",89291343382,Sr2Cu1Se3O9
Sr3Nb2CuO9,mp-1218633,0.22840000000000016,3.28793082,0.03732469366666891,"{38: 3, 41: 2, 29: 1, 8: 9}","[8, 29, 38, 41]",89291383412,Sr3Nb2Cu1O9
Sr4CuIr2O9,mp-1218745,0.2241000000000004,3.9864935,0.0,"{38: 4, 29: 1, 77: 2, 8: 9}","[8, 29, 38, 77]",89291384772,Sr4Cu1Ir2O9
Sr2NdCu2RuO9,mp-1218771,0.0,3.91007849,0.06134990897917092,"{38: 2, 60: 1, 29: 2, 44: 1, 8: 9}","[8, 29, 38, 44, 60]",89292382441601,Sr2Nd1Cu2Ru1O9
Sr3Nb2ZnO9,mp-1218413,2.6769,2.25555116,0.022142555666702535,"{38: 3, 41: 2, 30: 1, 8: 9}","[8, 30, 38, 41]",89301383412,Sr3Nb2Zn1O9
Sr3Ta2ZnO9,mp-1103389,3.4116000000000004,2.49706233,0.009813026555594462,"{38: 3, 73: 2, 30: 1, 8: 9}","[8, 30, 38, 73]",89301383732,Sr3Ta2Zn1O9
Sr3Ga4O9,mp-30158,2.8947,0.64568745,0.0,"{38: 3, 31: 4, 8: 9}","[8, 31, 38]",89314383,Sr3Ga4O9
SrGe4O9,mp-9380,3.0645000000000002,0.92624548,0.027352646547606163,"{38: 1, 32: 4, 8: 9}","[8, 32, 38]",89324381,Sr1Ge4O9
Ba3SrNb2O9,mp-540949,3.4254999999999995,1.35157847,0.0,"{56: 3, 38: 1, 41: 2, 8: 9}","[8, 38, 41, 56]",89381412563,Ba3Sr1Nb2O9
SrSm2Nb2O9,mp-510544,2.1183,1.63850986,0.06631273504461888,"{38: 1, 62: 2, 41: 2, 8: 9}","[8, 38, 41, 62]",89381412622,Sr1Sm2Nb2O9
SrNb2Bi2O9,mp-23614,2.5807,2.71228075,0.0,"{38: 1, 41: 2, 83: 2, 8: 9}","[8, 38, 41, 83]",89381412832,Sr1Nb2Bi2O9
Ba3SrRu2O9,mp-6641,0.0,3.07344251,0.0,"{56: 3, 38: 1, 44: 2, 8: 9}","[8, 38, 44, 56]",89381442563,Ba3Sr1Ru2O9
Ba3SrSb2O9,mp-555078,3.1456,2.435466,0.0,"{56: 3, 38: 1, 51: 2, 8: 9}","[8, 38, 51, 56]",89381512563,Ba3Sr1Sb2O9
Ba2Sr(IrO3)3,mp-1229074,0.0,4.67971785,0.07460693097436,"{56: 2, 38: 1, 77: 3, 8: 9}","[8, 38, 56, 77]",89381562773,Ba2Sr1Ir3O9
Ba3SrTa2O9,mp-540950,4.0236,1.45472987,0.0,"{56: 3, 38: 1, 73: 2, 8: 9}","[8, 38, 56, 73]",89381563732,Ba3Sr1Ta2O9
Ba3SrIr2O9,mp-554266,0.0,3.23339283,0.0,"{56: 3, 38: 1, 77: 2, 8: 9}","[8, 38, 56, 77]",89381563772,Ba3Sr1Ir2O9
SrTa2Bi2O9,mp-23089,2.5141999999999998,2.9709688,0.0,"{38: 1, 73: 2, 83: 2, 8: 9}","[8, 38, 73, 83]",89381732832,Sr1Ta2Bi2O9
Sr(ReO3)3,mp-531197,0.0,2.02244458,0.03792800247435757,"{38: 1, 75: 3, 8: 9}","[8, 38, 75]",89381753,Sr1Re3O9
SrBi5O9,mp-753357,0.0,3.74966578,0.06989086533333655,"{38: 1, 83: 5, 8: 9}","[8, 38, 83]",89381835,Sr1Bi5O9
Sr2Nb5O9,mp-22772,0.0,5.38340765,0.03851190104166591,"{38: 2, 41: 5, 8: 9}","[8, 38, 41]",89382415,Sr2Nb5O9