formula,material_id,band_gap,efermi,energy_above_hull,comp_atoms,sorted_keys_comp_atoms,comp_number,new_formula
Sr10Fe3Co2(MoO6)5,mp-1218936,0.0,4.51695499,0.03180174103333755,"{38: 10, 26: 3, 27: 2, 42: 5, 8: 30}","[8, 26, 27, 38, 42]",8302632723810425,Sr10Fe3Co2Mo5O30
Sr10Fe4Co(MoO6)5,mp-720106,0.22799999999999976,4.6688115,0.01694180981429838,"{38: 10, 26: 4, 27: 1, 42: 5, 8: 30}","[8, 26, 27, 38, 42]",8302642713810425,Sr10Fe4Co1Mo5O30
Sr10Fe5Mo4WO30,mp-1218929,1.2270000000000003,3.44944722,0.004012947449998805,"{38: 10, 26: 5, 42: 4, 74: 1, 8: 30}","[8, 26, 38, 42, 74]",8302653810424741,Sr10Fe5Mo4W1O30
Sr8Nd2Fe5(MoO6)5,mp-695057,0.0,4.35061213,0.011939977616666653,"{38: 8, 60: 2, 26: 5, 42: 5, 8: 30}","[8, 26, 38, 42, 60]",830265388425602,Sr8Nd2Fe5Mo5O30
Sr9NdFe5(MoO6)5,mp-698711,0.5386000000000006,4.01395764,0.011040241766674619,"{38: 9, 60: 1, 26: 5, 42: 5, 8: 30}","[8, 26, 38, 42, 60]",830265389425601,Sr9Nd1Fe5Mo5O30
Sr3La7Ga(Co3O10)3,mp-1173241,0.0,5.4511025,0.038748952150021054,"{38: 3, 57: 7, 31: 1, 27: 9, 8: 30}","[8, 27, 31, 38, 57]",830279311383577,Sr3La7Ga1Co9O30
Sr10Cu5Mo(W2O15)2,mp-1218927,0.0,3.69931231,0.057705333200000375,"{38: 10, 29: 5, 42: 1, 74: 4, 8: 30}","[8, 29, 38, 42, 74]",8302953810421744,Sr10Cu5Mo1W4O30
Sr10Cu5Mo3(WO15)2,mp-1218943,0.0,3.78827317,0.07504566870000051,"{38: 10, 29: 5, 42: 3, 74: 2, 8: 30}","[8, 29, 38, 42, 74]",8302953810423742,Sr10Cu5Mo3W2O30
Sr10Cu5Mo4WO30,mp-1218939,0.0,3.68239267,0.06991674349999855,"{38: 10, 29: 5, 42: 4, 74: 1, 8: 30}","[8, 29, 38, 42, 74]",8302953810424741,Sr10Cu5Mo4W1O30
Ba2Sr3Nb10O30,mp-1228768,2.2048,1.20096746,0.03221703055555736,"{56: 2, 38: 3, 41: 10, 8: 30}","[8, 38, 41, 56]",8303834110562,Ba2Sr3Nb10O30
Sr3Nd2Nb10O30,mp-1218643,0.0,3.86263416,0.05844528797149273,"{38: 3, 60: 2, 41: 10, 8: 30}","[8, 38, 41, 60]",8303834110602,Sr3Nd2Nb10O30
NaSrO3,mp-977112,0.0,0.59535102,0.5388160246666658,"{11: 1, 38: 1, 8: 3}","[8, 11, 38]",83111381,Na1Sr1O3
SrMgTiO3,mp-2210739,0.0,6.05813473,0.7780376544999967,"{38: 1, 12: 1, 22: 1, 8: 3}","[8, 12, 22, 38]",83121221381,Sr1Mg1Ti1O3
SrMgVO3,mp-2227408,0.0,4.72155861,0.5240270913425942,"{38: 1, 12: 1, 23: 1, 8: 3}","[8, 12, 23, 38]",83121231381,Sr1Mg1V1O3
SrMgCrO3,mp-2225366,0.0,5.04883131,0.538560006388888,"{38: 1, 12: 1, 24: 1, 8: 3}","[8, 12, 24, 38]",83121241381,Sr1Mg1Cr1O3
SrMgMnO3,mp-2210709,0.0,4.22701725,0.5025522825,"{38: 1, 12: 1, 25: 1, 8: 3}","[8, 12, 25, 38]",83121251381,Sr1Mg1Mn1O3
SrMgFeO3,mp-2227860,0.3655999999999997,3.33570487,0.0751420233333322,"{38: 1, 12: 1, 26: 1, 8: 3}","[8, 12, 26, 38]",83121261381,Sr1Mg1Fe1O3
SrMgCoO3,mp-2228095,0.3867999999999996,3.6380383,0.14147916125000215,"{38: 1, 12: 1, 27: 1, 8: 3}","[8, 12, 27, 38]",83121271381,Sr1Mg1Co1O3
Sr2MgCuO3,mp-2242277,0.0,4.92024142,0.3939892757142882,"{38: 2, 12: 1, 29: 1, 8: 3}","[8, 12, 29, 38]",83121291382,Sr2Mg1Cu1O3
SrMgCu2O3,mp-2224190,0.0,4.83068354,0.24613152928571402,"{38: 1, 12: 1, 29: 2, 8: 3}","[8, 12, 29, 38]",83121292381,Sr1Mg1Cu2O3
SrMgO3,mp-1187182,0.0,1.79585678,0.22068589599999644,"{38: 1, 12: 1, 8: 3}","[8, 12, 38]",83121381,Sr1Mg1O3
SrMgMoO3,mp-2239917,0.0,5.56302576,0.7097798512499995,"{38: 1, 12: 1, 42: 1, 8: 3}","[8, 12, 38, 42]",83121381421,Sr1Mg1Mo1O3
Sr16V8O31,mp-767432,0.43359999999999976,3.78963665,0.0,"{38: 16, 23: 8, 8: 31}","[8, 23, 38]",8312383816,Sr16V8O31
Sr2ScFePO3,mp-1189114,0.0,4.05015305,0.18415864078125743,"{38: 2, 21: 1, 26: 1, 15: 1, 8: 3}","[8, 15, 21, 26, 38]",83151211261382,Sr2Sc1Fe1P1O3
Sr2ScCoPO3,mp-1188768,0.0,4.61227788,0.14967177640625717,"{38: 2, 21: 1, 27: 1, 15: 1, 8: 3}","[8, 15, 21, 27, 38]",83151211271382,Sr2Sc1Co1P1O3
Sr2CrCuSO3,mp-505311,0.9866000000000001,4.43800283,0.5480237259374992,"{38: 2, 24: 1, 29: 1, 16: 1, 8: 3}","[8, 16, 24, 29, 38]",83161241291382,Sr2Cr1Cu1S1O3
Sr2CrSO3,mp-1046654,0.0,2.07939004,0.2288992472767859,"{38: 2, 24: 1, 16: 1, 8: 3}","[8, 16, 24, 38]",83161241382,Sr2Cr1S1O3
Sr2MnCuSO3,mp-20239,0.0,3.938454,0.015445796762699082,"{38: 2, 25: 1, 29: 1, 16: 1, 8: 3}","[8, 16, 25, 29, 38]",83161251291382,Sr2Mn1Cu1S1O3
Sr2MnSO3,mp-1046617,0.0,2.03298905,0.15999354415736544,"{38: 2, 25: 1, 16: 1, 8: 3}","[8, 16, 25, 38]",83161251382,Sr2Mn1S1O3
Sr2FeCuSO3,mp-505312,0.0,3.98094532,0.0,"{38: 2, 26: 1, 29: 1, 16: 1, 8: 3}","[8, 16, 26, 29, 38]",83161261291382,Sr2Fe1Cu1S1O3
Sr2FeSO3,mp-1046652,0.0,2.31476579,0.1822452954464282,"{38: 2, 26: 1, 16: 1, 8: 3}","[8, 16, 26, 38]",83161261382,Sr2Fe1S1O3
Sr2CoCuSO3,mp-1048567,0.0,3.66200288,0.11504960749999871,"{38: 2, 27: 1, 29: 1, 16: 1, 8: 3}","[8, 16, 27, 29, 38]",83161271291382,Sr2Co1Cu1S1O3
Sr2CoSO3,mp-1046632,0.0,1.85854633,0.3210424728571404,"{38: 2, 27: 1, 16: 1, 8: 3}","[8, 16, 27, 38]",83161271382,Sr2Co1S1O3
Sr2GaCuSO3,mp-9425,0.5552000000000001,4.42739782,0.03300958449218694,"{38: 2, 31: 1, 29: 1, 16: 1, 8: 3}","[8, 16, 29, 31, 38]",83161291311382,Sr2Ga1Cu1S1O3
Sr4SO3,mp-1079788,2.6728999999999994,1.74485771,0.19999173749999954,"{38: 4, 16: 1, 8: 3}","[8, 16, 38]",83161384,Sr4S1O3
SrVClO3,mp-558871,2.189,1.09243122,0.0,"{38: 1, 23: 1, 17: 1, 8: 3}","[8, 17, 23, 38]",83171231381,Sr1V1Cl1O3
Sr2MnClO3,mp-542187,0.0,2.80899544,0.0,"{38: 2, 25: 1, 17: 1, 8: 3}","[8, 17, 25, 38]",83171251382,Sr2Mn1Cl1O3
Sr2FeClO3,mp-630641,0.0,2.57654007,0.0,"{38: 2, 26: 1, 17: 1, 8: 3}","[8, 17, 26, 38]",83171261382,Sr2Fe1Cl1O3
Sr2CoClO3,mp-23115,0.0,2.59944733,0.02727679761906021,"{38: 2, 27: 1, 17: 1, 8: 3}","[8, 17, 27, 38]",83171271382,Sr2Co1Cl1O3
Sr3Bi(ClO)3,mp-558642,4.0001,1.08590584,0.0,"{38: 3, 83: 1, 17: 3, 8: 3}","[8, 17, 38, 83]",83173383831,Sr3Bi1Cl3O3
KSrO3,mp-1184959,0.0,-1.40517679,0.5069057789999993,"{19: 1, 38: 1, 8: 3}","[8, 19, 38]",83191381,K1Sr1O3
K2Sr2O3,mp-756334,2.1635,0.2834939,0.055332406428570735,"{19: 2, 38: 2, 8: 3}","[8, 19, 38]",83192382,K2Sr2O3
SrCaCuO3,mp-1218361,0.0,3.80286302,0.022454147500001298,"{38: 1, 20: 1, 29: 1, 8: 3}","[8, 20, 29, 38]",83201291381,Sr1Ca1Cu1O3
SrCaO3,mp-978842,0.0,0.90588837,0.4673127259999976,"{38: 1, 20: 1, 8: 3}","[8, 20, 38]",83201381,Sr1Ca1O3
Sr2ScFeAsO3,mp-1105960,0.0,3.82724569,0.0989597532812505,"{38: 2, 21: 1, 26: 1, 33: 1, 8: 3}","[8, 21, 26, 33, 38]",83211261331382,Sr2Sc1Fe1As1O3
SrScO3,mp-1187191,0.0,1.95435204,0.09125746724999928,"{38: 1, 21: 1, 8: 3}","[8, 21, 38]",83211381,Sr1Sc1O3
SrCaMg30O32,mp-1038009,4.1438999999999995,3.67440734,0.05157681749999643,"{38: 1, 20: 1, 12: 30, 8: 32}","[8, 12, 20, 38]",8321230201381,Sr1Ca1Mg30O32
SrMg30TiO32,mp-1040356,0.0,8.31362616,0.06861666792187293,"{38: 1, 12: 30, 22: 1, 8: 32}","[8, 12, 22, 38]",8321230221381,Sr1Mg30Ti1O32
SrMg30VO32,mp-1036758,1.8598,6.03729514,0.04129391903211399,"{38: 1, 12: 30, 23: 1, 8: 32}","[8, 12, 23, 38]",8321230231381,Sr1Mg30V1O32
SrMg30CrO32,mp-1038723,0.5308999999999999,7.32016969,0.06841315419270888,"{38: 1, 12: 30, 24: 1, 8: 32}","[8, 12, 24, 38]",8321230241381,Sr1Mg30Cr1O32
SrMg30MnO32,mp-1038040,2.827,5.01278259,0.04207569257812516,"{38: 1, 12: 30, 25: 1, 8: 32}","[8, 12, 25, 38]",8321230251381,Sr1Mg30Mn1O32
SrMg30FeO32,mp-1037572,3.0674,4.82054563,0.039191137343747684,"{38: 1, 12: 30, 26: 1, 8: 32}","[8, 12, 26, 38]",8321230261381,Sr1Mg30Fe1O32
SrMg30CoO32,mp-1037019,2.0697,4.75886205,0.04675677933593736,"{38: 1, 12: 30, 27: 1, 8: 32}","[8, 12, 27, 38]",8321230271381,Sr1Mg30Co1O32
SrMg30CuO32,mp-1037249,0.5720999999999998,5.03476237,0.04766283203124999,"{38: 1, 12: 30, 29: 1, 8: 32}","[8, 12, 29, 38]",8321230291381,Sr1Mg30Cu1O32
SrMg30ZnO32,mp-1037598,3.6815000000000007,4.10584347,0.04095695804687516,"{38: 1, 12: 30, 30: 1, 8: 32}","[8, 12, 30, 38]",8321230301381,Sr1Mg30Zn1O32
SrYMg30O32,mp-1037103,0.3529,8.5976177,0.08000545696939998,"{38: 1, 39: 1, 12: 30, 8: 32}","[8, 12, 38, 39]",8321230381391,Sr1Y1Mg30O32
SrMg30NbO32,mp-1038705,0.26839999999999975,7.50825537,0.09158306284374884,"{38: 1, 12: 30, 41: 1, 8: 32}","[8, 12, 38, 41]",8321230381411,Sr1Mg30Nb1O32
SrMg30CdO32,mp-1038630,3.7709,3.80422086,0.049890394687500006,"{38: 1, 12: 30, 48: 1, 8: 32}","[8, 12, 38, 48]",8321230381481,Sr1Mg30Cd1O32
SrMg30SnO32,mp-1036672,1.7466,6.58666345,0.09180206910156219,"{38: 1, 12: 30, 50: 1, 8: 32}","[8, 12, 38, 50]",8321230381501,Sr1Mg30Sn1O32
BaSrMg30O32,mp-1038708,3.5639,3.8334877,0.11329661750000053,"{56: 1, 38: 1, 12: 30, 8: 32}","[8, 12, 38, 56]",8321230381561,Ba1Sr1Mg30O32
SrHfMg30O32,mp-1098545,0.2995000000000001,8.62399602,0.10681815562499786,"{38: 1, 72: 1, 12: 30, 8: 32}","[8, 12, 38, 72]",8321230381721,Sr1Hf1Mg30O32
SrMg30BiO32,mp-1038678,0.16769999999999996,8.5391445,0.12067900229166639,"{38: 1, 12: 30, 83: 1, 8: 32}","[8, 12, 38, 83]",8321230381831,Sr1Mg30Bi1O32
Sr8CaY3Cu12(PbO4)8,mp-1218823,0.0,4.48139172,0.020776964823399524,"{38: 8, 20: 1, 39: 3, 29: 12, 82: 8, 8: 32}","[8, 20, 29, 38, 39, 82]",8322012912388393828,Sr8Ca1Y3Cu12Pb8O32
SrTiO3,mp-4651,1.8487999999999998,3.23055315,0.0,"{38: 1, 22: 1, 8: 3}","[8, 22, 38]",83221381,Sr1Ti1O3
Sr9Nd3Cu12(PbO4)8,mp-1218827,0.0,4.35942982,0.030882154179685983,"{38: 9, 60: 3, 29: 12, 82: 8, 8: 32}","[8, 29, 38, 60, 82]",8322912389603828,Sr9Nd3Cu12Pb8O32
Sr2La14Zn3Cu5O32,mp-695252,0.0,6.78444362,0.07057363758927515,"{38: 2, 57: 14, 30: 3, 29: 5, 8: 32}","[8, 29, 30, 38, 57]",8322953033825714,Sr2La14Zn3Cu5O32
Sr2VFeAsO3,mp-1106248,0.0,3.8502607,0.13601065939583368,"{38: 2, 23: 1, 26: 1, 33: 1, 8: 3}","[8, 23, 26, 33, 38]",83231261331382,Sr2V1Fe1As1O3
SrVO3,mp-18717,0.0,4.66976042,0.039101676860326506,"{38: 1, 23: 1, 8: 3}","[8, 23, 38]",83231381,Sr1V1O3
Sr3(RhO2)16,mp-765543,0.0,3.86197811,0.0,"{38: 3, 45: 16, 8: 32}","[8, 38, 45]",8323834516,Sr3Rh16O32
Sr2CrFeAsO3,mp-1189319,0.0,3.85510842,0.13763128854166684,"{38: 2, 24: 1, 26: 1, 33: 1, 8: 3}","[8, 24, 26, 33, 38]",83241261331382,Sr2Cr1Fe1As1O3
SrCrO3,mp-761337,0.4514,3.78748088,0.05763595893750306,"{38: 1, 24: 1, 8: 3}","[8, 24, 38]",83241381,Sr1Cr1O3
SrMnO3,mp-559975,0.0,3.1042004,0.0,"{38: 1, 25: 1, 8: 3}","[8, 25, 38]",83251381,Sr1Mn1O3
SrLaMnO3,mp-1218167,0.0,6.71928025,0.1899025274640822,"{38: 1, 57: 1, 25: 1, 8: 3}","[8, 25, 38, 57]",83251381571,Sr1La1Mn1O3
Sr2FeBrO3,mp-556507,1.1631,3.04516351,0.0,"{38: 2, 26: 1, 35: 1, 8: 3}","[8, 26, 35, 38]",83261351382,Sr2Fe1Br1O3
SrFeO3,mp-510624,0.0,2.88461787,0.0,"{38: 1, 26: 1, 8: 3}","[8, 26, 38]",83261381,Sr1Fe1O3
Sr2FeO3,mp-1071505,0.0,3.20805895,0.0,"{38: 2, 26: 1, 8: 3}","[8, 26, 38]",83261382,Sr2Fe1O3
SrCoO3,mp-1283849,0.0,2.61319012,0.018480839629032353,"{38: 1, 27: 1, 8: 3}","[8, 27, 38]",83271381,Sr1Co1O3
Sr2CoO3,mp-2615276,1.4022999999999999,2.18617241,0.19508529291666754,"{38: 2, 27: 1, 8: 3}","[8, 27, 38]",83271382,Sr2Co1O3
SrCuO3,mp-29049,0.0,2.73002919,0.04272577679166467,"{38: 1, 29: 1, 8: 3}","[8, 29, 38]",83291381,Sr1Cu1O3
Sr2CuO3,mp-5456,0.0,3.49286062,0.0,"{38: 2, 29: 1, 8: 3}","[8, 29, 38]",83291382,Sr2Cu1O3
SrCu2O3,mp-3255,0.0,3.43457007,0.02028693166666784,"{38: 1, 29: 2, 8: 3}","[8, 29, 38]",83292381,Sr1Cu2O3
Sr2Cu2O3,mp-8806,0.0,1.71895348,0.5603591871428542,"{38: 2, 29: 2, 8: 3}","[8, 29, 38]",83292382,Sr2Cu2O3
SrZnO3,mp-1186757,0.0,1.63670082,0.16797229800000046,"{38: 1, 30: 1, 8: 3}","[8, 30, 38]",83301381,Sr1Zn1O3
SrGeO3,mp-17464,3.4179,0.67423282,0.0,"{38: 1, 32: 1, 8: 3}","[8, 32, 38]",83321381,Sr1Ge1O3
SrAsO3,mp-978851,0.0,5.35715693,0.24564895449999824,"{38: 1, 33: 1, 8: 3}","[8, 33, 38]",83331381,Sr1As1O3
Sr11Ru10O33,mp-676309,0.0,4.2216361,0.04145593138890291,"{38: 11, 44: 10, 8: 33}","[8, 38, 44]",83338114410,Sr11Ru10O33
SrSeO3,mp-3395,3.7027,1.67741925,0.0,"{38: 1, 34: 1, 8: 3}","[8, 34, 38]",83341381,Sr1Se1O3
SrBi2Br2O3,mp-1218502,0.0,4.32708137,0.2227946393750022,"{38: 1, 83: 2, 35: 2, 8: 3}","[8, 35, 38, 83]",83352381832,Sr1Bi2Br2O3
RbSrO3,mp-975200,0.0,-1.18855162,0.45709310399999925,"{37: 1, 38: 1, 8: 3}","[8, 37, 38]",83371381,Rb1Sr1O3
SrO3,mp-1206311,0.46820000000000017,2.39207956,0.3598175040624998,"{38: 1, 8: 3}","[8, 38]",83381,Sr1O3
SrZrO3,mp-4387,3.735,2.06125108,0.0,"{38: 1, 40: 1, 8: 3}","[8, 38, 40]",83381401,Sr1Zr1O3
SrNbO3,mp-10339,0.0,5.80686248,0.007376634500008805,"{38: 1, 41: 1, 8: 3}","[8, 38, 41]",83381411,Sr1Nb1O3
SrMoO3,mp-1542758,1.3088000000000006,4.32610285,0.0,"{38: 1, 42: 1, 8: 3}","[8, 38, 42]",83381421,Sr1Mo1O3
SrTcO3,mp-1188414,0.0,5.51137553,0.0,"{38: 1, 43: 1, 8: 3}","[8, 38, 43]",83381431,Sr1Tc1O3
SrRuO3,mp-22390,0.0,4.44164647,0.0,"{38: 1, 44: 1, 8: 3}","[8, 38, 44]",83381441,Sr1Ru1O3
SrRhO3,mp-1208626,0.0,3.49888427,0.005810413749991028,"{38: 1, 45: 1, 8: 3}","[8, 38, 45]",83381451,Sr1Rh1O3
SrPdO3,mp-1187190,0.0,2.36375822,0.07012186049999958,"{38: 1, 46: 1, 8: 3}","[8, 38, 46]",83381461,Sr1Pd1O3
SrAgO3,mp-979294,0.0,1.62627411,0.1135589189999946,"{38: 1, 47: 1, 8: 3}","[8, 38, 47]",83381471,Sr1Ag1O3
SrInO3,mp-972021,0.0,3.23386518,0.19418390049999168,"{38: 1, 49: 1, 8: 3}","[8, 38, 49]",83381491,Sr1In1O3
SrSnO3,mp-2879,1.7365,4.02610106,0.0,"{38: 1, 50: 1, 8: 3}","[8, 38, 50]",83381501,Sr1Sn1O3
SrSbO3,mp-1187192,0.0,6.72120117,0.13209844079999744,"{38: 1, 51: 1, 8: 3}","[8, 38, 51]",83381511,Sr1Sb1O3
SrTeO3,mp-972117,3.3613000000000004,2.33483802,0.0,"{38: 1, 52: 1, 8: 3}","[8, 38, 52]",83381521,Sr1Te1O3
CsSrO3,mp-1183972,0.0,-0.6330461,0.43377394,"{55: 1, 38: 1, 8: 3}","[8, 38, 55]",83381551,Cs1Sr1O3
SrCeO3,mp-22428,2.1521000000000003,2.75513271,0.018176285499990286,"{38: 1, 58: 1, 8: 3}","[8, 38, 58]",83381581,Sr1Ce1O3
SrPrO3,mp-20464,0.0,0.9838856,0.1450805223749967,"{38: 1, 59: 1, 8: 3}","[8, 38, 59]",83381591,Sr1Pr1O3
SrNdO3,mp-1101333,0.0,1.46092526,0.3580356817499979,"{38: 1, 60: 1, 8: 3}","[8, 38, 60]",83381601,Sr1Nd1O3
SrEuO3,mp-1100775,0.0,1.23372348,0.32016034999998055,"{38: 1, 63: 1, 8: 3}","[8, 38, 63]",83381631,Sr1Eu1O3
SrTbO3,mp-21898,0.0,0.91818559,0.1219435718750006,"{38: 1, 65: 1, 8: 3}","[8, 38, 65]",83381651,Sr1Tb1O3
SrDyO3,mp-1187145,0.0,1.32673281,0.2528056500000009,"{38: 1, 66: 1, 8: 3}","[8, 38, 66]",83381661,Sr1Dy1O3
SrHoO3,mp-971996,0.0,1.28000902,0.23622259387499867,"{38: 1, 67: 1, 8: 3}","[8, 38, 67]",83381671,Sr1Ho1O3
SrErO3,mp-1187147,0.0,1.30548953,0.2229598522499998,"{38: 1, 68: 1, 8: 3}","[8, 38, 68]",83381681,Sr1Er1O3
SrTmO3,mp-1186758,0.0,1.28018194,0.20589536299999622,"{38: 1, 69: 1, 8: 3}","[8, 38, 69]",83381691,Sr1Tm1O3
SrHfO3,mp-3378,4.1704,2.09226381,0.0,"{38: 1, 72: 1, 8: 3}","[8, 38, 72]",83381721,Sr1Hf1O3
SrTaO3,mp-1186755,0.0,5.78616512,0.05960680650667349,"{38: 1, 73: 1, 8: 3}","[8, 38, 73]",83381731,Sr1Ta1O3
SrWO3,mp-1186764,0.0,5.4303553,0.19504557099999964,"{38: 1, 74: 1, 8: 3}","[8, 38, 74]",83381741,Sr1W1O3
SrReO3,mp-1187226,0.0,6.46623436,0.1264082169333367,"{38: 1, 75: 1, 8: 3}","[8, 38, 75]",83381751,Sr1Re1O3
SrOsO3,mp-1105153,0.0,5.24327337,0.06107738531817919,"{38: 1, 76: 1, 8: 3}","[8, 38, 76]",83381761,Sr1Os1O3
SrIrO3,mp-1193907,0.0,4.52037488,0.0034682963333318995,"{38: 1, 77: 1, 8: 3}","[8, 38, 77]",83381771,Sr1Ir1O3
SrPtO3,mp-1187202,0.0,3.7059071,0.15976486974999915,"{38: 1, 78: 1, 8: 3}","[8, 38, 78]",83381781,Sr1Pt1O3
SrAuO3,mp-1187146,0.0,2.23960762,0.2745435900000004,"{38: 1, 79: 1, 8: 3}","[8, 38, 79]",83381791,Sr1Au1O3
SrHgO3,mp-971975,0.0,1.41909308,0.2738770704999993,"{38: 1, 80: 1, 8: 3}","[8, 38, 80]",83381801,Sr1Hg1O3
SrTlO3,mp-981367,0.0,3.27133902,0.24066696549999378,"{38: 1, 81: 1, 8: 3}","[8, 38, 81]",83381811,Sr1Tl1O3
SrPbO3,mp-20489,0.7941000000000003,2.93127696,0.0,"{38: 1, 82: 1, 8: 3}","[8, 38, 82]",83381821,Sr1Pb1O3
SrBiO3,mp-29164,0.3106,3.74981058,0.0,"{38: 1, 83: 1, 8: 3}","[8, 38, 83]",83381831,Sr1Bi1O3
SrPuO3,mp-1207172,0.0,6.59826209,0.09064379800000211,"{38: 1, 94: 1, 8: 3}","[8, 38, 94]",83381941,Sr1Pu1O3
Sr2O3,mp-1187089,0.0,0.48055953,0.6050530500000004,"{38: 2, 8: 3}","[8, 38]",83382,Sr2O3
Sr2PdO3,mp-4359,0.23530000000000006,3.05120574,0.0,"{38: 2, 46: 1, 8: 3}","[8, 38, 46]",83382461,Sr2Pd1O3
Cs2Sr2O3,mp-753801,2.1334,1.40718712,0.06723900857142695,"{55: 2, 38: 2, 8: 3}","[8, 38, 55]",83382552,Cs2Sr2O3
SrLa11Mg3Ga9O34,mp-677725,1.4869000000000003,5.69089923,0.11013970480604218,"{38: 1, 57: 11, 12: 3, 31: 9, 8: 34}","[8, 12, 31, 38, 57]",8341233193815711,Sr1La11Mg3Ga9O34
BaSrAl20(CuO17)2,mp-1227989,0.0,4.95040456,0.016846375631569543,"{56: 1, 38: 1, 13: 20, 29: 2, 8: 34}","[8, 13, 29, 38, 56]",8341320292381561,Ba1Sr1Al20Cu2O34
SrCrBi12(Mo2O17)2,mp-642974,2.3173,4.89512569,0.008662758137020887,"{38: 1, 24: 1, 83: 12, 42: 4, 8: 34}","[8, 24, 38, 42, 83]",8342413814248312,Sr1Cr1Bi12Mo4O34
Sr18Fe6Ru3O34,mp-1173476,0.0,3.2133686,0.030375191836065518,"{38: 18, 26: 6, 44: 3, 8: 34}","[8, 26, 38, 44]",8342663818443,Sr18Fe6Ru3O34
Sr9U9O34,mp-676411,0.014200000000000657,5.51128686,0.0003898132692476963,"{38: 9, 92: 9, 8: 34}","[8, 38, 92]",834389929,Sr9U9O34
Sr18Co12O35,mp-758069,0.03529999999999989,3.03315775,0.02581482407692537,"{38: 18, 27: 12, 8: 35}","[8, 27, 38]",83527123818,Sr18Co12O35
Ba8Sr2Sm5(Cu3O7)5,mp-1229001,0.0,3.30279211,0.03369113966665971,"{56: 8, 38: 2, 62: 5, 29: 15, 8: 35}","[8, 29, 38, 56, 62]",8352915382568625,Ba8Sr2Sm5Cu15O35
Sr4La13Cu17O35F16,mp-1173243,0.0,6.98117883,0.33719784152944143,"{38: 4, 57: 13, 29: 17, 8: 35, 9: 16}","[8, 9, 29, 38, 57]",83591629173845713,Sr4La13Cu17O35F16
Cs4Sr3(PO3)12,mp-1203903,0.0,-0.72736745,0.0,"{55: 4, 38: 3, 15: 12, 8: 36}","[8, 15, 38, 55]",8361512383554,Cs4Sr3P12O36
SrNd10Se12(Cl2O9)4,mp-1218343,3.833,1.51349481,0.0,"{38: 1, 60: 10, 34: 12, 17: 8, 8: 36}","[8, 17, 34, 38, 60]",83617834123816010,Sr1Nd10Se12Cl8O36
KSr3La8Mn12O36,mp-697306,0.0,5.66648026,0.13901115284581778,"{19: 1, 38: 3, 57: 8, 25: 12, 8: 36}","[8, 19, 25, 38, 57]",8361912512383578,K1Sr3La8Mn12O36
Ba12SrCa3(Ru2O9)4,mp-1229266,0.1854,3.30336178,0.0016925283333319996,"{56: 12, 38: 1, 20: 3, 44: 8, 8: 36}","[8, 20, 38, 44, 56]",8362033814485612,Ba12Sr1Ca3Ru8O36
Sr3La9Mn10(CuO18)2,mp-698797,0.0,6.13945373,0.16730101161112287,"{38: 3, 57: 9, 25: 10, 29: 2, 8: 36}","[8, 25, 29, 38, 57]",8362510292383579,Sr3La9Mn10Cu2O36
Sr11LaFe6(MoO6)6,mp-735565,0.6286999999999994,4.38627273,0.008511953097232627,"{38: 11, 57: 1, 26: 6, 42: 6, 8: 36}","[8, 26, 38, 42, 57]",8362663811426571,Sr11La1Fe6Mo6O36
Sr12Ru11O36,mp-1173416,0.0,4.25290682,0.46525761084746087,"{38: 12, 44: 11, 8: 36}","[8, 38, 44]",83638124411,Sr12Ru11O36
Sr3U11O36,mp-667349,1.5934,3.98863178,0.0,"{38: 3, 92: 11, 8: 36}","[8, 38, 92]",8363839211,Sr3U11O36
Sr5(ReO3)12,mp-758599,0.0,2.44954395,0.016291273647800253,"{38: 5, 75: 12, 8: 36}","[8, 38, 75]",8363857512,Sr5Re12O36
Sr2Fe23O38,mp-1101422,0.04610000000000003,2.75276686,0.10403707986110966,"{38: 2, 26: 23, 8: 38}","[8, 26, 38]",8382623382,Sr2Fe23O38
Sr5(Sb11O19)2,mp-1197996,2.5443,3.30527694,0.0,"{38: 5, 51: 22, 8: 38}","[8, 38, 51]",8383855122,Sr5Sb22O38
Sr2FeO3F,mp-1218828,0.7155,3.57560308,0.0,"{38: 2, 26: 1, 8: 3, 9: 1}","[8, 9, 26, 38]",8391261382,Sr2Fe1O3F1
Sr16V12O39,mp-757304,0.6273000000000004,3.8169878,0.0,"{38: 16, 23: 12, 8: 39}","[8, 23, 38]",83923123816,Sr16V12O39
Sr14Fe14O39,mp-698670,0.0,2.88085762,0.015760722985058706,"{38: 14, 26: 14, 8: 39}","[8, 26, 38]",83926143814,Sr14Fe14O39
Sr20Ta8O39,mp-674423,0.0,5.14224573,0.024349463792040282,"{38: 20, 73: 8, 8: 39}","[8, 38, 73]",8393820738,Sr20Ta8O39
Sr18La2MgRu9O40,mp-1173635,0.0,4.2183152,0.016589890464287826,"{38: 18, 57: 2, 12: 1, 44: 9, 8: 40}","[8, 12, 38, 44, 57]",8401213818449572,Sr18La2Mg1Ru9O40
Sr7Bi23O40,mp-758327,0.0,5.07909707,0.051014989428574076,"{38: 7, 83: 23, 8: 40}","[8, 38, 83]",8403878323,Sr7Bi23O40
NaSrPO4,mp-1210115,4.5196000000000005,6.01855308,0.0,"{11: 1, 38: 1, 15: 1, 8: 4}","[8, 11, 15, 38]",84111151381,Na1Sr1P1O4
Sr4MgMn2Cu3(SO)4,mp-1233888,0.0,5.43955348,0.4247235064930557,"{38: 4, 12: 1, 25: 2, 29: 3, 16: 4, 8: 4}","[8, 12, 16, 25, 29, 38]",84121164252293384,Sr4Mg1Mn2Cu3S4O4
Sr2MgCu3(ClO2)2,mp-2218174,0.0,3.87324784,0.5726717375000012,"{38: 2, 12: 1, 29: 3, 17: 2, 8: 4}","[8, 12, 17, 29, 38]",84121172293382,Sr2Mg1Cu3Cl2O4
Sr2MgTiO4,mp-2227802,0.5507,4.74707635,0.25453782837499794,"{38: 2, 12: 1, 22: 1, 8: 4}","[8, 12, 22, 38]",84121221382,Sr2Mg1Ti1O4
Sr2MgVO4,mp-2217069,0.6730999999999998,5.01231029,0.1938274264166724,"{38: 2, 12: 1, 23: 1, 8: 4}","[8, 12, 23, 38]",84121231382,Sr2Mg1V1O4