formula,material_id,band_gap,efermi,energy_above_hull,comp_atoms,sorted_keys_comp_atoms,comp_number,new_formula
SrLaMnO4F,mp-1218175,0.0,4.2345986,0.17760700277083252,"{38: 1, 57: 1, 25: 1, 8: 4, 9: 1}","[8, 9, 25, 38, 57]",8491251381571,Sr1La1Mn1O4F1
Sr3GaO4F,mp-6509,3.6717999999999997,1.93804166,0.0,"{38: 3, 31: 1, 8: 4, 9: 1}","[8, 9, 31, 38]",8491311383,Sr3Ga1O4F1
SrFeP(O2F)2,mp-557850,1.9095,1.63759438,0.021874811944439188,"{38: 1, 26: 1, 15: 1, 8: 4, 9: 2}","[8, 9, 15, 26, 38]",8492151261381,Sr1Fe1P1O4F2
Sr20V15O49,mp-759591,0.4006999999999996,4.35480791,0.002142659510241174,"{38: 20, 23: 15, 8: 49}","[8, 23, 38]",84923153820,Sr20V15O49
Sr3Fe2O4F3,mp-1147568,0.0,4.33227203,0.190141223958328,"{38: 3, 26: 2, 8: 4, 9: 3}","[8, 9, 26, 38]",8493262383,Sr3Fe2O4F3
Sr3Fe2(OF)4,mp-1103995,0.0,2.1713976,0.19194112740384384,"{38: 3, 26: 2, 8: 4, 9: 4}","[8, 9, 26, 38]",8494262383,Sr3Fe2O4F4
Sr3Cu2(OF)4,mp-1232334,0.0,2.43838895,0.20314627870192226,"{38: 3, 29: 2, 8: 4, 9: 4}","[8, 9, 29, 38]",8494292383,Sr3Cu2O4F4
BaSr3Pd2(OF)4,mp-1227694,0.0,1.78975953,0.06993684857142668,"{56: 1, 38: 3, 46: 2, 8: 4, 9: 4}","[8, 9, 38, 46, 56]",8494383462561,Ba1Sr3Pd2O4F4
Sr3MgCr2S2O5,mp-1048636,1.3072999999999997,3.01966585,0.18408017500000096,"{38: 3, 12: 1, 24: 2, 16: 2, 8: 5}","[8, 12, 16, 24, 38]",85121162242383,Sr3Mg1Cr2S2O5
Sr3MgMn2S2O5,mp-1048628,0.0,3.15149841,0.1369197476231978,"{38: 3, 12: 1, 25: 2, 16: 2, 8: 5}","[8, 12, 16, 25, 38]",85121162252383,Sr3Mg1Mn2S2O5
Sr3MgFe2S2O5,mp-1048639,0.8619999999999997,3.48247778,0.13963909769230742,"{38: 3, 12: 1, 26: 2, 16: 2, 8: 5}","[8, 12, 16, 26, 38]",85121162262383,Sr3Mg1Fe2S2O5
Sr3MgCo2S2O5,mp-1048653,0.0,3.11621324,0.28124011509615343,"{38: 3, 12: 1, 27: 2, 16: 2, 8: 5}","[8, 12, 16, 27, 38]",85121162272383,Sr3Mg1Co2S2O5
Sr3MgCo2Cl2O5,mp-2219142,0.0,4.00054481,0.32292366826923136,"{38: 3, 12: 1, 27: 2, 17: 2, 8: 5}","[8, 12, 17, 27, 38]",85121172272383,Sr3Mg1Co2Cl2O5
Sr3MgFe2Cu2Se2O5,mp-2227600,0.4725999999999999,4.40036938,0.4233539040000016,"{38: 3, 12: 1, 26: 2, 29: 2, 34: 2, 8: 5}","[8, 12, 26, 29, 34, 38]",85121262292342383,Sr3Mg1Fe2Cu2Se2O5
Sr3MgFe2Br2O5,mp-2220066,0.0,3.47993241,0.36431491538461813,"{38: 3, 12: 1, 26: 2, 35: 2, 8: 5}","[8, 12, 26, 35, 38]",85121262352383,Sr3Mg1Fe2Br2O5
Sr2MgCo2O5,mp-2217124,1.5248999999999997,2.37876493,0.1498393114999983,"{38: 2, 12: 1, 27: 2, 8: 5}","[8, 12, 27, 38]",85121272382,Sr2Mg1Co2O5
Sr2MgTlCuO5,mp-2223136,0.0,3.10487294,0.2921372912500013,"{38: 2, 12: 1, 81: 1, 29: 1, 8: 5}","[8, 12, 29, 38, 81]",85121291382811,Sr2Mg1Tl1Cu1O5
SrLaAlCuO5,mp-1208690,0.0,5.15579456,0.03356757961109125,"{38: 1, 57: 1, 13: 1, 29: 1, 8: 5}","[8, 13, 29, 38, 57]",85131291381571,Sr1La1Al1Cu1O5
Sr3CaCr2S2O5,mp-1048627,0.0,4.57299343,0.15056398192307796,"{38: 3, 20: 1, 24: 2, 16: 2, 8: 5}","[8, 16, 20, 24, 38]",85162201242383,Sr3Ca1Cr2S2O5
Sr3CaMn2S2O5,mp-1048631,0.0,3.08070913,0.1035957660847302,"{38: 3, 20: 1, 25: 2, 16: 2, 8: 5}","[8, 16, 20, 25, 38]",85162201252383,Sr3Ca1Mn2S2O5
Sr3CaCo2S2O5,mp-1048637,0.0,2.80661168,0.2572602381730782,"{38: 3, 20: 1, 27: 2, 16: 2, 8: 5}","[8, 16, 20, 27, 38]",85162201272383,Sr3Ca1Co2S2O5
Sr3Sc2Cu2S2O5,mp-15900,1.6032000000000002,4.59096927,0.03218664138392491,"{38: 3, 21: 2, 29: 2, 16: 2, 8: 5}","[8, 16, 21, 29, 38]",85162212292383,Sr3Sc2Cu2S2O5
Sr3Cr2Cu2S2O5,mp-1048428,0.15119999999999933,4.63226325,0.6600171496428553,"{38: 3, 24: 2, 29: 2, 16: 2, 8: 5}","[8, 16, 24, 29, 38]",85162242292383,Sr3Cr2Cu2S2O5
Sr3Cr2S2O5,mp-1239342,0.0,2.90251195,0.2607335376562494,"{38: 3, 24: 2, 16: 2, 8: 5}","[8, 16, 24, 38]",85162242383,Sr3Cr2S2O5
Sr3Mn2Cu2S2O5,mp-1275541,0.0,4.32463959,0.030772754712613093,"{38: 3, 25: 2, 29: 2, 16: 2, 8: 5}","[8, 16, 25, 29, 38]",85162252292383,Sr3Mn2Cu2S2O5
Sr3Fe2Cu2S2O5,mp-505310,0.1947000000000001,4.83362449,0.02811113788461217,"{38: 3, 26: 2, 29: 2, 16: 2, 8: 5}","[8, 16, 26, 29, 38]",85162262292383,Sr3Fe2Cu2S2O5
Sr3Fe2S2O5,mp-1046611,0.0,2.67832797,0.21842451130208218,"{38: 3, 26: 2, 16: 2, 8: 5}","[8, 16, 26, 38]",85162262383,Sr3Fe2S2O5
Sr3Fe2Ag2S2O5,mp-1208725,0.0,3.56619978,0.022213824449404562,"{38: 3, 26: 2, 47: 2, 16: 2, 8: 5}","[8, 16, 26, 38, 47]",85162262383472,Sr3Fe2Ag2S2O5
Sr3Co2Cu2S2O5,mp-1400076,0.0,3.75061502,0.16028174357142788,"{38: 3, 27: 2, 29: 2, 16: 2, 8: 5}","[8, 16, 27, 29, 38]",85162272292383,Sr3Co2Cu2S2O5
Sr3Co2S2O5,mp-1046608,0.0,2.90840371,0.4449792324999997,"{38: 3, 27: 2, 16: 2, 8: 5}","[8, 16, 27, 38]",85162272383,Sr3Co2S2O5
Sr3Fe2ClO5,mp-1147559,0.0,4.23293022,0.13550297249999943,"{38: 3, 26: 2, 17: 1, 8: 5}","[8, 17, 26, 38]",85171262383,Sr3Fe2Cl1O5
Sr3Fe2Cl2O5,mp-23081,0.9792999999999998,3.36055557,0.027798602777780346,"{38: 3, 26: 2, 17: 2, 8: 5}","[8, 17, 26, 38]",85172262383,Sr3Fe2Cl2O5
Sr3Co2Cl2O5,mp-23593,0.0,2.43575965,0.04467093642358577,"{38: 3, 27: 2, 17: 2, 8: 5}","[8, 17, 27, 38]",85172272383,Sr3Co2Cl2O5
Sr3Ga2Cl2O5,mp-1208802,3.5201,0.64043001,0.0,"{38: 3, 31: 2, 17: 2, 8: 5}","[8, 17, 31, 38]",85172312383,Sr3Ga2Cl2O5
SrSn2Cl6O5,mp-733788,0.6836000000000001,-0.97596965,0.8045619907142871,"{38: 1, 50: 2, 17: 6, 8: 5}","[8, 17, 38, 50]",85176381502,Sr1Sn2Cl6O5
SrPb2Cl6O5,mp-1194245,0.0008000000000000229,0.76570769,1.0067338622619038,"{38: 1, 82: 2, 17: 6, 8: 5}","[8, 17, 38, 82]",85176381822,Sr1Pb2Cl6O5
KSrBi2O5,mp-1223221,0.0,3.37208107,0.11593705166666357,"{19: 1, 38: 1, 83: 2, 8: 5}","[8, 19, 38, 83]",85191381832,K1Sr1Bi2O5
SrCaTiMnO5,mp-1099877,0.8357999999999999,3.3889821,0.06466718430555751,"{38: 1, 20: 1, 22: 1, 25: 1, 8: 5}","[8, 20, 22, 25, 38]",85201221251381,Sr1Ca1Ti1Mn1O5
SrCaMnGaO5,mp-1218355,1.4085,2.2852978,0.008292791222218376,"{38: 1, 20: 1, 25: 1, 31: 1, 8: 5}","[8, 20, 25, 31, 38]",85201251311381,Sr1Ca1Mn1Ga1O5
SrCaMn2O5,mp-1076496,0.0,3.18829945,0.055634114305537,"{38: 1, 20: 1, 25: 2, 8: 5}","[8, 20, 25, 38]",85201252381,Sr1Ca1Mn2O5
SrCaCo2O5,mp-1099694,0.0,2.60459877,0.031473848912034086,"{38: 1, 20: 1, 27: 2, 8: 5}","[8, 20, 27, 38]",85201272381,Sr1Ca1Co2O5
Sr2ScGaO5,mp-1105158,2.7658999999999994,4.75642997,0.0,"{38: 2, 21: 1, 31: 1, 8: 5}","[8, 21, 31, 38]",85211311382,Sr2Sc1Ga1O5
Sr3Sc2Fe2As2O5,mp-1103895,0.0,4.05586279,0.20742921446428397,"{38: 3, 21: 2, 26: 2, 33: 2, 8: 5}","[8, 21, 26, 33, 38]",85212262332383,Sr3Sc2Fe2As2O5
Sr2TiMnO5,mp-1076627,1.0056000000000003,3.17751775,0.05115178166666645,"{38: 2, 22: 1, 25: 1, 8: 5}","[8, 22, 25, 38]",85221251382,Sr2Ti1Mn1O5
SrTiGeO5,mp-559957,2.8785999999999996,2.02912538,0.0,"{38: 1, 22: 1, 32: 1, 8: 5}","[8, 22, 32, 38]",85221321381,Sr1Ti1Ge1O5
SrTi2O5,mp-572124,1.9511,-1.21872039,0.218953463437499,"{38: 1, 22: 2, 8: 5}","[8, 22, 38]",85222381,Sr1Ti2O5
Sr2Ti2O5,mp-1097778,0.0,5.2562951,0.06011833259252164,"{38: 2, 22: 2, 8: 5}","[8, 22, 38]",85222382,Sr2Ti2O5
Sr7Nb34O52,mp-1101427,0.0,4.92983617,0.010888347240149088,"{38: 7, 41: 34, 8: 52}","[8, 38, 41]",8523874134,Sr7Nb34O52
Sr2MnGaO5,mp-21302,0.0,2.10526078,0.0,"{38: 2, 25: 1, 31: 1, 8: 5}","[8, 25, 31, 38]",85251311382,Sr2Mn1Ga1O5
SrLaMn2O5,mp-1218315,0.11070000000000046,4.67939192,0.09445640525132326,"{38: 1, 57: 1, 25: 2, 8: 5}","[8, 25, 38, 57]",85252381571,Sr1La1Mn2O5
SrNdMn2O5,mp-1218124,0.0,3.53818191,0.06063854470486163,"{38: 1, 60: 1, 25: 2, 8: 5}","[8, 25, 38, 60]",85252381601,Sr1Nd1Mn2O5
Sr2Mn2O5,mp-18798,0.22970000000000024,3.20553549,0.0,"{38: 2, 25: 2, 8: 5}","[8, 25, 38]",85252382,Sr2Mn2O5
SrFeMoO5,mp-690817,1.8071000000000002,1.79836397,0.22473641312500625,"{38: 1, 26: 1, 42: 1, 8: 5}","[8, 26, 38, 42]",85261381421,Sr1Fe1Mo1O5
SrFeBi2O5,mp-1208668,0.0,5.77619665,0.21911612611109899,"{38: 1, 26: 1, 83: 2, 8: 5}","[8, 26, 38, 83]",85261381832,Sr1Fe1Bi2O5
Sr2EuFeO5,mp-1218832,0.0,2.29037994,0.13638034777777186,"{38: 2, 63: 1, 26: 1, 8: 5}","[8, 26, 38, 63]",85261382631,Sr2Eu1Fe1O5
Sr3Fe2Cu2Se2O5,mp-557020,0.0,3.80581583,0.0,"{38: 3, 26: 2, 29: 2, 34: 2, 8: 5}","[8, 26, 29, 34, 38]",85262292342383,Sr3Fe2Cu2Se2O5
Sr3Fe2Br2O5,mp-23105,0.9887999999999999,2.65710486,0.027472306624997778,"{38: 3, 26: 2, 35: 2, 8: 5}","[8, 26, 35, 38]",85262352383,Sr3Fe2Br2O5
Sr2Fe2O5,mp-1205087,0.8054999999999999,3.00661478,0.0005427328472364934,"{38: 2, 26: 2, 8: 5}","[8, 26, 38]",85262382,Sr2Fe2O5
Sr3Fe2O5,mp-19218,0.6448999999999998,4.14585294,0.019960033500002083,"{38: 3, 26: 2, 8: 5}","[8, 26, 38]",85262383,Sr3Fe2O5
Sr2Co2O5,mp-556076,0.0,2.68834013,0.0,"{38: 2, 27: 2, 8: 5}","[8, 27, 38]",85272382,Sr2Co2O5
SrLaGaCuO5,mp-1173173,0.0,4.69674382,0.0268164642361155,"{38: 1, 57: 1, 31: 1, 29: 1, 8: 5}","[8, 29, 31, 38, 57]",85291311381571,Sr1La1Ga1Cu1O5
SrPrGaCuO5,mp-1173145,0.15909999999999958,3.67925976,0.0212228294444472,"{38: 1, 59: 1, 31: 1, 29: 1, 8: 5}","[8, 29, 31, 38, 59]",85291311381591,Sr1Pr1Ga1Cu1O5
SrNdGaCuO5,mp-1218135,0.0,3.72745624,0.04871322018518853,"{38: 1, 60: 1, 31: 1, 29: 1, 8: 5}","[8, 29, 31, 38, 60]",85291311381601,Sr1Nd1Ga1Cu1O5
SrLaTlCuO5,mp-1218170,0.0,5.70145,0.02372707139880692,"{38: 1, 57: 1, 81: 1, 29: 1, 8: 5}","[8, 29, 38, 57, 81]",85291381571811,Sr1La1Tl1Cu1O5
SrDy2CuO5,mp-17687,0.0,3.78509215,0.06285254916666005,"{38: 1, 66: 2, 29: 1, 8: 5}","[8, 29, 38, 66]",85291381662,Sr1Dy2Cu1O5
SrHo2CuO5,mp-17734,0.0,3.79633396,0.06287975791665446,"{38: 1, 67: 2, 29: 1, 8: 5}","[8, 29, 38, 67]",85291381672,Sr1Ho2Cu1O5
Sr2TlCuO5,mp-620290,0.0,2.91959733,0.015062670694439007,"{38: 2, 81: 1, 29: 1, 8: 5}","[8, 29, 38, 81]",85291382811,Sr2Tl1Cu1O5
Sr2Cu2O5,mp-21129,0.0,2.7366623,0.0,"{38: 2, 29: 2, 8: 5}","[8, 29, 38]",85292382,Sr2Cu2O5
Sr2Cu3O5,mp-552089,0.0,3.29068932,0.008717878000000567,"{38: 2, 29: 3, 8: 5}","[8, 29, 38]",85293382,Sr2Cu3O5
SrZnO5,mp-1208821,0.24700000000000003,-0.3632686,0.37637918107142987,"{38: 1, 30: 1, 8: 5}","[8, 30, 38]",85301381,Sr1Zn1O5
Sr2LaGaO5,mp-1218758,3.5963999999999996,3.57894137,0.030692072638887957,"{38: 2, 57: 1, 31: 1, 8: 5}","[8, 31, 38, 57]",85311382571,Sr2La1Ga1O5
Sr2PrGaO5,mp-1218718,3.4958,5.99765671,0.03175739798611055,"{38: 2, 59: 1, 31: 1, 8: 5}","[8, 31, 38, 59]",85311382591,Sr2Pr1Ga1O5
Sr2GdGaO5,mp-1218806,2.3392999999999997,4.81768895,0.05848459999999811,"{38: 2, 64: 1, 31: 1, 8: 5}","[8, 31, 38, 64]",85311382641,Sr2Gd1Ga1O5
Sr2Ga2O5,mp-1020723,2.9485,1.1877302,0.011779743333333315,"{38: 2, 31: 2, 8: 5}","[8, 31, 38]",85312382,Sr2Ga2O5
Sr3GeO5,mp-1101351,2.7501,3.12865424,0.03563363555556087,"{38: 3, 32: 1, 8: 5}","[8, 32, 38]",85321383,Sr3Ge1O5
Sr2Ge2O5,mp-1187076,0.0,5.1671604,0.2568499799073951,"{38: 2, 32: 2, 8: 5}","[8, 32, 38]",85322382,Sr2Ge2O5
Sr24Fe16O53,mp-765020,0.0,2.48907002,0.2745611645161281,"{38: 24, 26: 16, 8: 53}","[8, 26, 38]",85326163824,Sr24Fe16O53
SrAsO5,mp-734426,0.5076,-0.14317542,0.3301868981250067,"{38: 1, 33: 1, 8: 5}","[8, 33, 38]",85331381,Sr1As1O5
SrSe2O5,mp-28346,3.2926,0.78991724,0.0,"{38: 1, 34: 2, 8: 5}","[8, 34, 38]",85342381,Sr1Se2O5
SrBrO5,mp-1179218,0.08479999999999999,-0.75246227,0.3201856641071412,"{38: 1, 35: 1, 8: 5}","[8, 35, 38]",85351381,Sr1Br1O5
SrSn2Br6O5,mp-1209050,0.048799999999999996,-0.08288244,0.7466149776785684,"{38: 1, 50: 2, 35: 6, 8: 5}","[8, 35, 38, 50]",85356381502,Sr1Sn2Br6O5
SrPb2Br6O5,mp-1209193,0.0,0.7674572,0.6554478188511914,"{38: 1, 82: 2, 35: 6, 8: 5}","[8, 35, 38, 82]",85356381822,Sr1Pb2Br6O5
SrEu4O5,mp-769800,0.0,4.66177507,0.01120672499999742,"{38: 1, 63: 4, 8: 5}","[8, 38, 63]",85381634,Sr1Eu4O5
SrTl3O5,mp-1208600,0.0,5.58622153,0.056338214074074244,"{38: 1, 81: 3, 8: 5}","[8, 38, 81]",85381813,Sr1Tl3O5
Sr2In2O5,mp-22512,0.9973000000000001,3.52945438,0.029024510555549554,"{38: 2, 49: 2, 8: 5}","[8, 38, 49]",85382492,Sr2In2O5
Sr2WO5,mp-772676,2.9611,2.09699262,0.010750292500004477,"{38: 2, 74: 1, 8: 5}","[8, 38, 74]",85382741,Sr2W1O5
Sr2Tl2O5,mp-1218526,1.5206999999999997,2.81479135,0.0,"{38: 2, 81: 2, 8: 5}","[8, 38, 81]",85382812,Sr2Tl2O5
Sr2Bi2O5,mp-760510,2.2664,2.05634256,0.0,"{38: 2, 83: 2, 8: 5}","[8, 38, 83]",85382832,Sr2Bi2O5
Sr2UO5,mp-18471,2.1693,2.30832156,0.0,"{38: 2, 92: 1, 8: 5}","[8, 38, 92]",85382921,Sr2U1O5
Sr24Fe16O55,mp-773104,0.0,2.4828243,0.0003125856842123298,"{38: 24, 26: 16, 8: 55}","[8, 26, 38]",85526163824,Sr24Fe16O55
BaSr7V8(Si2O7)8,mp-778499,2.8387999999999995,2.84935809,0.011332789311097713,"{56: 1, 38: 7, 23: 8, 14: 16, 8: 56}","[8, 14, 23, 38, 56]",8561416238387561,Ba1Sr7V8Si16O56
Sr18Ca3Cr14O56,mp-1219532,0.35470000000000024,2.09439647,0.0,"{38: 18, 20: 3, 24: 14, 8: 56}","[8, 20, 24, 38]",85620324143818,Sr18Ca3Cr14O56
Sr14Nb19O57,mp-1173426,0.0,4.35874836,0.037554617347218766,"{38: 14, 41: 19, 8: 57}","[8, 38, 41]",85738144119,Sr14Nb19O57
Sr2MnGaO5F,mp-1218766,0.0,2.85064724,0.1336769141874976,"{38: 2, 25: 1, 31: 1, 8: 5, 9: 1}","[8, 9, 25, 31, 38]",8591251311382,Sr2Mn1Ga1O5F1
Na3Sr14La3Ti20O60,mp-1173878,1.6818,3.7559466,0.006575493392521281,"{11: 3, 38: 14, 57: 3, 22: 20, 8: 60}","[8, 11, 22, 38, 57]",86011322203814573,Na3Sr14La3Ti20O60
Na3Sr14Nd3Ti20O60,mp-695175,1.8446000000000002,3.20436396,0.0092660968333238,"{11: 3, 38: 14, 60: 3, 22: 20, 8: 60}","[8, 11, 22, 38, 60]",86011322203814603,Na3Sr14Nd3Ti20O60
Na7Sr6Nd7Ti20O60,mp-1173858,0.0,4.13342696,0.05403227447775194,"{11: 7, 38: 6, 60: 7, 22: 20, 8: 60}","[8, 11, 22, 38, 60]",8601172220386607,Na7Sr6Nd7Ti20O60
Na9Sr2La9Ti20O60,mp-695213,1.9452999999999996,4.27533823,0.013285665077509279,"{11: 9, 38: 2, 57: 9, 22: 20, 8: 60}","[8, 11, 22, 38, 57]",8601192220382579,Na9Sr2La9Ti20O60
Na9Sr2Nd9Ti20O60,mp-694961,2.1521999999999997,2.9595949,0.0,"{11: 9, 38: 2, 60: 9, 22: 20, 8: 60}","[8, 11, 22, 38, 60]",8601192220382609,Na9Sr2Nd9Ti20O60
Sr14La6Mg3Ti17O60,mp-686467,1.8642999999999996,5.82490951,0.007120883624999408,"{38: 14, 57: 6, 12: 3, 22: 17, 8: 60}","[8, 12, 22, 38, 57]",86012322173814576,Sr14La6Mg3Ti17O60
Sr6La14Mg7Ti13O60,mp-691028,1.8064999999999998,5.17805321,0.02419259002499885,"{38: 6, 57: 14, 12: 7, 22: 13, 8: 60}","[8, 12, 22, 38, 57]",86012722133865714,Sr6La14Mg7Ti13O60
Sr6La14Ti3Mn17O60,mp-1173230,0.0,6.37775083,0.1534261514333224,"{38: 6, 57: 14, 22: 3, 25: 17, 8: 60}","[8, 22, 25, 38, 57]",86022325173865714,Sr6La14Ti3Mn17O60
Sr6La14Mn17(CuO20)3,mp-1173225,0.0,5.78543277,0.15765735944667192,"{38: 6, 57: 14, 25: 17, 29: 3, 8: 60}","[8, 25, 29, 38, 57]",86025172933865714,Sr6La14Mn17Cu3O60
Sr6La14Mn17(SnO20)3,mp-1173234,0.0,6.12796923,0.1608244089633395,"{38: 6, 57: 14, 25: 17, 50: 3, 8: 60}","[8, 25, 38, 50, 57]",86025173865035714,Sr6La14Mn17Sn3O60
Sr20FeCo9(MoO6)10,mp-706242,0.21989999999999998,4.36514828,0.0006444226499731087,"{38: 20, 26: 1, 27: 9, 42: 10, 8: 60}","[8, 26, 27, 38, 42]",86026127938204210,Sr20Fe1Co9Mo10O60
Sr20Fe3Co7(MoO6)10,mp-744266,0.9566999999999997,3.9782108,0.0009665237500211532,"{38: 20, 26: 3, 27: 7, 42: 10, 8: 60}","[8, 26, 27, 38, 42]",86026327738204210,Sr20Fe3Co7Mo10O60
Sr20Fe9Co(MoO6)10,mp-720269,0.29710000000000036,4.34620112,0.0,"{38: 20, 26: 9, 27: 1, 42: 10, 8: 60}","[8, 26, 27, 38, 42]",86026927138204210,Sr20Fe9Co1Mo10O60
NaSrCaMnO6,mp-1517363,0.0,1.05682357,0.18751171577777814,"{11: 1, 38: 1, 20: 1, 25: 1, 8: 6}","[8, 11, 20, 25, 38]",86111201251381,Na1Sr1Ca1Mn1O6
NaSrTiBiO6,mp-1522682,0.6261000000000001,2.99183903,0.11527602600000009,"{11: 1, 38: 1, 22: 1, 83: 1, 8: 6}","[8, 11, 22, 38, 83]",86111221381831,Na1Sr1Ti1Bi1O6
NaSrZrVO6,mp-1519080,1.198,2.2738152,0.11672829016665887,"{11: 1, 38: 1, 40: 1, 23: 1, 8: 6}","[8, 11, 23, 38, 40]",86111231381401,Na1Sr1Zr1V1O6
NaSrTbVO6,mp-1520524,0.0,1.58959541,0.19611189722916578,"{11: 1, 38: 1, 65: 1, 23: 1, 8: 6}","[8, 11, 23, 38, 65]",86111231381651,Na1Sr1Tb1V1O6
NaSrYMnO6,mp-1521870,0.0,1.25082664,0.14798719196874988,"{11: 1, 38: 1, 39: 1, 25: 1, 8: 6}","[8, 11, 25, 38, 39]",86111251381391,Na1Sr1Y1Mn1O6
NaSrMnSnO6,mp-1521795,0.0,2.89209992,0.14329115181249552,"{11: 1, 38: 1, 25: 1, 50: 1, 8: 6}","[8, 11, 25, 38, 50]",86111251381501,Na1Sr1Mn1Sn1O6
BaNaSrMnO6,mp-1522792,0.0,1.40811892,0.1533208218333355,"{56: 1, 11: 1, 38: 1, 25: 1, 8: 6}","[8, 11, 25, 38, 56]",86111251381561,Ba1Na1Sr1Mn1O6
NaSrLaMnO6,mp-1520704,0.0,2.13300773,0.2608823080833247,"{11: 1, 38: 1, 57: 1, 25: 1, 8: 6}","[8, 11, 25, 38, 57]",86111251381571,Na1Sr1La1Mn1O6
NaSrCeMnO6,mp-1516683,0.0,2.2922765,0.13087862050000432,"{11: 1, 38: 1, 58: 1, 25: 1, 8: 6}","[8, 11, 25, 38, 58]",86111251381581,Na1Sr1Ce1Mn1O6
NaSrPrMnO6,mp-1521790,0.0,1.16138401,0.20183767256250018,"{11: 1, 38: 1, 59: 1, 25: 1, 8: 6}","[8, 11, 25, 38, 59]",86111251381591,Na1Sr1Pr1Mn1O6
NaSrNdMnO6,mp-1517834,0.0,1.12991629,0.1933507189999979,"{11: 1, 38: 1, 60: 1, 25: 1, 8: 6}","[8, 11, 25, 38, 60]",86111251381601,Na1Sr1Nd1Mn1O6
NaSrSmMnO6,mp-1519593,0.0,1.13365075,0.17337338868750063,"{11: 1, 38: 1, 62: 1, 25: 1, 8: 6}","[8, 11, 25, 38, 62]",86111251381621,Na1Sr1Sm1Mn1O6
NaSrEuMnO6,mp-1517725,0.0,1.85641688,0.273590966125,"{11: 1, 38: 1, 63: 1, 25: 1, 8: 6}","[8, 11, 25, 38, 63]",86111251381631,Na1Sr1Eu1Mn1O6
NaSrGdMnO6,mp-1518489,0.0,1.22255927,0.14258316437500085,"{11: 1, 38: 1, 64: 1, 25: 1, 8: 6}","[8, 11, 25, 38, 64]",86111251381641,Na1Sr1Gd1Mn1O6
NaSrTbMnO6,mp-1523204,0.0,1.21073414,0.1496341800937495,"{11: 1, 38: 1, 65: 1, 25: 1, 8: 6}","[8, 11, 25, 38, 65]",86111251381651,Na1Sr1Tb1Mn1O6
NaSrDyMnO6,mp-1520296,0.0,1.20892643,0.1436952582499993,"{11: 1, 38: 1, 66: 1, 25: 1, 8: 6}","[8, 11, 25, 38, 66]",86111251381661,Na1Sr1Dy1Mn1O6
NaSrMnBiO6,mp-1517402,0.0,2.693666,0.1707666762500013,"{11: 1, 38: 1, 25: 1, 83: 1, 8: 6}","[8, 11, 25, 38, 83]",86111251381831,Na1Sr1Mn1Bi1O6
NaSr2MnO6,mp-1522511,0.0,1.46639683,0.1637252115000063,"{11: 1, 38: 2, 25: 1, 8: 6}","[8, 11, 25, 38]",86111251382,Na1Sr2Mn1O6
NaSrYFeO6,mp-1518900,0.0,1.56656996,0.14159943843749367,"{11: 1, 38: 1, 39: 1, 26: 1, 8: 6}","[8, 11, 26, 38, 39]",86111261381391,Na1Sr1Y1Fe1O6
NaSrLaFeO6,mp-1522660,0.0,2.46379754,0.1786393696500017,"{11: 1, 38: 1, 57: 1, 26: 1, 8: 6}","[8, 11, 26, 38, 57]",86111261381571,Na1Sr1La1Fe1O6
NaSrCeFeO6,mp-1522517,0.0,2.52438864,0.12418758899999638,"{11: 1, 38: 1, 58: 1, 26: 1, 8: 6}","[8, 11, 26, 38, 58]",86111261381581,Na1Sr1Ce1Fe1O6
NaSrPrFeO6,mp-1519261,0.0,1.54081741,0.17754715502884455,"{11: 1, 38: 1, 59: 1, 26: 1, 8: 6}","[8, 11, 26, 38, 59]",86111261381591,Na1Sr1Pr1Fe1O6
NaSrNdFeO6,mp-1516413,0.0,1.53294455,0.16999562749999875,"{11: 1, 38: 1, 60: 1, 26: 1, 8: 6}","[8, 11, 26, 38, 60]",86111261381601,Na1Sr1Nd1Fe1O6
NaSrSmFeO6,mp-1517805,0.0,1.52551549,0.1527270270624994,"{11: 1, 38: 1, 62: 1, 26: 1, 8: 6}","[8, 11, 26, 38, 62]",86111261381621,Na1Sr1Sm1Fe1O6
NaSrTbFeO6,mp-1517684,0.0,1.61784725,0.13400335943750274,"{11: 1, 38: 1, 65: 1, 26: 1, 8: 6}","[8, 11, 26, 38, 65]",86111261381651,Na1Sr1Tb1Fe1O6
NaSrDyFeO6,mp-1518306,0.0,1.5229945,0.1354274694999953,"{11: 1, 38: 1, 66: 1, 26: 1, 8: 6}","[8, 11, 26, 38, 66]",86111261381661,Na1Sr1Dy1Fe1O6
NaSrFeBiO6,mp-1519031,0.0,2.33331265,0.14204689399999992,"{11: 1, 38: 1, 26: 1, 83: 1, 8: 6}","[8, 11, 26, 38, 83]",86111261381831,Na1Sr1Fe1Bi1O6
NaSrCoBiO6,mp-1519070,0.0,2.58536994,0.2126236524999916,"{11: 1, 38: 1, 27: 1, 83: 1, 8: 6}","[8, 11, 27, 38, 83]",86111271381831,Na1Sr1Co1Bi1O6
NaSrYSeO6,mp-1517333,2.0769999999999995,2.71380762,0.13426002993749364,"{11: 1, 38: 1, 39: 1, 34: 1, 8: 6}","[8, 11, 34, 38, 39]",86111341381391,Na1Sr1Y1Se1O6
NaSrLaSeO6,mp-1522549,2.2348999999999997,3.49134043,0.1572679216249968,"{11: 1, 38: 1, 57: 1, 34: 1, 8: 6}","[8, 11, 34, 38, 57]",86111341381571,Na1Sr1La1Se1O6
NaSrPrSeO6,mp-1521459,2.1145,2.44998923,0.16246047643749773,"{11: 1, 38: 1, 59: 1, 34: 1, 8: 6}","[8, 11, 34, 38, 59]",86111341381591,Na1Sr1Pr1Se1O6
NaSrSmSeO6,mp-1517453,2.0883,2.53324591,0.1440589195624966,"{11: 1, 38: 1, 62: 1, 34: 1, 8: 6}","[8, 11, 34, 38, 62]",86111341381621,Na1Sr1Sm1Se1O6
NaSrEuSeO6,mp-1518459,0.0,2.49069354,0.2214788849999989,"{11: 1, 38: 1, 63: 1, 34: 1, 8: 6}","[8, 11, 34, 38, 63]",86111341381631,Na1Sr1Eu1Se1O6
NaSrGdSeO6,mp-1517329,2.0319,2.51345941,0.13581188024999413,"{11: 1, 38: 1, 64: 1, 34: 1, 8: 6}","[8, 11, 34, 38, 64]",86111341381641,Na1Sr1Gd1Se1O6
NaSrTbSeO6,mp-1523004,2.0783000000000005,2.6505675,0.13070922393749562,"{11: 1, 38: 1, 65: 1, 34: 1, 8: 6}","[8, 11, 34, 38, 65]",86111341381651,Na1Sr1Tb1Se1O6