formula,material_id,band_gap,efermi,energy_above_hull,comp_atoms,sorted_keys_comp_atoms,comp_number,new_formula
Sr2LaTaO6,mp-1205692,3.5116,2.9297843,0.1365914648750053,"{38: 2, 57: 1, 73: 1, 8: 6}","[8, 38, 57, 73]",86382571731,Sr2La1Ta1O6
Sr2LaBiO6,mp-1518084,1.7340999999999998,3.10719001,0.0,"{38: 2, 57: 1, 83: 1, 8: 6}","[8, 38, 57, 83]",86382571831,Sr2La1Bi1O6
Sr2CeHfO6,mp-1520500,2.3310999999999997,2.46063996,0.05043714799999677,"{38: 2, 58: 1, 72: 1, 8: 6}","[8, 38, 58, 72]",86382581721,Sr2Ce1Hf1O6
Sr2CeIrO6,mp-6603,0.0,4.47334219,0.0,"{38: 2, 58: 1, 77: 1, 8: 6}","[8, 38, 58, 77]",86382581771,Sr2Ce1Ir1O6
Sr2CeBiO6,mp-1516784,0.0,3.86230069,0.027068305500011824,"{38: 2, 58: 1, 83: 1, 8: 6}","[8, 38, 58, 83]",86382581831,Sr2Ce1Bi1O6
Sr2PrTaO6,mp-1207116,3.37,1.99023115,0.12391487968750248,"{38: 2, 59: 1, 73: 1, 8: 6}","[8, 38, 59, 73]",86382591731,Sr2Pr1Ta1O6
Sr2PrBiO6,mp-1516990,1.7451000000000003,2.15260283,0.0,"{38: 2, 59: 1, 83: 1, 8: 6}","[8, 38, 59, 83]",86382591831,Sr2Pr1Bi1O6
Sr2Pr2PtO6,mp-1218742,0.8192999999999997,3.32756365,0.2828990005681771,"{38: 2, 59: 2, 78: 1, 8: 6}","[8, 38, 59, 78]",86382592781,Sr2Pr2Pt1O6
Sr2NdTaO6,mp-1208759,3.7007999999999996,1.72379047,0.0,"{38: 2, 60: 1, 73: 1, 8: 6}","[8, 38, 60, 73]",86382601731,Sr2Nd1Ta1O6
Sr2NdBiO6,mp-23093,1.7139000000000002,2.06816948,0.0,"{38: 2, 60: 1, 83: 1, 8: 6}","[8, 38, 60, 83]",86382601831,Sr2Nd1Bi1O6
Sr2NdUO6,mp-1205651,0.5156999999999998,5.60582755,0.16864735962500355,"{38: 2, 60: 1, 92: 1, 8: 6}","[8, 38, 60, 92]",86382601921,Sr2Nd1U1O6
Sr2SmTaO6,mp-1208761,3.7716000000000003,1.64426421,0.0,"{38: 2, 62: 1, 73: 1, 8: 6}","[8, 38, 62, 73]",86382621731,Sr2Sm1Ta1O6
Sr2SmWO6,mp-1517397,2.0057000000000005,3.28514699,0.06129221820832598,"{38: 2, 62: 1, 74: 1, 8: 6}","[8, 38, 62, 74]",86382621741,Sr2Sm1W1O6
Sr2SmBiO6,mp-1208755,1.8088000000000002,1.97240874,0.0,"{38: 2, 62: 1, 83: 1, 8: 6}","[8, 38, 62, 83]",86382621831,Sr2Sm1Bi1O6
Sr2SmUO6,mp-1206901,0.6715999999999998,5.25845554,0.1446667573125051,"{38: 2, 62: 1, 92: 1, 8: 6}","[8, 38, 62, 92]",86382621921,Sr2Sm1U1O6
Sr2EuTaO6,mp-1209013,0.0,2.16776608,0.07319321074999863,"{38: 2, 63: 1, 73: 1, 8: 6}","[8, 38, 63, 73]",86382631731,Sr2Eu1Ta1O6
Sr2EuWO6,mp-1519604,0.008399999999999963,4.6969137,0.03819094249998223,"{38: 2, 63: 1, 74: 1, 8: 6}","[8, 38, 63, 74]",86382631741,Sr2Eu1W1O6
Sr2EuBiO6,mp-1208871,0.0,2.56731916,0.03653264449998783,"{38: 2, 63: 1, 83: 1, 8: 6}","[8, 38, 63, 83]",86382631831,Sr2Eu1Bi1O6
Sr2GdTaO6,mp-1209102,3.5570000000000004,1.83565864,0.0,"{38: 2, 64: 1, 73: 1, 8: 6}","[8, 38, 64, 73]",86382641731,Sr2Gd1Ta1O6
Sr2GdWO6,mp-1522359,2.1165,3.39369813,0.051977910833331364,"{38: 2, 64: 1, 74: 1, 8: 6}","[8, 38, 64, 74]",86382641741,Sr2Gd1W1O6
Sr2GdReO6,mp-13936,0.0,4.40237879,0.09699045416673258,"{38: 2, 64: 1, 75: 1, 8: 6}","[8, 38, 64, 75]",86382641751,Sr2Gd1Re1O6
Sr2GdBiO6,mp-1208851,1.5339,2.11802068,0.0,"{38: 2, 64: 1, 83: 1, 8: 6}","[8, 38, 64, 83]",86382641831,Sr2Gd1Bi1O6
Sr2TbHfO6,mp-1523019,0.0,1.43762977,0.08699221793749956,"{38: 2, 65: 1, 72: 1, 8: 6}","[8, 38, 65, 72]",86382651721,Sr2Tb1Hf1O6
Sr2TbTaO6,mp-1208756,3.8367,1.72987641,0.0,"{38: 2, 65: 1, 73: 1, 8: 6}","[8, 38, 65, 73]",86382651731,Sr2Tb1Ta1O6
Sr2TbWO6,mp-1520674,2.0089,3.43760303,0.03914137212499469,"{38: 2, 65: 1, 74: 1, 8: 6}","[8, 38, 65, 74]",86382651741,Sr2Tb1W1O6
Sr2TbReO6,mp-13937,0.0,4.64262956,0.0886485008542337,"{38: 2, 65: 1, 75: 1, 8: 6}","[8, 38, 65, 75]",86382651751,Sr2Tb1Re1O6
Sr2TbIrO6,mp-6362,0.0,3.45902668,0.0,"{38: 2, 65: 1, 77: 1, 8: 6}","[8, 38, 65, 77]",86382651771,Sr2Tb1Ir1O6
Sr2TbBiO6,mp-1520641,2.6815000000000007,2.28354808,0.0,"{38: 2, 65: 1, 83: 1, 8: 6}","[8, 38, 65, 83]",86382651831,Sr2Tb1Bi1O6
Sr2DyTaO6,mp-1208889,3.8495999999999997,1.70882522,0.0,"{38: 2, 66: 1, 73: 1, 8: 6}","[8, 38, 66, 73]",86382661731,Sr2Dy1Ta1O6
Sr2DyWO6,mp-1519670,0.0,5.02905458,0.13290435370832654,"{38: 2, 66: 1, 74: 1, 8: 6}","[8, 38, 66, 74]",86382661741,Sr2Dy1W1O6
Sr2DyReO6,mp-13938,0.0,4.64455113,0.08651884891673234,"{38: 2, 66: 1, 75: 1, 8: 6}","[8, 38, 66, 75]",86382661751,Sr2Dy1Re1O6
Sr2DyBiO6,mp-1208858,1.8841999999999999,3.89712279,0.0,"{38: 2, 66: 1, 83: 1, 8: 6}","[8, 38, 66, 83]",86382661831,Sr2Dy1Bi1O6
Sr2DyUO6,mp-1205924,0.9030000000000005,5.25972088,0.10429275075000355,"{38: 2, 66: 1, 92: 1, 8: 6}","[8, 38, 66, 92]",86382661921,Sr2Dy1U1O6
Sr2HoTaO6,mp-1189408,3.8551999999999995,1.83508492,0.0,"{38: 2, 67: 1, 73: 1, 8: 6}","[8, 38, 67, 73]",86382671731,Sr2Ho1Ta1O6
Sr2HoReO6,mp-7888,0.0,4.63764304,0.07306219185423224,"{38: 2, 67: 1, 75: 1, 8: 6}","[8, 38, 67, 75]",86382671751,Sr2Ho1Re1O6
Sr2HoBiO6,mp-1208845,1.8267999999999998,3.8022222,0.0,"{38: 2, 67: 1, 83: 1, 8: 6}","[8, 38, 67, 83]",86382671831,Sr2Ho1Bi1O6
Sr2HoUO6,mp-1205846,0.9093,5.32860645,0.09680619868750462,"{38: 2, 67: 1, 92: 1, 8: 6}","[8, 38, 67, 92]",86382671921,Sr2Ho1U1O6
Sr2ErTaO6,mp-1208927,3.8743999999999996,1.74304384,0.0,"{38: 2, 68: 1, 73: 1, 8: 6}","[8, 38, 68, 73]",86382681731,Sr2Er1Ta1O6
Sr2ErReO6,mp-13939,0.0,4.50759762,0.0665114384166774,"{38: 2, 68: 1, 75: 1, 8: 6}","[8, 38, 68, 75]",86382681751,Sr2Er1Re1O6
Sr2ErBiO6,mp-1208875,1.9513000000000003,3.97861336,0.0,"{38: 2, 68: 1, 83: 1, 8: 6}","[8, 38, 68, 83]",86382681831,Sr2Er1Bi1O6
Sr2ErUO6,mp-1207220,0.9143999999999997,5.4026546,0.09002565925000106,"{38: 2, 68: 1, 92: 1, 8: 6}","[8, 38, 68, 92]",86382681921,Sr2Er1U1O6
Sr2TmTaO6,mp-16605,3.5448999999999997,1.81981902,0.0,"{38: 2, 69: 1, 73: 1, 8: 6}","[8, 38, 69, 73]",86382691731,Sr2Tm1Ta1O6
Sr2TmReO6,mp-13940,0.0,4.6616237,0.05843953304173155,"{38: 2, 69: 1, 75: 1, 8: 6}","[8, 38, 69, 75]",86382691751,Sr2Tm1Re1O6
Sr2TmBiO6,mp-1208751,1.9455,3.95988533,0.0,"{38: 2, 69: 1, 83: 1, 8: 6}","[8, 38, 69, 83]",86382691831,Sr2Tm1Bi1O6
Sr2LuTaO6,mp-1205553,3.4874,2.17817751,0.0,"{38: 2, 71: 1, 73: 1, 8: 6}","[8, 38, 71, 73]",86382711731,Sr2Lu1Ta1O6
Sr2LuIrO6,mp-22726,0.0,3.63285393,0.0,"{38: 2, 71: 1, 77: 1, 8: 6}","[8, 38, 71, 77]",86382711771,Sr2Lu1Ir1O6
Sr2LuBiO6,mp-23100,1.9779999999999998,2.08880719,0.0,"{38: 2, 71: 1, 83: 1, 8: 6}","[8, 38, 71, 83]",86382711831,Sr2Lu1Bi1O6
Sr2LuUO6,mp-1206223,0.9942000000000002,6.1474097,0.07068622806249891,"{38: 2, 71: 1, 92: 1, 8: 6}","[8, 38, 71, 92]",86382711921,Sr2Lu1U1O6
Sr2HfWO6,mp-1523371,0.0,4.84190923,0.11389043099999974,"{38: 2, 72: 1, 74: 1, 8: 6}","[8, 38, 72, 74]",86382721741,Sr2Hf1W1O6
Sr3YRhO6,mp-18498,2.1512000000000002,3.44904798,0.0,"{38: 3, 39: 1, 45: 1, 8: 6}","[8, 38, 39, 45]",86383391451,Sr3Y1Rh1O6
Sr3NbO6,mp-1208719,0.0,1.3027322,0.21251513899999974,"{38: 3, 41: 1, 8: 6}","[8, 38, 41]",86383411,Sr3Nb1O6
Sr3MoO6,mp-1205668,2.2840999999999996,2.05880835,0.10991281250000373,"{38: 3, 42: 1, 8: 6}","[8, 38, 42]",86383421,Sr3Mo1O6
Sr3InRhO6,mp-669389,1.5007000000000001,4.40030663,0.0,"{38: 3, 49: 1, 45: 1, 8: 6}","[8, 38, 45, 49]",86383451491,Sr3In1Rh1O6
Sr3SmRhO6,mp-17829,2.0124000000000004,3.44274439,0.0,"{38: 3, 62: 1, 45: 1, 8: 6}","[8, 38, 45, 62]",86383451621,Sr3Sm1Rh1O6
Sr3EuRhO6,mp-505615,0.0,3.15373465,0.025893291590919354,"{38: 3, 63: 1, 45: 1, 8: 6}","[8, 38, 45, 63]",86383451631,Sr3Eu1Rh1O6
Sr3GdRhO6,mp-17355,1.9628000000000005,3.43450719,0.0,"{38: 3, 64: 1, 45: 1, 8: 6}","[8, 38, 45, 64]",86383451641,Sr3Gd1Rh1O6
Sr3TbRhO6,mp-18705,2.1142,3.52678444,0.0,"{38: 3, 65: 1, 45: 1, 8: 6}","[8, 38, 45, 65]",86383451651,Sr3Tb1Rh1O6
Sr3DyRhO6,mp-18651,2.1335,3.51497006,0.0,"{38: 3, 66: 1, 45: 1, 8: 6}","[8, 38, 45, 66]",86383451661,Sr3Dy1Rh1O6
Sr3HoRhO6,mp-18652,2.1601999999999997,3.54025469,0.0,"{38: 3, 67: 1, 45: 1, 8: 6}","[8, 38, 45, 67]",86383451671,Sr3Ho1Rh1O6
Sr3ErRhO6,mp-17149,2.192,3.40980133,0.0,"{38: 3, 68: 1, 45: 1, 8: 6}","[8, 38, 45, 68]",86383451681,Sr3Er1Rh1O6
Sr3CdIrO6,mp-15269,0.0,3.63717857,0.0,"{38: 3, 48: 1, 77: 1, 8: 6}","[8, 38, 48, 77]",86383481771,Sr3Cd1Ir1O6
Sr3CdPtO6,mp-10392,2.0334,3.02281456,0.0,"{38: 3, 48: 1, 78: 1, 8: 6}","[8, 38, 48, 78]",86383481781,Sr3Cd1Pt1O6
Sr3TeO6,mp-768941,3.0317,2.61185226,0.0,"{38: 3, 52: 1, 8: 6}","[8, 38, 52]",86383521,Sr3Te1O6
Sr3WO6,mp-755326,3.3088000000000006,1.77744728,0.0,"{38: 3, 74: 1, 8: 6}","[8, 38, 74]",86383741,Sr3W1O6
Sr3Tl2O6,mp-31355,0.7726000000000002,2.6716285,0.002360622499999465,"{38: 3, 81: 2, 8: 6}","[8, 38, 81]",86383812,Sr3Tl2O6
Sr3UO6,mp-3956,2.2133999999999996,2.2927034,0.0,"{38: 3, 92: 1, 8: 6}","[8, 38, 92]",86383921,Sr3U1O6
Sr4RhO6,mp-557481,0.0,2.9871856,0.0,"{38: 4, 45: 1, 8: 6}","[8, 38, 45]",86384451,Sr4Rh1O6
Sr4PdO6,mp-29775,1.4647000000000001,2.36676282,0.0,"{38: 4, 46: 1, 8: 6}","[8, 38, 46]",86384461,Sr4Pd1O6
Sr4HfO6,mp-779428,3.7468000000000004,1.85540407,0.06503614772726962,"{38: 4, 72: 1, 8: 6}","[8, 38, 72]",86384721,Sr4Hf1O6
Sr4IrO6,mp-9039,0.0,3.70117711,0.0,"{38: 4, 77: 1, 8: 6}","[8, 38, 77]",86384771,Sr4Ir1O6
Sr4PtO6,mp-4598,2.1959,3.03694562,0.0,"{38: 4, 78: 1, 8: 6}","[8, 38, 78]",86384781,Sr4Pt1O6
KSrNb2O6F,mp-579086,1.7845,0.73681493,0.0,"{19: 1, 38: 1, 41: 2, 8: 6, 9: 1}","[8, 9, 19, 38, 41]",8691191381412,K1Sr1Nb2O6F1
SrNb2CuO6F,mp-1232354,0.0,3.30994722,0.05642387444805941,"{38: 1, 41: 2, 29: 1, 8: 6, 9: 1}","[8, 9, 29, 38, 41]",8691291381412,Sr1Nb2Cu1O6F1
SrCaMgSi2O7,mp-1218410,4.504,1.54907359,0.011946154652778596,"{38: 1, 20: 1, 12: 1, 14: 2, 8: 7}","[8, 12, 14, 20, 38]",87121142201381,Sr1Ca1Mg1Si2O7
BaSrMgSi2O7,mp-1227482,4.522600000000001,1.27698102,0.0018267700000000886,"{56: 1, 38: 1, 12: 1, 14: 2, 8: 7}","[8, 12, 14, 38, 56]",87121142381561,Ba1Sr1Mg1Si2O7
SrMgP2O7,mp-18469,5.3660000000000005,1.2129149,0.0,"{38: 1, 12: 1, 15: 2, 8: 7}","[8, 12, 15, 38]",87121152381,Sr1Mg1P2O7
Sr3MgTi2O7,mp-2219990,0.0,5.96759211,0.1285067220769216,"{38: 3, 12: 1, 22: 2, 8: 7}","[8, 12, 22, 38]",87121222383,Sr3Mg1Ti2O7
SrMgV2O7,mp-1208827,2.7983000000000002,3.51025577,0.0,"{38: 1, 12: 1, 23: 2, 8: 7}","[8, 12, 23, 38]",87121232381,Sr1Mg1V2O7
Sr3MgV2O7,mp-2218863,0.0,4.90961524,0.0670754203205215,"{38: 3, 12: 1, 23: 2, 8: 7}","[8, 12, 23, 38]",87121232383,Sr3Mg1V2O7
Sr3MgMn2O7,mp-2218972,0.0,3.67333817,0.054990717628190744,"{38: 3, 12: 1, 25: 2, 8: 7}","[8, 12, 25, 38]",87121252383,Sr3Mg1Mn2O7
Sr2YMgTlFe2O7,mp-2228484,0.40130000000000043,3.88486406,0.49763035578869186,"{38: 2, 39: 1, 12: 1, 81: 1, 26: 2, 8: 7}","[8, 12, 26, 38, 39, 81]",87121262382391811,Sr2Y1Mg1Tl1Fe2O7
Sr3MgFe2O7,mp-2240893,0.10460000000000003,4.03808566,0.06904298692307886,"{38: 3, 12: 1, 26: 2, 8: 7}","[8, 12, 26, 38]",87121262383,Sr3Mg1Fe2O7
Sr2YMgTlCu2O7,mp-2228604,0.0,3.90986067,0.24556252763392727,"{38: 2, 39: 1, 12: 1, 81: 1, 29: 2, 8: 7}","[8, 12, 29, 38, 39, 81]",87121292382391811,Sr2Y1Mg1Tl1Cu2O7
Sr2YMgCu3O7,mp-2241019,0.0,3.91511824,0.1849026395982145,"{38: 2, 39: 1, 12: 1, 29: 3, 8: 7}","[8, 12, 29, 38, 39]",87121293382391,Sr2Y1Mg1Cu3O7
Sr2MgGe2O7,mp-972387,3.6039,0.42008,0.0,"{38: 2, 12: 1, 32: 2, 8: 7}","[8, 12, 32, 38]",87121322382,Sr2Mg1Ge2O7
Sr2TiAlCu2O7,mp-1249417,0.0,4.76545672,0.18609365355769825,"{38: 2, 22: 1, 13: 1, 29: 2, 8: 7}","[8, 13, 22, 29, 38]",87131221292382,Sr2Ti1Al1Cu2O7
Sr2YTi2AlO7,mp-1048068,0.0,5.57252227,0.07998555022971132,"{38: 2, 39: 1, 22: 2, 13: 1, 8: 7}","[8, 13, 22, 38, 39]",87131222382391,Sr2Y1Ti2Al1O7
Sr2YAlV2O7,mp-1252036,0.7058,4.74926931,0.113701256170879,"{38: 2, 39: 1, 13: 1, 23: 2, 8: 7}","[8, 13, 23, 38, 39]",87131232382391,Sr2Y1Al1V2O7
Sr2AlCrCu2O7,mp-1043752,0.0,4.29258072,0.5390859075961547,"{38: 2, 13: 1, 24: 1, 29: 2, 8: 7}","[8, 13, 24, 29, 38]",87131241292382,Sr2Al1Cr1Cu2O7
Sr2YAlCr2O7,mp-1046696,1.3326000000000002,4.23291284,0.06698890937232704,"{38: 2, 39: 1, 13: 1, 24: 2, 8: 7}","[8, 13, 24, 38, 39]",87131242382391,Sr2Y1Al1Cr2O7
Sr2MnAlCu2O7,mp-1042903,0.0,3.80650958,0.11228464201923405,"{38: 2, 25: 1, 13: 1, 29: 2, 8: 7}","[8, 13, 25, 29, 38]",87131251292382,Sr2Mn1Al1Cu2O7
Sr2YMn2AlO7,mp-1046905,0.3918999999999997,4.83310684,0.07690554746794653,"{38: 2, 39: 1, 25: 2, 13: 1, 8: 7}","[8, 13, 25, 38, 39]",87131252382391,Sr2Y1Mn2Al1O7
Sr2AlFeCu2O7,mp-1042742,0.3066,3.81863299,0.08843938841345356,"{38: 2, 13: 1, 26: 1, 29: 2, 8: 7}","[8, 13, 26, 29, 38]",87131261292382,Sr2Al1Fe1Cu2O7
Sr2AlGaFe2O7,mp-1048505,2.0116,3.47621039,0.10788210402645149,"{38: 2, 13: 1, 31: 1, 26: 2, 8: 7}","[8, 13, 26, 31, 38]",87131262311382,Sr2Al1Ga1Fe2O7
Sr2YAlFe2O7,mp-1047019,1.3778999999999995,4.0937813,0.04337486131410362,"{38: 2, 39: 1, 13: 1, 26: 2, 8: 7}","[8, 13, 26, 38, 39]",87131262382391,Sr2Y1Al1Fe2O7
Sr2AlTlFe2O7,mp-1045986,0.0,5.22746968,0.34802161930288644,"{38: 2, 13: 1, 81: 1, 26: 2, 8: 7}","[8, 13, 26, 38, 81]",87131262382811,Sr2Al1Tl1Fe2O7
Sr2AlCoCu2O7,mp-1042971,0.0,3.63102985,0.07715050840907534,"{38: 2, 13: 1, 27: 1, 29: 2, 8: 7}","[8, 13, 27, 29, 38]",87131271292382,Sr2Al1Co1Cu2O7
Sr2YAlCo2O7,mp-1046824,0.0,4.05788135,0.1406383782371794,"{38: 2, 39: 1, 13: 1, 27: 2, 8: 7}","[8, 13, 27, 38, 39]",87131272382391,Sr2Y1Al1Co2O7
Sr2AlGaCu2O7,mp-1048042,0.0,3.59171895,0.09431057394231068,"{38: 2, 13: 1, 31: 1, 29: 2, 8: 7}","[8, 13, 29, 31, 38]",87131292311382,Sr2Al1Ga1Cu2O7
Sr2YAlCu2O7,mp-643741,0.0,3.91092436,0.028732220432695854,"{38: 2, 39: 1, 13: 1, 29: 2, 8: 7}","[8, 13, 29, 38, 39]",87131292382391,Sr2Y1Al1Cu2O7
Sr2AlCu2MoO7,mp-1043885,0.0,4.532259,0.3369257520993667,"{38: 2, 13: 1, 29: 2, 42: 1, 8: 7}","[8, 13, 29, 38, 42]",87131292382421,Sr2Al1Cu2Mo1O7
Sr2AlCu2AgO7,mp-1046370,0.0,3.07085575,0.11811895999998878,"{38: 2, 13: 1, 29: 2, 47: 1, 8: 7}","[8, 13, 29, 38, 47]",87131292382471,Sr2Al1Cu2Ag1O7
Sr2AlCu2SnO7,mp-1046452,0.0,5.10213457,0.18095891298076783,"{38: 2, 13: 1, 29: 2, 50: 1, 8: 7}","[8, 13, 29, 38, 50]",87131292382501,Sr2Al1Cu2Sn1O7
Sr2AlCu2SbO7,mp-1046341,0.0,5.13202929,0.18950455336538408,"{38: 2, 13: 1, 29: 2, 51: 1, 8: 7}","[8, 13, 29, 38, 51]",87131292382511,Sr2Al1Cu2Sb1O7
Sr2TaAlCu2O7,mp-1046620,0.0,5.21900148,0.3792433100000068,"{38: 2, 73: 1, 13: 1, 29: 2, 8: 7}","[8, 13, 29, 38, 73]",87131292382731,Sr2Ta1Al1Cu2O7
Sr2AlCu2BiO7,mp-1046495,0.0,4.67707653,0.10275468826923184,"{38: 2, 13: 1, 29: 2, 83: 1, 8: 7}","[8, 13, 29, 38, 83]",87131292382831,Sr2Al1Cu2Bi1O7
Sr2AlCu3O7,mp-1046382,0.0,3.68128748,0.10265219461536823,"{38: 2, 13: 1, 29: 3, 8: 7}","[8, 13, 29, 38]",87131293382,Sr2Al1Cu3O7
Sr2YAlSn2O7,mp-1048081,1.1120999999999999,4.75842963,0.24589407225960525,"{38: 2, 39: 1, 13: 1, 50: 2, 8: 7}","[8, 13, 38, 39, 50]",87131382391502,Sr2Y1Al1Sn2O7
Sr2YAlW2O7,mp-1046811,0.0,4.73212995,0.4735320609294771,"{38: 2, 39: 1, 13: 1, 74: 2, 8: 7}","[8, 13, 38, 39, 74]",87131382391742,Sr2Y1Al1W2O7
SrYAl3O7,mp-1217784,4.1991000000000005,6.33994562,0.015194742937461925,"{38: 1, 39: 1, 13: 3, 8: 7}","[8, 13, 38, 39]",87133381391,Sr1Y1Al3O7
SrCaZnSi2O7,mp-1218075,4.0192,1.57643778,0.008905494097223077,"{38: 1, 20: 1, 30: 1, 14: 2, 8: 7}","[8, 14, 20, 30, 38]",87142201301381,Sr1Ca1Zn1Si2O7
SrTiSi2O7,mp-559208,3.6084999999999994,1.99048935,0.01776616992424529,"{38: 1, 22: 1, 14: 2, 8: 7}","[8, 14, 22, 38]",87142221381,Sr1Ti1Si2O7
SrVSi2O7,mp-19296,2.8547,2.78587825,0.011254992878789949,"{38: 1, 23: 1, 14: 2, 8: 7}","[8, 14, 23, 38]",87142231381,Sr1V1Si2O7
Sr2CuSi2O7,mp-15748,0.0,2.82648285,0.046312875000011466,"{38: 2, 29: 1, 14: 2, 8: 7}","[8, 14, 29, 38]",87142291382,Sr2Cu1Si2O7
SrZrSi2O7,mp-17468,4.4388000000000005,1.59488265,0.00108128727272927,"{38: 1, 40: 1, 14: 2, 8: 7}","[8, 14, 38, 40]",87142381401,Sr1Zr1Si2O7
K2SrP2O7,mp-557747,4.7677,0.3548785,0.0,"{19: 2, 38: 1, 15: 2, 8: 7}","[8, 15, 19, 38]",87152192381,K2Sr1P2O7
SrCrP2O7,mp-1179211,3.1321,2.87553327,0.0,"{38: 1, 24: 1, 15: 2, 8: 7}","[8, 15, 24, 38]",87152241381,Sr1Cr1P2O7
SrMnP2O7,mp-1208769,3.9331000000000005,1.93795295,0.0,"{38: 1, 25: 1, 15: 2, 8: 7}","[8, 15, 25, 38]",87152251381,Sr1Mn1P2O7
SrFeP2O7,mp-17881,4.2064,1.90284341,0.0,"{38: 1, 26: 1, 15: 2, 8: 7}","[8, 15, 26, 38]",87152261381,Sr1Fe1P2O7
SrCoP2O7,mp-17107,2.7826,1.78823495,0.0,"{38: 1, 27: 1, 15: 2, 8: 7}","[8, 15, 27, 38]",87152271381,Sr1Co1P2O7
SrCuP2O7,mp-14931,0.0,2.79909916,0.0,"{38: 1, 29: 1, 15: 2, 8: 7}","[8, 15, 29, 38]",87152291381,Sr1Cu1P2O7
SrZnP2O7,mp-558616,4.4422,1.20034848,0.0,"{38: 1, 30: 1, 15: 2, 8: 7}","[8, 15, 30, 38]",87152301381,Sr1Zn1P2O7
Rb2SrP2O7,mp-14354,4.712999999999999,0.4547737,0.0,"{37: 2, 38: 1, 15: 2, 8: 7}","[8, 15, 37, 38]",87152372381,Rb2Sr1P2O7
SrP2PdO7,mp-1208663,0.5015000000000001,2.92036393,0.0,"{38: 1, 15: 2, 46: 1, 8: 7}","[8, 15, 38, 46]",87152381461,Sr1P2Pd1O7
SrCdP2O7,mp-17693,3.7032,0.85067569,0.0,"{38: 1, 48: 1, 15: 2, 8: 7}","[8, 15, 38, 48]",87152381481,Sr1Cd1P2O7
Cs2SrP2O7,mp-14355,4.8534999999999995,0.94749813,0.0,"{55: 2, 38: 1, 15: 2, 8: 7}","[8, 15, 38, 55]",87152381552,Cs2Sr1P2O7
Sr2P2O7,mp-5616,5.1125,1.03798642,0.0,"{38: 2, 15: 2, 8: 7}","[8, 15, 38]",87152382,Sr2P2O7
SrNb2CuClO7,mp-1232359,0.0,0.78046814,0.11969864202437819,"{38: 1, 41: 2, 29: 1, 17: 1, 8: 7}","[8, 17, 29, 38, 41]",87171291381412,Sr1Nb2Cu1Cl1O7
K2SrTa2O7,mp-7148,2.0748,1.53003698,0.0,"{19: 2, 38: 1, 73: 2, 8: 7}","[8, 19, 38, 73]",87192381732,K2Sr1Ta2O7
Sr2CaTlCu2O7,mp-20824,0.0,3.24179653,0.016886719711548537,"{38: 2, 20: 1, 81: 1, 29: 2, 8: 7}","[8, 20, 29, 38, 81]",87201292382811,Sr2Ca1Tl1Cu2O7
SrLa2Sc2O7,mp-1218245,3.4542,4.1655236,0.04210240749999983,"{38: 1, 57: 2, 21: 2, 8: 7}","[8, 21, 38, 57]",87212381572,Sr1La2Sc2O7
SrGd2Sc2O7,mp-1101990,2.6316,5.245773,0.09981353229166601,"{38: 1, 64: 2, 21: 2, 8: 7}","[8, 21, 38, 64]",87212381642,Sr1Gd2Sc2O7
SrTb2Sc2O7,mp-1103380,3.4884,2.72163318,0.11996951177083481,"{38: 1, 65: 2, 21: 2, 8: 7}","[8, 21, 38, 65]",87212381652,Sr1Tb2Sc2O7
Sr2TiCu2O7,mp-1046189,0.0,1.92933988,0.12592169151040622,"{38: 2, 22: 1, 29: 2, 8: 7}","[8, 22, 29, 38]",87221292382,Sr2Ti1Cu2O7
Sr2YTiCu2O7,mp-1046088,0.0,5.10122156,0.10121435995192307,"{38: 2, 39: 1, 22: 1, 29: 2, 8: 7}","[8, 22, 29, 38, 39]",87221292382391,Sr2Y1Ti1Cu2O7
Sr3TiRuO7,mp-1218471,0.3658000000000001,4.14835505,0.004935267916637898,"{38: 3, 22: 1, 44: 1, 8: 7}","[8, 22, 38, 44]",87221383441,Sr3Ti1Ru1O7
Sr2Ti2GaO7,mp-1048055,0.07919999999999972,3.60879128,0.2890208667708283,"{38: 2, 22: 2, 31: 1, 8: 7}","[8, 22, 31, 38]",87222311382,Sr2Ti2Ga1O7
Sr2YTi2GaO7,mp-1048031,0.0,5.44307368,0.2737654815224442,"{38: 2, 39: 1, 22: 2, 31: 1, 8: 7}","[8, 22, 31, 38, 39]",87222311382391,Sr2Y1Ti2Ga1O7
Sr2YTi2O7,mp-1048233,0.0,4.32501821,0.204797866336774,"{38: 2, 39: 1, 22: 2, 8: 7}","[8, 22, 38, 39]",87222382391,Sr2Y1Ti2O7
Sr2YTi2TlO7,mp-1045706,0.0,5.79238838,0.26178266450320464,"{38: 2, 39: 1, 22: 2, 81: 1, 8: 7}","[8, 22, 38, 39, 81]",87222382391811,Sr2Y1Ti2Tl1O7
Sr2Y2Ti2O7,mp-1048099,0.0,5.3848867,0.13273634251922317,"{38: 2, 39: 2, 22: 2, 8: 7}","[8, 22, 38, 39]",87222382392,Sr2Y2Ti2O7
Sr3Ti2O7,mp-3349,1.8404999999999996,2.91489648,0.0,"{38: 3, 22: 2, 8: 7}","[8, 22, 38]",87222383,Sr3Ti2O7
Sr2VCu2O7,mp-1043859,0.0,1.97077412,0.23101442992187682,"{38: 2, 23: 1, 29: 2, 8: 7}","[8, 23, 29, 38]",87231292382,Sr2V1Cu2O7
Sr2YVCu2O7,mp-1360171,0.0,4.3142593,0.16744508552884607,"{38: 2, 39: 1, 23: 1, 29: 2, 8: 7}","[8, 23, 29, 38, 39]",87231292382391,Sr2Y1V1Cu2O7
SrV2CuO7,mp-504871,0.31400000000000006,1.48292785,0.01590340875002738,"{38: 1, 23: 2, 29: 1, 8: 7}","[8, 23, 29, 38]",87232291381,Sr1V2Cu1O7
SrV2ZnO7,mp-556361,2.8063000000000002,0.34302215,0.0010004685227267274,"{38: 1, 23: 2, 30: 1, 8: 7}","[8, 23, 30, 38]",87232301381,Sr1V2Zn1O7
Sr2V2GaO7,mp-1046832,0.0,3.21849381,0.23257719053460413,"{38: 2, 23: 2, 31: 1, 8: 7}","[8, 23, 31, 38]",87232311382,Sr2V2Ga1O7
Sr2YV2GaO7,mp-1046616,0.0,5.23857871,0.16694761409649228,"{38: 2, 39: 1, 23: 2, 31: 1, 8: 7}","[8, 23, 31, 38, 39]",87232311382391,Sr2Y1V2Ga1O7
Sr2V2O7,mp-19368,3.2113,0.28525147,0.0,"{38: 2, 23: 2, 8: 7}","[8, 23, 38]",87232382,Sr2V2O7
Sr2YV2O7,mp-1047261,0.0,3.66532734,0.28154601561195847,"{38: 2, 39: 1, 23: 2, 8: 7}","[8, 23, 38, 39]",87232382391,Sr2Y1V2O7
Sr2YTlV2O7,mp-1046038,0.0,4.68361884,0.2092740949238756,"{38: 2, 39: 1, 81: 1, 23: 2, 8: 7}","[8, 23, 38, 39, 81]",87232382391811,Sr2Y1Tl1V2O7
Sr2Y2V2O7,mp-1047231,0.0,4.92392043,0.18110029875401068,"{38: 2, 39: 2, 23: 2, 8: 7}","[8, 23, 38, 39]",87232382392,Sr2Y2V2O7
Sr3V2O7,mp-22391,0.5565000000000002,3.73462449,0.0,"{38: 3, 23: 2, 8: 7}","[8, 23, 38]",87232383,Sr3V2O7