formula,material_id,band_gap,efermi,energy_above_hull,comp_atoms,sorted_keys_comp_atoms,comp_number,new_formula
Sr2TbCrO6,mp-1520970,0.0,2.61275119,0.15520605262499299,"{38: 2, 65: 1, 24: 1, 8: 6}","[8, 24, 38, 65]",86241382651,Sr2Tb1Cr1O6
Sr2DyCrO6,mp-1517166,0.0,2.64230184,0.14583202868749545,"{38: 2, 66: 1, 24: 1, 8: 6}","[8, 24, 38, 66]",86241382661,Sr2Dy1Cr1O6
Sr2HfCrO6,mp-1095039,0.0,2.79059221,0.033016028468747294,"{38: 2, 72: 1, 24: 1, 8: 6}","[8, 24, 38, 72]",86241382721,Sr2Hf1Cr1O6
Sr2TaCrO6,mp-1539400,2.9169,2.99004833,0.0,"{38: 2, 73: 1, 24: 1, 8: 6}","[8, 24, 38, 73]",86241382731,Sr2Ta1Cr1O6
Sr2CrWO6,mp-1207052,0.0,5.36785747,0.0,"{38: 2, 24: 1, 74: 1, 8: 6}","[8, 24, 38, 74]",86241382741,Sr2Cr1W1O6
Sr2CrReO6,mp-1205958,0.2378,5.19262694,0.018688741547604693,"{38: 2, 24: 1, 75: 1, 8: 6}","[8, 24, 38, 75]",86241382751,Sr2Cr1Re1O6
Sr2CrOsO6,mp-1078354,0.0,4.93836672,0.0,"{38: 2, 24: 1, 76: 1, 8: 6}","[8, 24, 38, 76]",86241382761,Sr2Cr1Os1O6
Sr2CrBiO6,mp-1520897,0.27269999999999994,3.53609716,0.11313846760937363,"{38: 2, 24: 1, 83: 1, 8: 6}","[8, 24, 38, 83]",86241382831,Sr2Cr1Bi1O6
Sr2UCrO6,mp-1205705,0.9756999999999998,5.73977788,0.028327752071442447,"{38: 2, 92: 1, 24: 1, 8: 6}","[8, 24, 38, 92]",86241382921,Sr2U1Cr1O6
SrCr2BiO6,mp-1218365,0.07339999999999991,3.7504846,0.04994249991667665,"{38: 1, 24: 2, 83: 1, 8: 6}","[8, 24, 38, 83]",86242381831,Sr1Cr2Bi1O6
SrLaMnFeO6,mp-1218252,0.12390000000000079,4.75468088,0.05192041976641448,"{38: 1, 57: 1, 25: 1, 26: 1, 8: 6}","[8, 25, 26, 38, 57]",86251261381571,Sr1La1Mn1Fe1O6
SrMnFeBiO6,mp-1218209,1.1880000000000006,4.51670101,0.02837989275001007,"{38: 1, 25: 1, 26: 1, 83: 1, 8: 6}","[8, 25, 26, 38, 83]",86251261381831,Sr1Mn1Fe1Bi1O6
SrLaMnCoO6,mp-40761,0.0,5.26944795,0.25366409878226115,"{38: 1, 57: 1, 25: 1, 27: 1, 8: 6}","[8, 25, 27, 38, 57]",86251271381571,Sr1La1Mn1Co1O6
SrNdMnCoO6,mp-1218143,0.0,3.77363646,0.08710958170040417,"{38: 1, 60: 1, 25: 1, 27: 1, 8: 6}","[8, 25, 27, 38, 60]",86251271381601,Sr1Nd1Mn1Co1O6
SrMn(GeO3)2,mp-1208680,1.5991,3.92809973,0.0,"{38: 1, 25: 1, 32: 2, 8: 6}","[8, 25, 32, 38]",86251322381,Sr1Mn1Ge2O6
SrMn(SeO3)2,mp-559818,3.1700999999999997,1.51369741,0.0,"{38: 1, 25: 1, 34: 2, 8: 6}","[8, 25, 34, 38]",86251342381,Sr1Mn1Se2O6
SrPrYMnO6,mp-1523331,2.2802,3.02191649,0.1437165696250009,"{38: 1, 59: 1, 39: 1, 25: 1, 8: 6}","[8, 25, 38, 39, 59]",86251381391591,Sr1Pr1Y1Mn1O6
SrPrZrMnO6,mp-1519076,0.0,4.76775734,0.19006441624999226,"{38: 1, 59: 1, 40: 1, 25: 1, 8: 6}","[8, 25, 38, 40, 59]",86251381401591,Sr1Pr1Zr1Mn1O6
SrEuZrMnO6,mp-1521062,0.0,4.32457816,0.12861045409374938,"{38: 1, 63: 1, 40: 1, 25: 1, 8: 6}","[8, 25, 38, 40, 63]",86251381401631,Sr1Eu1Zr1Mn1O6
SrLaMnNbO6,mp-1218213,1.8724999999999996,4.41682623,0.0,"{38: 1, 57: 1, 25: 1, 41: 1, 8: 6}","[8, 25, 38, 41, 57]",86251381411571,Sr1La1Mn1Nb1O6
SrPrMnNbO6,mp-1522937,0.7382999999999997,4.81589762,0.15004171434998703,"{38: 1, 59: 1, 25: 1, 41: 1, 8: 6}","[8, 25, 38, 41, 59]",86251381411591,Sr1Pr1Mn1Nb1O6
SrMnNbBiO6,mp-1522554,0.0,5.00372679,0.2108972565000009,"{38: 1, 25: 1, 41: 1, 83: 1, 8: 6}","[8, 25, 38, 41, 83]",86251381411831,Sr1Mn1Nb1Bi1O6
SrLaMnMoO6,mp-690552,0.9097,5.20227506,0.05353575161666768,"{38: 1, 57: 1, 25: 1, 42: 1, 8: 6}","[8, 25, 38, 42, 57]",86251381421571,Sr1La1Mn1Mo1O6
SrLaMnRuO6,mp-699363,0.0,5.17683798,0.07835537316665508,"{38: 1, 57: 1, 25: 1, 44: 1, 8: 6}","[8, 25, 38, 44, 57]",86251381441571,Sr1La1Mn1Ru1O6
SrMnInWO6,mp-1522574,0.0,4.21774028,0.19729743000000521,"{38: 1, 25: 1, 49: 1, 74: 1, 8: 6}","[8, 25, 38, 49, 74]",86251381491741,Sr1Mn1In1W1O6
SrLaMnSnO6,mp-1218210,0.9869000000000003,5.44157754,0.10850478281668252,"{38: 1, 57: 1, 25: 1, 50: 1, 8: 6}","[8, 25, 38, 50, 57]",86251381501571,Sr1La1Mn1Sn1O6
SrNdMnSnO6,mp-1519799,0.0,5.57500395,0.1677348527499989,"{38: 1, 60: 1, 25: 1, 50: 1, 8: 6}","[8, 25, 38, 50, 60]",86251381501601,Sr1Nd1Mn1Sn1O6
SrSmMnSnO6,mp-1520963,0.0,5.61089254,0.20243770875000688,"{38: 1, 62: 1, 25: 1, 50: 1, 8: 6}","[8, 25, 38, 50, 62]",86251381501621,Sr1Sm1Mn1Sn1O6
SrMnSnWO6,mp-1519598,1.4639000000000006,4.78493558,0.12091296849999722,"{38: 1, 25: 1, 50: 1, 74: 1, 8: 6}","[8, 25, 38, 50, 74]",86251381501741,Sr1Mn1Sn1W1O6
SrLaMnSbO6,mp-727395,1.7198000000000002,5.47212369,0.017000356223967117,"{38: 1, 57: 1, 25: 1, 51: 1, 8: 6}","[8, 25, 38, 51, 57]",86251381511571,Sr1La1Mn1Sb1O6
SrMnTeO6,mp-1218186,0.9939,2.48461493,0.19356053407407625,"{38: 1, 25: 1, 52: 1, 8: 6}","[8, 25, 38, 52]",86251381521,Sr1Mn1Te1O6
BaSrNdMnO6,mp-1523075,0.0,1.88757974,0.10944408587500032,"{56: 1, 38: 1, 60: 1, 25: 1, 8: 6}","[8, 25, 38, 56, 60]",86251381561601,Ba1Sr1Nd1Mn1O6
BaSrSmMnO6,mp-1517679,0.0,1.91042313,0.09551421906249935,"{56: 1, 38: 1, 62: 1, 25: 1, 8: 6}","[8, 25, 38, 56, 62]",86251381561621,Ba1Sr1Sm1Mn1O6
BaSrDyMnO6,mp-1522044,0.0,1.98136344,0.06459557750001554,"{56: 1, 38: 1, 66: 1, 25: 1, 8: 6}","[8, 25, 38, 56, 66]",86251381561661,Ba1Sr1Dy1Mn1O6
BaSrMnWO6,mp-1519441,2.0186000000000006,3.62423569,0.0065905072499958806,"{56: 1, 38: 1, 25: 1, 74: 1, 8: 6}","[8, 25, 38, 56, 74]",86251381561741,Ba1Sr1Mn1W1O6
Ba2SrMnO6,mp-1521476,0.0,1.57039488,0.11460186775001446,"{56: 2, 38: 1, 25: 1, 8: 6}","[8, 25, 38, 56]",86251381562,Ba2Sr1Mn1O6
SrLaTaMnO6,mp-684742,2.3617999999999997,4.57895613,0.0,"{38: 1, 57: 1, 73: 1, 25: 1, 8: 6}","[8, 25, 38, 57, 73]",86251381571731,Sr1La1Ta1Mn1O6
SrLaMnWO6,mp-39626,1.7819000000000003,5.42528371,0.05922874596666894,"{38: 1, 57: 1, 25: 1, 74: 1, 8: 6}","[8, 25, 38, 57, 74]",86251381571741,Sr1La1Mn1W1O6
SrTbPrMnO6,mp-1519326,2.2916000000000003,3.02714221,0.14966991762499937,"{38: 1, 65: 1, 59: 1, 25: 1, 8: 6}","[8, 25, 38, 59, 65]",86251381591651,Sr1Tb1Pr1Mn1O6
SrNdDyMnO6,mp-1520503,2.2836000000000003,2.9607449,0.16108167212500035,"{38: 1, 60: 1, 66: 1, 25: 1, 8: 6}","[8, 25, 38, 60, 66]",86251381601661,Sr1Nd1Dy1Mn1O6
SrNdHfMnO6,mp-1518278,0.0,4.7766163,0.19166141650000057,"{38: 1, 60: 1, 72: 1, 25: 1, 8: 6}","[8, 25, 38, 60, 72]",86251381601721,Sr1Nd1Hf1Mn1O6
SrSmDyMnO6,mp-1523010,2.2776999999999994,2.7527713,0.20340417781248377,"{38: 1, 62: 1, 66: 1, 25: 1, 8: 6}","[8, 25, 38, 62, 66]",86251381621661,Sr1Sm1Dy1Mn1O6
SrEuDyMnO6,mp-1517910,0.0,2.29992236,0.21550492824998457,"{38: 1, 63: 1, 66: 1, 25: 1, 8: 6}","[8, 25, 38, 63, 66]",86251381631661,Sr1Eu1Dy1Mn1O6
SrEuHfMnO6,mp-1518221,0.0,3.99367545,0.1269129528437496,"{38: 1, 63: 1, 72: 1, 25: 1, 8: 6}","[8, 25, 38, 63, 72]",86251381631721,Sr1Eu1Hf1Mn1O6
Sr2ZrMnO6,mp-1080730,1.5060000000000002,2.91431508,0.004860288999999796,"{38: 2, 40: 1, 25: 1, 8: 6}","[8, 25, 38, 40]",86251382401,Sr2Zr1Mn1O6
Sr2MnNbO6,mp-1285223,1.2020000000000004,3.10447938,0.0,"{38: 2, 25: 1, 41: 1, 8: 6}","[8, 25, 38, 41]",86251382411,Sr2Mn1Nb1O6
Sr2MnMoO6,mp-555929,0.9300999999999999,3.73677476,0.0,"{38: 2, 25: 1, 42: 1, 8: 6}","[8, 25, 38, 42]",86251382421,Sr2Mn1Mo1O6
Sr2MnRuO6,mp-1218769,0.0,3.53846384,0.0,"{38: 2, 25: 1, 44: 1, 8: 6}","[8, 25, 38, 44]",86251382441,Sr2Mn1Ru1O6
Sr2MnSnO6,mp-1523324,0.0,3.78358298,0.060910077999999146,"{38: 2, 25: 1, 50: 1, 8: 6}","[8, 25, 38, 50]",86251382501,Sr2Mn1Sn1O6
Sr2MnSbO6,mp-1218763,0.8793000000000002,4.04157468,0.0,"{38: 2, 25: 1, 51: 1, 8: 6}","[8, 25, 38, 51]",86251382511,Sr2Mn1Sb1O6
Sr2MnTeO6,mp-1208762,1.4722,5.4419757,0.0,"{38: 2, 25: 1, 52: 1, 8: 6}","[8, 25, 38, 52]",86251382521,Sr2Mn1Te1O6
Sr2NdMnO6,mp-1521512,0.0,1.88670271,0.13868688179166178,"{38: 2, 60: 1, 25: 1, 8: 6}","[8, 25, 38, 60]",86251382601,Sr2Nd1Mn1O6
Sr2SmMnO6,mp-1521945,0.0,1.90207348,0.11398393947916219,"{38: 2, 62: 1, 25: 1, 8: 6}","[8, 25, 38, 62]",86251382621,Sr2Sm1Mn1O6
Sr2DyMnO6,mp-1519151,0.0,1.97268419,0.07322754491666483,"{38: 2, 66: 1, 25: 1, 8: 6}","[8, 25, 38, 66]",86251382661,Sr2Dy1Mn1O6
Sr2TaMnO6,mp-1284552,1.3047,4.47990421,0.0,"{38: 2, 73: 1, 25: 1, 8: 6}","[8, 25, 38, 73]",86251382731,Sr2Ta1Mn1O6
Sr2MnWO6,mp-19315,1.8985999999999996,3.48103319,0.0,"{38: 2, 25: 1, 74: 1, 8: 6}","[8, 25, 38, 74]",86251382741,Sr2Mn1W1O6
Sr2MnReO6,mp-1205767,0.2928000000000006,4.32635634,0.018409484797619058,"{38: 2, 25: 1, 75: 1, 8: 6}","[8, 25, 38, 75]",86251382751,Sr2Mn1Re1O6
Sr2MnBiPbO6,mp-1173263,0.0,3.64152807,0.0,"{38: 2, 25: 1, 83: 1, 82: 1, 8: 6}","[8, 25, 38, 82, 83]",86251382821831,Sr2Mn1Bi1Pb1O6
Sr2UMnO6,mp-554843,0.6699999999999999,4.32531833,0.18951037500003665,"{38: 2, 92: 1, 25: 1, 8: 6}","[8, 25, 38, 92]",86251382921,Sr2U1Mn1O6
Sr3MnBiO6,mp-1208471,0.0,4.25089332,0.00038533050000122415,"{38: 3, 25: 1, 83: 1, 8: 6}","[8, 25, 38, 83]",86251383831,Sr3Mn1Bi1O6
SrMn2O6,mp-1208638,0.47219999999999995,1.49212351,0.2039827976851889,"{38: 1, 25: 2, 8: 6}","[8, 25, 38]",86252381,Sr1Mn2O6
BaSrMn2O6,mp-1227420,0.7890999999999999,2.62268332,0.012634823083306657,"{56: 1, 38: 1, 25: 2, 8: 6}","[8, 25, 38, 56]",86252381561,Ba1Sr1Mn2O6
SrLaMn2O6,mp-699554,0.0,5.15964528,0.09436899110833608,"{38: 1, 57: 1, 25: 2, 8: 6}","[8, 25, 38, 57]",86252381571,Sr1La1Mn2O6
SrPrMn2O6,mp-1218059,0.0,3.79550397,0.0007212606249993314,"{38: 1, 59: 1, 25: 2, 8: 6}","[8, 25, 38, 59]",86252381591,Sr1Pr1Mn2O6
SrNdMn2O6,mp-1218102,0.0,3.48576433,0.009708054522713283,"{38: 1, 60: 1, 25: 2, 8: 6}","[8, 25, 38, 60]",86252381601,Sr1Nd1Mn2O6
SrSmMn2O6,mp-1217787,0.0,3.65684636,0.00930589489287037,"{38: 1, 62: 1, 25: 2, 8: 6}","[8, 25, 38, 62]",86252381621,Sr1Sm1Mn2O6
SrHoMn2O6,mp-1218261,0.0,3.55836133,0.03325199758333497,"{38: 1, 67: 1, 25: 2, 8: 6}","[8, 25, 38, 67]",86252381671,Sr1Ho1Mn2O6
SrMn2BiO6,mp-1279155,0.8914,3.95107917,0.021250872800001375,"{38: 1, 25: 2, 83: 1, 8: 6}","[8, 25, 38, 83]",86252381831,Sr1Mn2Bi1O6
SrLaFeCoO6,mp-1280895,0.3611999999999993,5.04580605,0.011479184814513488,"{38: 1, 57: 1, 26: 1, 27: 1, 8: 6}","[8, 26, 27, 38, 57]",86261271381571,Sr1La1Fe1Co1O6
SrPrFeCoO6,mp-1218109,0.0,3.5621039,0.0,"{38: 1, 59: 1, 26: 1, 27: 1, 8: 6}","[8, 26, 27, 38, 59]",86261271381591,Sr1Pr1Fe1Co1O6
SrGdFeCoO6,mp-1218267,0.0,3.48424075,0.0745801881630399,"{38: 1, 64: 1, 26: 1, 27: 1, 8: 6}","[8, 26, 27, 38, 64]",86261271381641,Sr1Gd1Fe1Co1O6
Sr2FeCoO6,mp-1094054,0.0,2.8766267,0.02026553681451393,"{38: 2, 26: 1, 27: 1, 8: 6}","[8, 26, 27, 38]",86261271382,Sr2Fe1Co1O6
Sr2FeCu(PbO3)2,mp-1191264,0.9441999999999995,3.71552786,0.0,"{38: 2, 26: 1, 29: 1, 82: 2, 8: 6}","[8, 26, 29, 38, 82]",86261291382822,Sr2Fe1Cu1Pb2O6
SrEuYFeO6,mp-1522081,0.0,3.19738327,0.2598171819374979,"{38: 1, 63: 1, 39: 1, 26: 1, 8: 6}","[8, 26, 38, 39, 63]",86261381391631,Sr1Eu1Y1Fe1O6
SrEuZrFeO6,mp-1520461,0.0,2.72479847,0.08110954768750034,"{38: 1, 63: 1, 40: 1, 26: 1, 8: 6}","[8, 26, 38, 40, 63]",86261381401631,Sr1Eu1Zr1Fe1O6
SrNbFeO6,mp-39995,0.0,0.59984543,0.19176083749999506,"{38: 1, 41: 1, 26: 1, 8: 6}","[8, 26, 38, 41]",86261381411,Sr1Nb1Fe1O6
SrNbFeSnO6,mp-1518938,1.7969999999999997,3.7689717,0.14707755549999568,"{38: 1, 41: 1, 26: 1, 50: 1, 8: 6}","[8, 26, 38, 41, 50]",86261381411501,Sr1Nb1Fe1Sn1O6
SrEuNbFeO6,mp-1519206,0.0,4.86470822,0.0674540679999911,"{38: 1, 63: 1, 41: 1, 26: 1, 8: 6}","[8, 26, 38, 41, 63]",86261381411631,Sr1Eu1Nb1Fe1O6
SrLaFeRuO6,mp-697833,0.0,5.83090251,0.007603096000001308,"{38: 1, 57: 1, 26: 1, 44: 1, 8: 6}","[8, 26, 38, 44, 57]",86261381441571,Sr1La1Fe1Ru1O6
SrPrFeRuO6,mp-1218067,0.0,4.62130287,0.0,"{38: 1, 59: 1, 26: 1, 44: 1, 8: 6}","[8, 26, 38, 44, 59]",86261381441591,Sr1Pr1Fe1Ru1O6
SrNdFeRuO6,mp-1218130,0.0,4.56704665,0.0026036289999815665,"{38: 1, 60: 1, 26: 1, 44: 1, 8: 6}","[8, 26, 38, 44, 60]",86261381441601,Sr1Nd1Fe1Ru1O6
SrLaFeSnO6,mp-1173171,2.8193,4.7300578,0.01437296950000011,"{38: 1, 57: 1, 26: 1, 50: 1, 8: 6}","[8, 26, 38, 50, 57]",86261381501571,Sr1La1Fe1Sn1O6
SrSmFeSnO6,mp-1518521,2.1723,4.47154891,0.15796458049999984,"{38: 1, 62: 1, 26: 1, 50: 1, 8: 6}","[8, 26, 38, 50, 62]",86261381501621,Sr1Sm1Fe1Sn1O6
SrEuFeSnO6,mp-1522302,0.0,4.25051252,0.17710564725000033,"{38: 1, 63: 1, 26: 1, 50: 1, 8: 6}","[8, 26, 38, 50, 63]",86261381501631,Sr1Eu1Fe1Sn1O6
SrFeSnWO6,mp-1520229,0.0,6.25967868,0.18331637449999771,"{38: 1, 26: 1, 50: 1, 74: 1, 8: 6}","[8, 26, 38, 50, 74]",86261381501741,Sr1Fe1Sn1W1O6
SrEuFeSbO6,mp-1519899,0.0,6.06449021,0.07941521100000593,"{38: 1, 63: 1, 26: 1, 51: 1, 8: 6}","[8, 26, 38, 51, 63]",86261381511631,Sr1Eu1Fe1Sb1O6
BaSrCeFeO6,mp-1522103,0.0,3.19878245,0.05962807399999992,"{56: 1, 38: 1, 58: 1, 26: 1, 8: 6}","[8, 26, 38, 56, 58]",86261381561581,Ba1Sr1Ce1Fe1O6
BaSrNdFeO6,mp-1517321,0.14690000000000003,2.14197414,0.08996083370833574,"{56: 1, 38: 1, 60: 1, 26: 1, 8: 6}","[8, 26, 38, 56, 60]",86261381561601,Ba1Sr1Nd1Fe1O6
BaSrSmFeO6,mp-1522620,0.11840000000000028,2.27939849,0.08020893239584215,"{56: 1, 38: 1, 62: 1, 26: 1, 8: 6}","[8, 26, 38, 56, 62]",86261381561621,Ba1Sr1Sm1Fe1O6
BaSrFeBiO6,mp-1522159,0.08370000000000033,3.1262558,0.019073074999901962,"{56: 1, 38: 1, 26: 1, 83: 1, 8: 6}","[8, 26, 38, 56, 83]",86261381561831,Ba1Sr1Fe1Bi1O6
Ba2SrFeO6,mp-1516973,0.0,1.72140484,0.08115816175000568,"{56: 2, 38: 1, 26: 1, 8: 6}","[8, 26, 38, 56]",86261381562,Ba2Sr1Fe1O6
SrLaFeBiO6,mp-1518769,0.0,5.85546462,0.21378390300000039,"{38: 1, 57: 1, 26: 1, 83: 1, 8: 6}","[8, 26, 38, 57, 83]",86261381571831,Sr1La1Fe1Bi1O6
SrPrDyFeO6,mp-1518138,0.0,3.29928578,0.19531366343746281,"{38: 1, 59: 1, 66: 1, 26: 1, 8: 6}","[8, 26, 38, 59, 66]",86261381591661,Sr1Pr1Dy1Fe1O6
SrSmHfFeO6,mp-1523358,2.0815,3.57000396,0.1687728942499973,"{38: 1, 62: 1, 72: 1, 26: 1, 8: 6}","[8, 26, 38, 62, 72]",86261381621721,Sr1Sm1Hf1Fe1O6
SrTbEuFeO6,mp-1518143,0.0,2.84434894,0.25463265393750056,"{38: 1, 65: 1, 63: 1, 26: 1, 8: 6}","[8, 26, 38, 63, 65]",86261381631651,Sr1Tb1Eu1Fe1O6
SrEuDyFeO6,mp-1517447,0.0,3.44828567,0.256840317,"{38: 1, 63: 1, 66: 1, 26: 1, 8: 6}","[8, 26, 38, 63, 66]",86261381631661,Sr1Eu1Dy1Fe1O6
SrEuHfFeO6,mp-1521050,0.0,2.89393835,0.1658586530000008,"{38: 1, 63: 1, 72: 1, 26: 1, 8: 6}","[8, 26, 38, 63, 72]",86261381631721,Sr1Eu1Hf1Fe1O6
SrEuFeWO6,mp-1517349,0.0,5.54927921,0.11259803299999405,"{38: 1, 63: 1, 26: 1, 74: 1, 8: 6}","[8, 26, 38, 63, 74]",86261381631741,Sr1Eu1Fe1W1O6
SrEuFeBiO6,mp-1518745,0.0,4.39184817,0.20310540249998787,"{38: 1, 63: 1, 26: 1, 83: 1, 8: 6}","[8, 26, 38, 63, 83]",86261381631831,Sr1Eu1Fe1Bi1O6
Sr2ZrFeO6,mp-1520386,0.0,2.48340959,0.052490123749999285,"{38: 2, 40: 1, 26: 1, 8: 6}","[8, 26, 38, 40]",86261382401,Sr2Zr1Fe1O6
Sr2NbFeO6,mp-1218741,1.7829000000000002,2.86989523,0.0,"{38: 2, 41: 1, 26: 1, 8: 6}","[8, 26, 38, 41]",86261382411,Sr2Nb1Fe1O6
Sr2FeMoO6,mp-1173284,0.5493000000000006,4.31159474,0.0,"{38: 2, 26: 1, 42: 1, 8: 6}","[8, 26, 38, 42]",86261382421,Sr2Fe1Mo1O6
Sr2FeRuO6,mp-1218831,0.0,3.37781394,0.0,"{38: 2, 26: 1, 44: 1, 8: 6}","[8, 26, 38, 44]",86261382441,Sr2Fe1Ru1O6
Sr2FeSnO6,mp-1292799,0.0,3.47456687,0.04593971099999994,"{38: 2, 26: 1, 50: 1, 8: 6}","[8, 26, 38, 50]",86261382501,Sr2Fe1Sn1O6
Sr2FeSbO6,mp-1218824,1.6733000000000002,3.71913991,0.0,"{38: 2, 26: 1, 51: 1, 8: 6}","[8, 26, 38, 51]",86261382511,Sr2Fe1Sb1O6
Sr2CeFeO6,mp-1521510,0.0,3.35840353,0.09834397100000292,"{38: 2, 58: 1, 26: 1, 8: 6}","[8, 26, 38, 58]",86261382581,Sr2Ce1Fe1O6
Sr2NdFeO6,mp-1519522,0.23720000000000008,2.30630321,0.12825513237500807,"{38: 2, 60: 1, 26: 1, 8: 6}","[8, 26, 38, 60]",86261382601,Sr2Nd1Fe1O6
Sr2SmFeO6,mp-1518753,0.23290000000000033,2.46584044,0.10863624906250724,"{38: 2, 62: 1, 26: 1, 8: 6}","[8, 26, 38, 62]",86261382621,Sr2Sm1Fe1O6
Sr2TbFeO6,mp-1522066,0.2272999999999996,2.5892895,0.08300172743751055,"{38: 2, 65: 1, 26: 1, 8: 6}","[8, 26, 38, 65]",86261382651,Sr2Tb1Fe1O6
Sr2DyFeO6,mp-1518012,0.2219000000000002,2.59664279,0.0771546305000097,"{38: 2, 66: 1, 26: 1, 8: 6}","[8, 26, 38, 66]",86261382661,Sr2Dy1Fe1O6
Sr2HfFeO6,mp-1078912,0.0,2.57141079,0.042010477999996354,"{38: 2, 72: 1, 26: 1, 8: 6}","[8, 26, 38, 72]",86261382721,Sr2Hf1Fe1O6
Sr2TaFeO6,mp-31760,1.5015,2.53673776,0.0,"{38: 2, 73: 1, 26: 1, 8: 6}","[8, 26, 38, 73]",86261382731,Sr2Ta1Fe1O6
Sr2FeWO6,mp-19266,1.7683999999999997,3.24216075,0.0,"{38: 2, 26: 1, 74: 1, 8: 6}","[8, 26, 38, 74]",86261382741,Sr2Fe1W1O6
Sr2FeReO6,mp-552162,0.0,5.04502968,0.0,"{38: 2, 26: 1, 75: 1, 8: 6}","[8, 26, 38, 75]",86261382751,Sr2Fe1Re1O6
Sr2FeOsO6,mp-1095170,0.0,4.3075657,0.0,"{38: 2, 26: 1, 76: 1, 8: 6}","[8, 26, 38, 76]",86261382761,Sr2Fe1Os1O6
Sr2FeIrO6,mp-1208946,0.0,3.74082114,0.0,"{38: 2, 26: 1, 77: 1, 8: 6}","[8, 26, 38, 77]",86261382771,Sr2Fe1Ir1O6
Sr2FeBiPbO6,mp-1218840,0.0,4.65247972,0.09361864346590476,"{38: 2, 26: 1, 83: 1, 82: 1, 8: 6}","[8, 26, 38, 82, 83]",86261382821831,Sr2Fe1Bi1Pb1O6
Sr2FeBiO6,mp-1205525,0.3495999999999997,3.61671861,0.030135142333336695,"{38: 2, 26: 1, 83: 1, 8: 6}","[8, 26, 38, 83]",86261382831,Sr2Fe1Bi1O6
Sr2UFeO6,mp-559166,1.1213999999999995,3.81404572,0.012668334000005999,"{38: 2, 92: 1, 26: 1, 8: 6}","[8, 26, 38, 92]",86261382921,Sr2U1Fe1O6
BaSr(FeO3)2,mp-1227735,0.0,2.21443296,0.005347741666666295,"{56: 1, 38: 1, 26: 2, 8: 6}","[8, 26, 38, 56]",86262381561,Ba1Sr1Fe2O6
SrLa(FeO3)2,mp-1218237,0.0,4.77232308,0.005240822000004641,"{38: 1, 57: 1, 26: 2, 8: 6}","[8, 26, 38, 57]",86262381571,Sr1La1Fe2O6
SrPr(FeO3)2,mp-1218069,0.0,3.39495006,0.0,"{38: 1, 59: 1, 26: 2, 8: 6}","[8, 26, 38, 59]",86262381591,Sr1Pr1Fe2O6
Sr3(FeO3)2,mp-18924,0.32010000000000005,3.27917437,0.0,"{38: 3, 26: 2, 8: 6}","[8, 26, 38]",86262383,Sr3Fe2O6
Sr2(FeO2)3,mp-1200902,0.2890999999999999,3.55360651,0.03691888482954475,"{38: 2, 26: 3, 8: 6}","[8, 26, 38]",86263382,Sr2Fe3O6
SrNd5Fe6(AsO)6,mp-694989,0.0,3.71896934,0.27306381145833036,"{38: 1, 60: 5, 26: 6, 33: 6, 8: 6}","[8, 26, 33, 38, 60]",86266336381605,Sr1Nd5Fe6As6O6
Sr3ZnCoO6,mp-1298662,1.2648000000000001,2.07320566,0.0,"{38: 3, 30: 1, 27: 1, 8: 6}","[8, 27, 30, 38]",86271301383,Sr3Zn1Co1O6
SrCo(GeO3)2,mp-1208672,2.269,4.21459613,0.0,"{38: 1, 27: 1, 32: 2, 8: 6}","[8, 27, 32, 38]",86271322381,Sr1Co1Ge2O6
SrEuYCoO6,mp-1518110,0.0,2.74637042,0.24888999375201237,"{38: 1, 63: 1, 39: 1, 27: 1, 8: 6}","[8, 27, 38, 39, 63]",86271381391631,Sr1Eu1Y1Co1O6
SrLaCoRuO6,mp-1218222,0.0,5.31653895,0.13204893641666526,"{38: 1, 57: 1, 27: 1, 44: 1, 8: 6}","[8, 27, 38, 44, 57]",86271381441571,Sr1La1Co1Ru1O6
SrPrCoRuO6,mp-1218107,0.0,4.15370484,0.05626899392499407,"{38: 1, 59: 1, 27: 1, 44: 1, 8: 6}","[8, 27, 38, 44, 59]",86271381441591,Sr1Pr1Co1Ru1O6
SrNdCoRuO6,mp-1218181,0.2846000000000002,4.12914645,0.050182278083331866,"{38: 1, 60: 1, 27: 1, 44: 1, 8: 6}","[8, 27, 38, 44, 60]",86271381441601,Sr1Nd1Co1Ru1O6
SrCoBiRuO6,mp-743579,0.0,4.59818268,0.08565112199999536,"{38: 1, 27: 1, 83: 1, 44: 1, 8: 6}","[8, 27, 38, 44, 83]",86271381441831,Sr1Co1Bi1Ru1O6
SrNdCoSbO6,mp-1523202,0.0,5.81192947,0.21589621968750272,"{38: 1, 60: 1, 27: 1, 51: 1, 8: 6}","[8, 27, 38, 51, 60]",86271381511601,Sr1Nd1Co1Sb1O6
BaSrPrCoO6,mp-1522515,0.1057999999999999,2.39867681,0.13348814643750817,"{56: 1, 38: 1, 59: 1, 27: 1, 8: 6}","[8, 27, 38, 56, 59]",86271381561591,Ba1Sr1Pr1Co1O6
BaSrCoWO6,mp-1227676,0.0,3.84934311,0.01503080999999895,"{56: 1, 38: 1, 27: 1, 74: 1, 8: 6}","[8, 27, 38, 56, 74]",86271381561741,Ba1Sr1Co1W1O6
SrLaTaCoO6,mp-1173186,0.0,6.44081654,0.1045692141944432,"{38: 1, 57: 1, 73: 1, 27: 1, 8: 6}","[8, 27, 38, 57, 73]",86271381571731,Sr1La1Ta1Co1O6
SrCePrCoO6,mp-1523044,1.8113000000000001,4.34083702,0.19239853093749026,"{38: 1, 58: 1, 59: 1, 27: 1, 8: 6}","[8, 27, 38, 58, 59]",86271381581591,Sr1Ce1Pr1Co1O6
SrPrDyCoO6,mp-1517726,0.0,3.18002566,0.17740317225201263,"{38: 1, 59: 1, 66: 1, 27: 1, 8: 6}","[8, 27, 38, 59, 66]",86271381591661,Sr1Pr1Dy1Co1O6
SrTbEuCoO6,mp-1518694,0.059099999999999986,0.2820696,1.2892731345020136,"{38: 1, 65: 1, 63: 1, 27: 1, 8: 6}","[8, 27, 38, 63, 65]",86271381631651,Sr1Tb1Eu1Co1O6
SrEuDyCoO6,mp-1518286,0.0,2.70882995,0.24142416581451265,"{38: 1, 63: 1, 66: 1, 27: 1, 8: 6}","[8, 27, 38, 63, 66]",86271381631661,Sr1Eu1Dy1Co1O6
SrEuCoWO6,mp-1521177,0.0,4.87426365,0.14863754487498682,"{38: 1, 63: 1, 27: 1, 74: 1, 8: 6}","[8, 27, 38, 63, 74]",86271381631741,Sr1Eu1Co1W1O6
Sr2YCoO6,mp-1080434,0.0,2.64667638,0.07619040572917068,"{38: 2, 39: 1, 27: 1, 8: 6}","[8, 27, 38, 39]",86271382391,Sr2Y1Co1O6
Sr2ZrCoO6,mp-1079027,0.0,3.33124011,0.13566212156451307,"{38: 2, 40: 1, 27: 1, 8: 6}","[8, 27, 38, 40]",86271382401,Sr2Zr1Co1O6