formula,material_id,band_gap,efermi,energy_above_hull,comp_atoms,sorted_keys_comp_atoms,comp_number,new_formula
Sr7Cu44As23,mp-1195752,0.0,6.1098891,0.0014703327702711988,"{38: 7, 29: 44, 33: 23}","[29, 33, 38]",29443323387,Sr7Cu44As23
SrCu5,mp-2726,0.0,5.2272962,0.0,"{38: 1, 29: 5}","[29, 38]",295381,Sr1Cu5
SrIn6Cu7,mp-680813,0.0,7.36986766,0.0,"{38: 1, 49: 6, 29: 7}","[29, 38, 49]",297381496,Sr1In6Cu7
Sr3(Cu2Sn)4,mp-1192625,0.0,5.96774332,0.032248582666667414,"{38: 3, 29: 8, 50: 4}","[29, 38, 50]",298383504,Sr3Cu8Sn4
SrCu9Ge4,mp-11144,0.0,6.75428506,0.0,"{38: 1, 29: 9, 32: 4}","[29, 32, 38]",299324381,Sr1Cu9Ge4
SrCu9Sn4,mp-1192662,0.0,7.432406,0.0,"{38: 1, 29: 9, 50: 4}","[29, 38, 50]",299381504,Sr1Cu9Sn4
SrZn11,mp-18026,0.0,2.962872,0.011865761979167999,"{38: 1, 30: 11}","[30, 38]",3011381,Sr1Zn11
Sr4Zn11,mp-1211218,0.0,1.53575284,0.2668575393333317,"{38: 4, 30: 11}","[30, 38]",3011384,Sr4Zn11
Sr2ZnGa,mp-1187111,0.0,2.20262965,0.024140984732145654,"{38: 2, 30: 1, 31: 1}","[30, 31, 38]",301311382,Sr2Zn1Ga1
SrZnGe,mp-1217763,0.0,2.43440254,0.0,"{38: 1, 30: 1, 32: 1}","[30, 32, 38]",301321381,Sr1Zn1Ge1
Sr2ZnGe,mp-1096073,0.0,-1.96642855,1.6670033191666658,"{38: 2, 30: 1, 32: 1}","[30, 32, 38]",301321382,Sr2Zn1Ge1
Sr2ZnAs2,mp-1218372,0.0,2.69980336,0.07292879042253464,"{38: 2, 30: 1, 33: 2}","[30, 33, 38]",301332382,Sr2Zn1As2
SrZn13,mp-672707,0.0,3.1695854,0.0,"{38: 1, 30: 13}","[30, 38]",3013381,Sr1Zn13
SrZn,mp-12724,0.0,2.10991117,0.0,"{38: 1, 30: 1}","[30, 38]",301381,Sr1Zn1
SrZrZn,mp-631390,0.0,2.365272,1.0723986944444448,"{38: 1, 40: 1, 30: 1}","[30, 38, 40]",301381401,Sr1Zr1Zn1
SrZnIn3,mp-1217777,0.0,5.4318473,0.0,"{38: 1, 30: 1, 49: 3}","[30, 38, 49]",301381493,Sr1Zn1In3
SrZnSn,mp-1019279,0.0,4.14388017,0.0,"{38: 1, 30: 1, 50: 1}","[30, 38, 50]",301381501,Sr1Zn1Sn1
SrZnSb2,mp-12275,0.0,4.83938617,0.0,"{38: 1, 30: 1, 51: 2}","[30, 38, 51]",301381512,Sr1Zn1Sb2
SrZnPb,mp-1019280,0.0,3.76495398,0.017397941987177035,"{38: 1, 30: 1, 82: 1}","[30, 38, 82]",301381821,Sr1Zn1Pb1
SrZnBi2,mp-29623,0.0,4.14286313,0.01962515576922863,"{38: 1, 30: 1, 83: 2}","[30, 38, 83]",301381832,Sr1Zn1Bi2
Sr2ZnAg,mp-1093771,0.0,-2.13298114,1.3214034953125005,"{38: 2, 30: 1, 47: 1}","[30, 38, 47]",301382471,Sr2Zn1Ag1
Sr2ZnCd,mp-1096564,0.4788000000000001,-2.11812707,1.3344666956250002,"{38: 2, 30: 1, 48: 1}","[30, 38, 48]",301382481,Sr2Zn1Cd1
Sr2ZnIn,mp-1187231,0.0,3.0139326,0.005388072812500422,"{38: 2, 30: 1, 49: 1}","[30, 38, 49]",301382491,Sr2Zn1In1
Sr2ZnSn,mp-1093830,0.0,-1.94522592,1.6528048183333333,"{38: 2, 30: 1, 50: 1}","[30, 38, 50]",301382501,Sr2Zn1Sn1
Sr2ZnSb2,mp-1218373,0.0,3.45953656,0.059636725818183134,"{38: 2, 30: 1, 51: 2}","[30, 38, 51]",301382512,Sr2Zn1Sb2
Sr2ZnPt,mp-1187101,0.0,2.87330918,0.10918116937500066,"{38: 2, 30: 1, 78: 1}","[30, 38, 78]",301382781,Sr2Zn1Pt1
Sr2ZnHg,mp-1187096,0.0,2.38663771,0.013512228125000192,"{38: 2, 30: 1, 80: 1}","[30, 38, 80]",301382801,Sr2Zn1Hg1
Sr2TlZn,mp-1187091,0.0,3.02441083,0.013191636249999306,"{38: 2, 81: 1, 30: 1}","[30, 38, 81]",301382811,Sr2Tl1Zn1
Sr2ZnPb,mp-1187098,0.05420000000000025,3.315928,0.020680136999999377,"{38: 2, 30: 1, 82: 1}","[30, 38, 82]",301382821,Sr2Zn1Pb1
Sr2ZnBi2,mp-1218415,0.0,2.9972395,0.10041188027810755,"{38: 2, 30: 1, 83: 2}","[30, 38, 83]",301382832,Sr2Zn1Bi2
Sr3Zn,mp-1187138,0.0,1.86601572,0.18605024729166608,"{38: 3, 30: 1}","[30, 38]",301383,Sr3Zn1
Sr5ZnCd4,mp-1218397,0.0,2.10422459,0.0024656122499981947,"{38: 5, 30: 1, 48: 4}","[30, 38, 48]",301385484,Sr5Zn1Cd4
Sr(ZnGe)2,mp-7363,0.0,4.31024474,0.0,"{38: 1, 30: 2, 32: 2}","[30, 32, 38]",302322381,Sr1Zn2Ge2
Sr(ZnAs)2,mp-7770,0.254,3.21587379,0.0,"{38: 1, 30: 2, 33: 2}","[30, 33, 38]",302332381,Sr1Zn2As2
Sr2Zn2As3,mp-1104042,0.14559999999999995,3.43856462,0.0012096478571410607,"{38: 2, 30: 2, 33: 3}","[30, 33, 38]",302333382,Sr2Zn2As3
SrZn2,mp-569426,0.0,2.3448849,0.0,"{38: 1, 30: 2}","[30, 38]",302381,Sr1Zn2
Sr(ZnSn)2,mp-1080049,0.0,4.95044123,0.0,"{38: 1, 30: 2, 50: 2}","[30, 38, 50]",302381502,Sr1Zn2Sn2
Sr(ZnSb)2,mp-7431,0.0,4.04763704,0.0,"{38: 1, 30: 2, 51: 2}","[30, 38, 51]",302381512,Sr1Zn2Sb2
BaSrZn2,mp-1097100,0.0,-1.78945382,1.4197702621875008,"{56: 1, 38: 1, 30: 2}","[30, 38, 56]",302381561,Ba1Sr1Zn2
SrLaZn2,mp-1095906,0.09179999999999988,-1.90393803,1.850250683333332,"{38: 1, 57: 1, 30: 2}","[30, 38, 57]",302381571,Sr1La1Zn2
SrAcZn2,mp-978929,0.0,3.91942761,0.0,"{38: 1, 89: 1, 30: 2}","[30, 38, 89]",302381891,Sr1Ac1Zn2
Sr2Zn3Cd,mp-1218414,0.0,2.24112772,0.010070965000001264,"{38: 2, 30: 3, 48: 1}","[30, 38, 48]",303382481,Sr2Zn3Cd1
Sr2(ZnAu2)3,mp-1190711,0.0,3.70240933,0.0,"{38: 2, 30: 3, 79: 6}","[30, 38, 79]",303382796,Sr2Zn3Au6
Sr4Zn51,mp-1218673,0.0,2.75707912,0.006455226136363734,"{38: 4, 30: 51}","[30, 38]",3051384,Sr4Zn51
SrZn5,mp-1435,0.0,2.4657132,0.0,"{38: 1, 30: 5}","[30, 38]",305381,Sr1Zn5
SrGaGe,mp-1102705,0.0,3.54402773,0.0,"{38: 1, 31: 1, 32: 1}","[31, 32, 38]",311321381,Sr1Ga1Ge1
Sr14GaAs11,mp-1219124,0.8724000000000003,2.69739342,0.0,"{38: 14, 31: 1, 33: 11}","[31, 33, 38]",31133113814,Sr14Ga1As11
Sr3GaAs3,mp-1194661,0.7012,3.24519259,0.0,"{38: 3, 31: 1, 33: 3}","[31, 33, 38]",311333383,Sr3Ga1As3
SrGa,mp-1199262,0.0,2.36670874,0.025159351267360464,"{38: 1, 31: 1}","[31, 38]",311381,Sr1Ga1
SrCdGa,mp-1218329,0.0,2.56693913,0.024987149166667333,"{38: 1, 48: 1, 31: 1}","[31, 38, 48]",311381481,Sr1Cd1Ga1
SrGaSn,mp-8914,0.0,4.30715784,0.0,"{38: 1, 31: 1, 50: 1}","[31, 38, 50]",311381501,Sr1Ga1Sn1
Sr2CdGa,mp-1187072,0.0,2.21348182,0.021435529305556145,"{38: 2, 48: 1, 31: 1}","[31, 38, 48]",311382481,Sr2Cd1Ga1
Sr2GaHg,mp-1187068,0.0,2.57161993,0.019191001805556773,"{38: 2, 31: 1, 80: 1}","[31, 38, 80]",311382801,Sr2Ga1Hg1
Sr2TlGa,mp-1093935,0.0,-2.30278122,1.6516722393055545,"{38: 2, 81: 1, 31: 1}","[31, 38, 81]",311382811,Sr2Tl1Ga1
Sr3GaSb3,mp-542625,0.3393999999999999,3.57389363,0.0,"{38: 3, 31: 1, 51: 3}","[31, 38, 51]",311383513,Sr3Ga1Sb3
Sr4GaSn3,mp-1218328,0.0,3.72295736,0.009047041093751318,"{38: 4, 31: 1, 50: 3}","[31, 38, 50]",311384503,Sr4Ga1Sn3
Sr(GaAs)2,mp-972120,0.15589999999999993,3.45953974,0.0,"{38: 1, 31: 2, 33: 2}","[31, 33, 38]",312332381,Sr1Ga2As2
Sr3(GaAs2)2,mp-1189054,0.6766999999999999,3.08756642,0.0,"{38: 3, 31: 2, 33: 4}","[31, 33, 38]",312334383,Sr3Ga2As4
Sr(GaSe2)2,mp-1104062,1.8012,1.5131905,0.0,"{38: 1, 31: 2, 34: 4}","[31, 34, 38]",312344381,Sr1Ga2Se4
SrGa2,mp-182,0.0,2.74428289,0.0,"{38: 1, 31: 2}","[31, 38]",312381,Sr1Ga2
Sr(GaRh)2,mp-1078231,0.0,3.59757059,0.0,"{38: 1, 31: 2, 45: 2}","[31, 38, 45]",312381452,Sr1Ga2Rh2
Sr(CdGa)2,mp-12783,0.0,2.7213223,0.0,"{38: 1, 48: 2, 31: 2}","[31, 38, 48]",312381482,Sr1Cd2Ga2
Sr(GaTe2)2,mp-6987,0.45189999999999975,3.14849283,0.0,"{38: 1, 31: 2, 52: 4}","[31, 38, 52]",312381524,Sr1Ga2Te4
Sr(GaAu)2,mp-12780,0.0,3.52640403,0.0,"{38: 1, 31: 2, 79: 2}","[31, 38, 79]",312381792,Sr1Ga2Au2
SrAcGa2,mp-1187170,0.0,3.976397,0.006889833125001132,"{38: 1, 89: 1, 31: 2}","[31, 38, 89]",312381891,Sr1Ac1Ga2
Sr3(Cd2Ga)2,mp-1218528,0.0,2.40634855,0.024998300555556074,"{38: 3, 48: 4, 31: 2}","[31, 38, 48]",312383484,Sr3Cd4Ga2
Sr3In3Ga2,mp-1218592,0.0,4.14670286,0.015615991718749722,"{38: 3, 49: 3, 31: 2}","[31, 38, 49]",312383493,Sr3In3Ga2
SrGa3Pd,mp-1080133,0.0,3.43547409,0.0,"{38: 1, 31: 3, 46: 1}","[31, 38, 46]",313381461,Sr1Ga3Pd1
Sr2(GaAu)3,mp-1209617,0.0,2.40021495,0.9737605328750014,"{38: 2, 31: 3, 79: 3}","[31, 38, 79]",313382793,Sr2Ga3Au3
Sr2(GaAu2)3,mp-1191197,0.0,4.20787829,0.0,"{38: 2, 31: 3, 79: 6}","[31, 38, 79]",313382796,Sr2Ga3Au6
SrGa4,mp-1827,0.0,3.54455883,0.0,"{38: 1, 31: 4}","[31, 38]",314381,Sr1Ga4
Sr11In3Ga4,mp-642418,0.0,2.69372268,0.0,"{38: 11, 49: 3, 31: 4}","[31, 38, 49]",3143811493,Sr11In3Ga4
Sr11Ga4Sn3,mp-567959,0.0,3.01457939,0.0005896624603174416,"{38: 11, 31: 4, 50: 3}","[31, 38, 50]",3143811503,Sr11Ga4Sn3
BaSrGa4,mp-1227665,0.0,2.59435627,0.0005568583333315225,"{56: 1, 38: 1, 31: 4}","[31, 38, 56]",314381561,Ba1Sr1Ga4
SrGa4Au3,mp-1208621,0.0,3.54743239,0.001540626874998452,"{38: 1, 31: 4, 79: 3}","[31, 38, 79]",314381793,Sr1Ga4Au3
Sr3(GaIr)4,mp-1095369,0.0,4.2181442,0.0,"{38: 3, 31: 4, 77: 4}","[31, 38, 77]",314383774,Sr3Ga4Ir4
SrLiY2(BO3)3,mp-1218231,4.1234,0.97905277,0.0,"{38: 1, 3: 1, 39: 2, 5: 3, 8: 9}","[3, 5, 8, 38, 39]",315389381392,Sr1Li1Y2B3O9
Sr4LiCu(CO5)2,mp-753353,1.0264000000000002,2.62229387,0.0,"{38: 4, 3: 1, 29: 1, 6: 2, 8: 10}","[3, 6, 8, 29, 38]",3162810291384,Sr4Li1Cu1C2O10
SrLiCuN,mp-1209607,0.0,3.60750391,0.6115199231249999,"{38: 1, 3: 1, 29: 1, 7: 1}","[3, 7, 29, 38]",3171291381,Sr1Li1Cu1N1
Sr2LiFe2N3,mp-8923,0.0,3.90460045,0.0,"{38: 2, 3: 1, 26: 2, 7: 3}","[3, 7, 26, 38]",3173262382,Sr2Li1Fe2N3
Sr8Ga7,mp-30667,0.0,2.26021951,0.0,"{38: 8, 31: 7}","[31, 38]",317388,Sr8Ga7
Sr2LiPr2Fe2(RuO6)2,mp-1235879,0.0,4.5415505,0.10170518609943713,"{38: 2, 3: 1, 59: 2, 26: 2, 44: 2, 8: 12}","[3, 8, 26, 38, 44, 59]",31812262382442592,Sr2Li1Pr2Fe2Ru2O12
Sr4LiY2(RuO6)2,mp-1235258,0.0,3.71626245,0.07948776041665973,"{38: 4, 3: 1, 39: 2, 44: 2, 8: 12}","[3, 8, 38, 39, 44]",31812384392442,Sr4Li1Y2Ru2O12
SrLiLa7Fe3O16,mp-756619,0.0,7.54551879,0.07496565410714062,"{38: 1, 3: 1, 57: 7, 26: 3, 8: 16}","[3, 8, 26, 38, 57]",31816263381577,Sr1Li1La7Fe3O16
Sr2LiCuBrO2,mp-1235294,0.0,3.3615276,0.4200320794047627,"{38: 2, 3: 1, 29: 1, 35: 1, 8: 2}","[3, 8, 29, 35, 38]",3182291351382,Sr2Li1Cu1Br1O2
Sr2LiFeO3F,mp-1235959,1.0076,2.82684653,0.11227396560416825,"{38: 2, 3: 1, 26: 1, 8: 3, 9: 1}","[3, 8, 9, 26, 38]",318391261382,Sr2Li1Fe1O3F1
Sr4LiMn2Cu3(SO)4,mp-1235184,0.0,6.05392948,0.0847033981597205,"{38: 4, 3: 1, 25: 2, 29: 3, 16: 4, 8: 4}","[3, 8, 16, 25, 29, 38]",3184164252293384,Sr4Li1Mn2Cu3S4O4
BaSrLiNdTlCu2O7,mp-1235732,0.0,4.18213036,0.09437847583828773,"{56: 1, 38: 1, 3: 1, 60: 1, 81: 1, 29: 2, 8: 7}","[3, 8, 29, 38, 56, 60, 81]",3187292381561601811,Ba1Sr1Li1Nd1Tl1Cu2O7
SrLiLa3FeO8,mp-766044,0.7097999999999995,5.27265487,0.011453054732145418,"{38: 1, 3: 1, 57: 3, 26: 1, 8: 8}","[3, 8, 26, 38, 57]",3188261381573,Sr1Li1La3Fe1O8
SrLiFeF6,mp-559277,4.1239,-2.05314493,0.0,"{38: 1, 3: 1, 26: 1, 9: 6}","[3, 9, 26, 38]",3196261381,Sr1Li1Fe1F6
Sr2Eu3Ge10,mp-1218845,0.0,3.42284877,0.003431046333332688,"{38: 2, 63: 3, 32: 10}","[32, 38, 63]",3210382633,Sr2Eu3Ge10
Sr4GeAs4,mp-1201546,0.8140000000000001,2.62143097,0.0,"{38: 4, 32: 1, 33: 4}","[32, 33, 38]",321334384,Sr4Ge1As4
Sr2GeSe4,mp-30293,1.7283000000000002,1.43666982,0.0,"{38: 2, 32: 1, 34: 4}","[32, 34, 38]",321344382,Sr2Ge1Se4
SrGe,mp-2147,0.0,3.72662909,0.0,"{38: 1, 32: 1}","[32, 38]",321381,Sr1Ge1
SrAgGe,mp-1218537,0.0,2.80462293,0.017854054428568134,"{38: 1, 47: 1, 32: 1}","[32, 38, 47]",321381471,Sr1Ag1Ge1
SrCdGe,mp-1101809,0.0,3.54826884,0.0,"{38: 1, 48: 1, 32: 1}","[32, 38, 48]",321381481,Sr1Cd1Ge1
SrGePt,mp-21164,0.0,4.62535485,0.0,"{38: 1, 32: 1, 78: 1}","[32, 38, 78]",321381781,Sr1Ge1Pt1
SrGeAu3,mp-1078860,0.0,4.17027615,0.0,"{38: 1, 32: 1, 79: 3}","[32, 38, 79]",321381793,Sr1Ge1Au3
Sr2Ge,mp-2576,0.36339999999999995,2.6666555,0.0,"{38: 2, 32: 1}","[32, 38]",321382,Sr2Ge1
Sr2CdGe,mp-1096602,0.0,-2.02011471,1.5912104559375015,"{38: 2, 48: 1, 32: 1}","[32, 38, 48]",321382481,Sr2Cd1Ge1
Sr2HgGe,mp-1187086,0.045399999999999885,3.12281921,0.014731738750000112,"{38: 2, 80: 1, 32: 1}","[32, 38, 80]",321382801,Sr2Hg1Ge1
Sr3(GeAs2)2,mp-17504,0.7808999999999999,2.75954117,0.0,"{38: 3, 32: 2, 33: 4}","[32, 33, 38]",322334383,Sr3Ge2As4
Sr2Ge2Se5,mp-18112,1.1029,2.07719729,0.0,"{38: 2, 32: 2, 34: 5}","[32, 34, 38]",322345382,Sr2Ge2Se5
SrGe2,mp-7390,0.0,4.59779982,0.0,"{38: 1, 32: 2}","[32, 38]",322381,Sr1Ge2
Sr(GeRu)2,mp-19787,0.0,5.5015357,0.0,"{38: 1, 32: 2, 44: 2}","[32, 38, 44]",322381442,Sr1Ge2Ru2
Sr(GeRh)2,mp-10697,0.0,5.3939775,0.0,"{38: 1, 32: 2, 45: 2}","[32, 38, 45]",322381452,Sr1Ge2Rh2
Sr(GePd)2,mp-978986,0.0,4.67113494,0.0,"{38: 1, 32: 2, 46: 2}","[32, 38, 46]",322381462,Sr1Ge2Pd2
Sr(AgGe)2,mp-7879,0.0,4.02004951,0.0,"{38: 1, 47: 2, 32: 2}","[32, 38, 47]",322381472,Sr1Ag2Ge2
Sr(CdGe)2,mp-7881,0.0,3.84465705,0.0003735560000008853,"{38: 1, 48: 2, 32: 2}","[32, 38, 48]",322381482,Sr1Cd2Ge2
Sr(GeIr)2,mp-978853,0.0,6.50310872,0.0,"{38: 1, 32: 2, 77: 2}","[32, 38, 77]",322381772,Sr1Ge2Ir2
Sr(GeAu)2,mp-13918,0.0,4.80519933,0.0,"{38: 1, 32: 2, 79: 2}","[32, 38, 79]",322381792,Sr1Ge2Au2
Sr2Ge2Pb,mp-1068167,0.0,4.23022665,0.0,"{38: 2, 32: 2, 82: 1}","[32, 38, 82]",322382821,Sr2Ge2Pb1
SrGe3,mp-1105296,0.0,4.93628384,0.08935251937499977,"{38: 1, 32: 3}","[32, 38]",323381,Sr1Ge3
SrGe3Pd,mp-978987,0.0,5.56523319,0.0,"{38: 1, 32: 3, 46: 1}","[32, 38, 46]",323381461,Sr1Ge3Pd1
SrGe3Ir,mp-1068235,0.0,5.88870274,0.0,"{38: 1, 32: 3, 77: 1}","[32, 38, 77]",323381771,Sr1Ge3Ir1
SrGe3Pt,mp-1068239,0.0,5.91939142,0.0,"{38: 1, 32: 3, 78: 1}","[32, 38, 78]",323381781,Sr1Ge3Pt1
Sr5Ge3,mp-17757,0.0,2.84394036,0.0052823724999999655,"{38: 5, 32: 3}","[32, 38]",323385,Sr5Ge3
BaSrLi2,mp-1097264,0.3457000000000001,-2.17954611,1.2221261304166668,"{56: 1, 38: 1, 3: 2}","[3, 38, 56]",32381561,Ba1Sr1Li2
Sr7Ge6,mp-1198122,0.0,3.08301896,0.014508441730768595,"{38: 7, 32: 6}","[32, 38]",326387,Sr7Ge6
Sr14(SnAs4)3,mp-1192393,0.9128000000000003,3.09861806,0.0,"{38: 14, 50: 3, 33: 12}","[33, 38, 50]",33123814503,Sr14Sn3As12
SrAs,mp-1049,0.018100000000000005,2.72584486,0.0,"{38: 1, 33: 1}","[33, 38]",331381,Sr1As1
SrAsPd,mp-9743,0.0,3.99043986,0.0,"{38: 1, 33: 1, 46: 1}","[33, 38, 46]",331381461,Sr1As1Pd1
SrAgAs,mp-6954,0.0,3.72209109,0.0,"{38: 1, 47: 1, 33: 1}","[33, 38, 47]",331381471,Sr1Ag1As1
SrAsPt,mp-8456,0.0,4.63533774,0.0,"{38: 1, 33: 1, 78: 1}","[33, 38, 78]",331381781,Sr1As1Pt1
SrAsAu,mp-1206525,0.0,4.13921348,0.0,"{38: 1, 33: 1, 79: 1}","[33, 38, 79]",331381791,Sr1As1Au1
Sr2As,mp-15697,0.0,3.3437675,0.08000544425926037,"{38: 2, 33: 1}","[33, 38]",331382,Sr2As1
Sr2AsAu,mp-863258,0.5007999999999999,3.48742575,0.006150627895831207,"{38: 2, 33: 1, 79: 1}","[33, 38, 79]",331382791,Sr2As1Au1
Sr3As,mp-971740,0.0,3.30397242,0.3788895340277776,"{38: 3, 33: 1}","[33, 38]",331383,Sr3As1
Sr3SbAs,mp-1013561,0.12799999999999967,2.39267191,0.18153413675000163,"{38: 3, 51: 1, 33: 1}","[33, 38, 51]",331383511,Sr3Sb1As1
Sr3BiAs,mp-1013564,0.0,2.31538417,0.11560977658333282,"{38: 3, 83: 1, 33: 1}","[33, 38, 83]",331383831,Sr3Bi1As1
Sr5Sb2As,mp-1208629,0.0,3.68610517,0.030607196770833678,"{38: 5, 51: 2, 33: 1}","[33, 38, 51]",331385512,Sr5Sb2As1
Sr6As19Rh30,mp-1218700,0.0,6.56011843,0.0,"{38: 6, 33: 19, 45: 30}","[33, 38, 45]",33193864530,Sr6As19Rh30
Sr(AsRu)2,mp-4404,0.0,5.55440292,0.0,"{38: 1, 33: 2, 44: 2}","[33, 38, 44]",332381442,Sr1As2Ru2
Sr(AsRh)2,mp-569006,0.0,5.41666921,0.0,"{38: 1, 33: 2, 45: 2}","[33, 38, 45]",332381452,Sr1As2Rh2
Sr(AsPd)2,mp-4370,0.0,5.07791555,0.0,"{38: 1, 33: 2, 46: 2}","[33, 38, 46]",332381462,Sr1As2Pd2
Sr(CdAs)2,mp-7771,0.1347999999999998,2.79757789,0.0,"{38: 1, 48: 2, 33: 2}","[33, 38, 48]",332381482,Sr1Cd2As2
Sr(InAs)2,mp-1205860,0.4455999999999998,4.69029578,0.0,"{38: 1, 49: 2, 33: 2}","[33, 38, 49]",332381492,Sr1In2As2
Sr(SnAs)2,mp-9379,0.009100000000000108,5.37592517,0.0,"{38: 1, 50: 2, 33: 2}","[33, 38, 50]",332381502,Sr1Sn2As2
Sr(AsPt)2,mp-571534,0.0,5.57105319,0.026748101500000843,"{38: 1, 33: 2, 78: 2}","[33, 38, 78]",332381782,Sr1As2Pt2
Sr2CdAs2,mp-863261,0.5223,2.57056619,0.0,"{38: 2, 48: 1, 33: 2}","[33, 38, 48]",332382481,Sr2Cd1As2
Sr3As2,mp-1013559,0.0,1.74405363,0.37062876908333386,"{38: 3, 33: 2}","[33, 38]",332383,Sr3As2
SrAs3,mp-9907,0.0,4.1625402,0.0,"{38: 1, 33: 3}","[33, 38]",333381,Sr1As3
Sr2(AsIr)3,mp-1206100,0.0,-1.9642153,2.3716853921093772,"{38: 2, 33: 3, 77: 3}","[33, 38, 77]",333382773,Sr2As3Ir3
Sr4As3,mp-29424,0.5853000000000002,2.64662064,0.0,"{38: 4, 33: 3}","[33, 38]",333384,Sr4As3
Sr5As3,mp-15698,0.0,3.22082414,0.0,"{38: 5, 33: 3}","[33, 38]",333385,Sr5As3
Sr(As2Rh3)2,mp-16045,0.0,6.77226976,0.014962500000009982,"{38: 1, 33: 4, 45: 6}","[33, 38, 45]",334381456,Sr1As4Rh6
Sr3As4,mp-15339,0.6166999999999998,2.90668447,0.0,"{38: 3, 33: 4}","[33, 38]",334383,Sr3As4
Sr3(SnAs2)2,mp-1195093,0.7529999999999997,4.19851574,0.0,"{38: 3, 50: 2, 33: 4}","[33, 38, 50]",334383502,Sr3Sn2As4
Sr(As3Pt2)2,mp-14500,0.12870000000000026,5.33017338,0.0,"{38: 1, 33: 6, 78: 4}","[33, 38, 78]",336381784,Sr1As6Pt4
Sr5(SnAs3)2,mp-1194401,0.09370000000000012,3.49029645,0.0,"{38: 5, 50: 2, 33: 6}","[33, 38, 50]",336385502,Sr5Sn2As6
Sr3Li3Cu3(PO4)4,mp-780775,1.3984999999999999,5.05679976,0.10384970797414184,"{38: 3, 3: 3, 29: 3, 15: 4, 8: 16}","[3, 8, 15, 29, 38]",33816154293383,Sr3Li3Cu3P4O16
Sr(La2Se3)4,mp-34412,0.0,7.52125361,0.003889758452388037,"{38: 1, 57: 8, 34: 12}","[34, 38, 57]",3412381578,Sr1La8Se12
BaSr3(ZrSe3)4,mp-1227715,0.22739999999999982,3.17296652,0.021282827124991854,"{56: 1, 38: 3, 40: 4, 34: 12}","[34, 38, 40, 56]",3412383404561,Ba1Sr3Zr4Se12
Sr4Bi6Se13,mp-28397,0.48870000000000013,3.27027129,0.005333203695660593,"{38: 4, 83: 6, 34: 13}","[34, 38, 83]",3413384836,Sr4Bi6Se13
SrSe,mp-2758,2.2313,1.61825875,0.0,"{38: 1, 34: 1}","[34, 38]",341381,Sr1Se1
SrEuSe2,mp-1218279,0.0,3.47617126,0.015998714999998498,"{38: 1, 63: 1, 34: 2}","[34, 38, 63]",342381631,Sr1Eu1Se2
SrZrSe3,mp-541570,0.16690000000000005,3.36308776,0.027114558500016983,"{38: 1, 40: 1, 34: 3}","[34, 38, 40]",343381401,Sr1Zr1Se3
SrSbSe3,mp-1204655,0.35809999999999986,3.79254971,0.0,"{38: 1, 51: 1, 34: 3}","[34, 38, 51]",343381511,Sr1Sb1Se3
SrBiSe3,mp-28476,0.4969000000000001,3.1746996,0.0,"{38: 1, 83: 1, 34: 3}","[34, 38, 83]",343381831,Sr1Bi1Se3
Sr(YSe2)2,mp-1193100,1.4587000000000003,3.88204931,0.0,"{38: 1, 39: 2, 34: 4}","[34, 38, 39]",344381392,Sr1Y2Se4
Sr(InSe2)2,mp-21733,1.5636999999999999,2.31035127,0.0,"{38: 1, 49: 2, 34: 4}","[34, 38, 49]",344381492,Sr1In2Se4
Sr(LaSe2)2,mp-33569,1.6753,4.79715652,0.0,"{38: 1, 57: 2, 34: 4}","[34, 38, 57]",344381572,Sr1La2Se4
Sr(CeSe2)2,mp-36819,0.0,5.77766047,0.0,"{38: 1, 58: 2, 34: 4}","[34, 38, 58]",344381582,Sr1Ce2Se4
Sr(PrSe2)2,mp-37859,1.7496999999999998,3.30084605,0.0,"{38: 1, 59: 2, 34: 4}","[34, 38, 59]",344381592,Sr1Pr2Se4
Sr(NdSe2)2,mp-39033,1.7524000000000002,3.2562593,0.0,"{38: 1, 60: 2, 34: 4}","[34, 38, 60]",344381602,Sr1Nd2Se4
Sr(SmSe2)2,mp-38152,1.7782999999999998,3.35171462,0.01888267857143333,"{38: 1, 62: 2, 34: 4}","[34, 38, 62]",344381622,Sr1Sm2Se4
Sr(GdSe2)2,mp-34770,0.7486000000000002,3.26304108,0.024302664642856797,"{38: 1, 64: 2, 34: 4}","[34, 38, 64]",344381642,Sr1Gd2Se4
Sr(TbSe2)2,mp-1193917,1.4432,3.85433512,0.0,"{38: 1, 65: 2, 34: 4}","[34, 38, 65]",344381652,Sr1Tb2Se4
Sr(DySe2)2,mp-862729,1.3579000000000003,2.49521457,0.0,"{38: 1, 66: 2, 34: 4}","[34, 38, 66]",344381662,Sr1Dy2Se4
Sr(ErSe2)2,mp-1193520,1.4083,2.47780934,0.0,"{38: 1, 68: 2, 34: 4}","[34, 38, 68]",344381682,Sr1Er2Se4
Sr(LuSe2)2,mp-1194337,1.431,2.51685396,0.0,"{38: 1, 71: 2, 34: 4}","[34, 38, 71]",344381712,Sr1Lu2Se4
SrEu4Se5,mp-1218290,0.0,3.49642828,0.018932753000001412,"{38: 1, 63: 4, 34: 5}","[34, 38, 63]",345381634,Sr1Eu4Se5
SrTh2Se5,mp-17282,1.4103000000000003,4.1554801,0.0,"{38: 1, 90: 2, 34: 5}","[34, 38, 90]",345381902,Sr1Th2Se5
SrU2Se5,mp-1201358,0.0,5.73374765,0.1477400932500288,"{38: 1, 92: 2, 34: 5}","[34, 38, 92]",345381922,Sr1U2Se5
Sr2SnSe5,mp-568525,0.9079999999999999,2.77117961,0.0,"{38: 2, 50: 1, 34: 5}","[34, 38, 50]",345382501,Sr2Sn1Se5
Sr4Li4Nb5FeO20,mp-772076,1.2550000000000001,1.99172519,0.02334575161762764,"{38: 4, 3: 4, 41: 5, 26: 1, 8: 20}","[3, 8, 26, 38, 41]",34820261384415,Sr4Li4Nb5Fe1O20
SrNb5Se8,mp-1104955,0.0,5.29563286,0.09628433776784817,"{38: 1, 41: 5, 34: 8}","[34, 38, 41]",348381415,Sr1Nb5Se8
Ba2Sr(ZrSe3)3,mp-1228764,0.3380000000000001,3.17475751,0.01090030233333028,"{56: 2, 38: 1, 40: 3, 34: 9}","[34, 38, 40, 56]",349381403562,Ba2Sr1Zr3Se9
Cs4Sr(SnSe3)3,mp-1181839,1.6162,1.19334266,0.0,"{55: 4, 38: 1, 50: 3, 34: 9}","[34, 38, 50, 55]",349381503554,Cs4Sr1Sn3Se9
Sr4Sn2Se9,mp-570983,0.7298,2.85223859,0.006121704333335032,"{38: 4, 50: 2, 34: 9}","[34, 38, 50]",349384502,Sr4Sn2Se9
SrIBr,mp-1218278,3.9499,4.70188579,0.03883379266666731,"{38: 1, 53: 1, 35: 1}","[35, 38, 53]",351381531,Sr1I1Br1
SrBr2,mp-32711,4.299799999999999,0.01847747,0.0,"{38: 1, 35: 2}","[35, 38]",352381,Sr1Br2