formula,material_id,band_gap,efermi,energy_above_hull,comp_atoms,sorted_keys_comp_atoms,comp_number,new_formula
Sr2YI7,mp-771830,2.9672,1.47606776,0.06486886949999882,"{38: 2, 39: 1, 53: 7}","[38, 39, 53]",382391537,Sr2Y1I7
Sr2Rh,mp-1063245,0.0,2.36119124,0.043910936666666345,"{38: 2, 45: 1}","[38, 45]",382451,Sr2Rh1
Sr2In3Rh2,mp-31294,0.0,5.62078577,0.0,"{38: 2, 49: 3, 45: 2}","[38, 45, 49]",382452493,Sr2In3Rh2
Sr2Pd,mp-1102131,0.0,2.68047502,0.0,"{38: 2, 46: 1}","[38, 46]",382461,Sr2Pd1
Sr2AgPd,mp-1093561,0.0,-2.07162878,1.3259857623124989,"{38: 2, 47: 1, 46: 1}","[38, 46, 47]",382461471,Sr2Ag1Pd1
Sr2PdPt,mp-1187097,0.0,3.40010177,0.056612417499999346,"{38: 2, 46: 1, 78: 1}","[38, 46, 78]",382461781,Sr2Pd1Pt1
Sr2PdAu,mp-1187095,0.0,3.0407403,0.041464634624998276,"{38: 2, 46: 1, 79: 1}","[38, 46, 79]",382461791,Sr2Pd1Au1
Sr2InPd2,mp-20843,0.0,4.03244133,0.0,"{38: 2, 49: 1, 46: 2}","[38, 46, 49]",382462491,Sr2In1Pd2
Sr2(SbPd)3,mp-1206196,0.0,4.2433688,1.2029629275312494,"{38: 2, 51: 3, 46: 3}","[38, 46, 51]",382463513,Sr2Sb3Pd3
Sr2(BiPd)3,mp-1207133,0.0,-2.08533871,1.7973099527840892,"{38: 2, 83: 3, 46: 3}","[38, 46, 83]",382463833,Sr2Bi3Pd3
Sr2CdAg,mp-1096465,0.0,-2.16641027,1.2879371723124993,"{38: 2, 48: 1, 47: 1}","[38, 47, 48]",382471481,Sr2Cd1Ag1
Sr2AgSn,mp-1097189,0.0,-2.1896669,1.5459907471875027,"{38: 2, 47: 1, 50: 1}","[38, 47, 50]",382471501,Sr2Ag1Sn1
Sr2AgSb,mp-1095891,0.3261000000000003,-2.5403754,1.4754916481944442,"{38: 2, 47: 1, 51: 1}","[38, 47, 51]",382471511,Sr2Ag1Sb1
Sr2AgPt,mp-867163,0.0,3.0250189,0.06673884124999674,"{38: 2, 47: 1, 78: 1}","[38, 47, 78]",382471781,Sr2Ag1Pt1
Sr2AgHg,mp-1095988,0.0,-2.12066781,1.2653661248125,"{38: 2, 47: 1, 80: 1}","[38, 47, 80]",382471801,Sr2Ag1Hg1
Sr2AgPb,mp-1093664,0.0,-2.26864982,1.474099265625,"{38: 2, 47: 1, 82: 1}","[38, 47, 82]",382471821,Sr2Ag1Pb1
Sr2AgBi,mp-1097475,0.23309999999999986,-2.52075046,1.4550518279861082,"{38: 2, 47: 1, 83: 1}","[38, 47, 83]",382471831,Sr2Ag1Bi1
Sr2CdIn,mp-862720,0.0,3.06104127,0.0,"{38: 2, 48: 1, 49: 1}","[38, 48, 49]",382481491,Sr2Cd1In1
Sr2CdSn,mp-867149,0.0,3.57185499,0.0,"{38: 2, 48: 1, 50: 1}","[38, 48, 50]",382481501,Sr2Cd1Sn1
Sr2CdPt2,mp-1068157,0.0,3.83795248,0.0,"{38: 2, 48: 1, 78: 2}","[38, 48, 78]",382481782,Sr2Cd1Pt2
Sr2CdAu3,mp-1218850,0.0,3.58428638,0.012487361666664754,"{38: 2, 48: 1, 79: 3}","[38, 48, 79]",382481793,Sr2Cd1Au3
Sr2CdHg,mp-1187079,0.0,2.41514864,0.008867520000000795,"{38: 2, 48: 1, 80: 1}","[38, 48, 80]",382481801,Sr2Cd1Hg1
Sr2TlCd,mp-862740,0.0,3.08457219,0.0,"{38: 2, 81: 1, 48: 1}","[38, 48, 81]",382481811,Sr2Tl1Cd1
Sr2CdPb,mp-862721,0.0,3.37784559,0.0,"{38: 2, 48: 1, 82: 1}","[38, 48, 82]",382481821,Sr2Cd1Pb1
Sr2InI5,mp-23504,2.7625000000000006,2.0595255,0.04593545874999716,"{38: 2, 49: 1, 53: 5}","[38, 49, 53]",382491535,Sr2In1I5
Sr2InPt2,mp-20393,0.0,4.75485313,0.0,"{38: 2, 49: 1, 78: 2}","[38, 49, 78]",382491782,Sr2In1Pt2
Sr2InHg,mp-1187240,0.0,3.33547255,0.0,"{38: 2, 49: 1, 80: 1}","[38, 49, 80]",382491801,Sr2In1Hg1
Sr2TlIn,mp-1187125,0.0,3.96780577,0.0032780196874990786,"{38: 2, 81: 1, 49: 1}","[38, 49, 81]",382491811,Sr2Tl1In1
Sr2InPb,mp-1095866,0.0,-2.28599942,1.6839788762500005,"{38: 2, 49: 1, 82: 1}","[38, 49, 82]",382491821,Sr2In1Pb1
Sr2In4Pt3,mp-21718,0.0,5.89228177,0.0,"{38: 2, 49: 4, 78: 3}","[38, 49, 78]",382494783,Sr2In4Pt3
Sr2In4Au3,mp-1209343,0.0,5.34512536,0.0,"{38: 2, 49: 4, 79: 3}","[38, 49, 79]",382494793,Sr2In4Au3
Sr2Sn,mp-978,0.15239999999999965,3.29581967,0.0,"{38: 2, 50: 1}","[38, 50]",382501,Sr2Sn1
Sr2SnHg,mp-867169,0.27170000000000005,3.5582631,0.0,"{38: 2, 50: 1, 80: 1}","[38, 50, 80]",382501801,Sr2Sn1Hg1
Sr2Sb,mp-15624,0.0,3.72770773,0.02989218611111344,"{38: 2, 51: 1}","[38, 51]",382511,Sr2Sb1
Sr2SbAu,mp-863251,0.6225000000000005,3.87271745,0.0,"{38: 2, 51: 1, 79: 1}","[38, 51, 79]",382511791,Sr2Sb1Au1
Sr2HgSb,mp-1097227,0.0,-2.20884314,1.4116659233333344,"{38: 2, 80: 1, 51: 1}","[38, 51, 80]",382511801,Sr2Hg1Sb1
Sr2Sb3,mp-16897,0.13230000000000075,4.71450855,0.0,"{38: 2, 51: 3}","[38, 51]",382513,Sr2Sb3
Sr2(SbPt)3,mp-1206150,0.0,-1.6407103,1.9079733618750017,"{38: 2, 51: 3, 78: 3}","[38, 51, 78]",382513783,Sr2Sb3Pt3
CsSr2I5,mp-1213276,3.6758,1.33555103,0.013109842499995583,"{55: 1, 38: 2, 53: 5}","[38, 53, 55]",382535551,Cs1Sr2I5
Sr2TlI5,mp-1208794,3.3255,5.15480457,0.012783783749997113,"{38: 2, 81: 1, 53: 5}","[38, 53, 81]",382535811,Sr2Tl1I5
BaSr2I6,mp-1178516,3.883,0.66921356,0.010195649166666598,"{56: 1, 38: 2, 53: 6}","[38, 53, 56]",382536561,Ba1Sr2I6
Sr2LaI7,mp-772032,2.7846,1.54158988,0.07671910199999843,"{38: 2, 57: 1, 53: 7}","[38, 53, 57]",382537571,Sr2La1I7
BaSr2Eu,mp-1183392,0.0,1.6816603,0.04510708874999869,"{56: 1, 38: 2, 63: 1}","[38, 56, 63]",382561631,Ba1Sr2Eu1
BaSr2Np,mp-1227824,0.0,2.94519142,0.663187100312499,"{56: 1, 38: 2, 93: 1}","[38, 56, 93]",382561931,Ba1Sr2Np1
Sr2Ir,mp-1062620,0.0,2.83759502,0.06671562249999496,"{38: 2, 77: 1}","[38, 77]",382771,Sr2Ir1
Sr2PtAu,mp-1218708,0.0,3.19983165,0.0,"{38: 2, 78: 1, 79: 1}","[38, 78, 79]",382781791,Sr2Pt1Au1
Sr2BiAu,mp-867193,0.39360000000000017,3.70494695,0.0,"{38: 2, 83: 1, 79: 1}","[38, 79, 83]",382791831,Sr2Bi1Au1
Sr2TlHg,mp-1187099,0.0,3.37002345,0.0,"{38: 2, 81: 1, 80: 1}","[38, 80, 81]",382801811,Sr2Tl1Hg1
Sr2HgPb,mp-867207,0.12049999999999983,3.40290439,0.0,"{38: 2, 80: 1, 82: 1}","[38, 80, 82]",382801821,Sr2Hg1Pb1
Sr2HgBi,mp-1096362,0.0,-2.25404861,1.385400635520831,"{38: 2, 80: 1, 83: 1}","[38, 80, 83]",382801831,Sr2Hg1Bi1
Sr2TlPb,mp-1187124,0.0,4.18603729,0.017313429999994412,"{38: 2, 81: 1, 82: 1}","[38, 81, 82]",382811821,Sr2Tl1Pb1
Sr2Pb,mp-30828,0.0,3.23548948,0.0,"{38: 2, 82: 1}","[38, 82]",382821,Sr2Pb1
Sr2Pb3,mp-669913,0.0,4.46851633,0.00764726599999932,"{38: 2, 82: 3}","[38, 82]",382823,Sr2Pb3
Sr2Bi,mp-29619,0.0,3.37124794,0.025634754166659057,"{38: 2, 83: 1}","[38, 83]",382831,Sr2Bi1
Sr2Bi3,mp-31150,0.0,4.03401331,0.0,"{38: 2, 83: 3}","[38, 83]",382833,Sr2Bi3
Sr28In11,mp-705522,0.0,2.72490508,0.0,"{38: 28, 49: 11}","[38, 49]",38284911,Sr28In11
Sr3YI9,mp-771936,2.2099,2.26416825,0.06432953692307608,"{38: 3, 39: 1, 53: 9}","[38, 39, 53]",383391539,Sr3Y1I9
Sr3Zr,mp-1187148,0.0,2.07004514,0.500507755000001,"{38: 3, 40: 1}","[38, 40]",383401,Sr3Zr1
Sr3Nb,mp-1187120,0.0,2.32848732,0.734067979999999,"{38: 3, 41: 1}","[38, 41]",383411,Sr3Nb1
Sr3Mo,mp-1187122,0.0,2.73226012,0.8397175324999999,"{38: 3, 42: 1}","[38, 42]",383421,Sr3Mo1
Sr3Sn13Rh4,mp-30517,0.0,7.17648681,0.0,"{38: 3, 50: 13, 45: 4}","[38, 45, 50]",3834545013,Sr3Sn13Rh4
Sr3Rh4Pb13,mp-680654,0.0,6.48092294,0.0,"{38: 3, 45: 4, 82: 13}","[38, 45, 82]",3834548213,Sr3Rh4Pb13
Sr3Ag,mp-1187102,0.0,2.11683024,0.20082364305555345,"{38: 3, 47: 1}","[38, 47]",383471,Sr3Ag1
Sr3Ag2,mp-30357,0.0,2.23840584,0.003260875199998736,"{38: 3, 47: 2}","[38, 47]",383472,Sr3Ag2
BaSr3Ag4,mp-1227658,0.0,2.38190188,0.007500831906248617,"{56: 1, 38: 3, 47: 4}","[38, 47, 56]",383474561,Ba1Sr3Ag4
Sr3In,mp-31349,0.0,2.90255901,0.1316895325000007,"{38: 3, 49: 1}","[38, 49]",383491,Sr3In1
Sr3In11,mp-567822,0.0,5.91330939,0.0,"{38: 3, 49: 11}","[38, 49]",3834911,Sr3In11
Sr3In4Pb,mp-605735,0.0,5.09590402,0.013740903124999537,"{38: 3, 49: 4, 82: 1}","[38, 49, 82]",383494821,Sr3In4Pb1
Sr3Sn,mp-1187136,0.0,3.05318934,0.11112304583333454,"{38: 3, 50: 1}","[38, 50]",383501,Sr3Sn1
Sr3Sn13Ir4,mp-1196422,0.0,7.52991374,0.0,"{38: 3, 50: 13, 77: 4}","[38, 50, 77]",3835013774,Sr3Sn13Ir4
Sr3Sn3Au8,mp-1194481,0.0,4.98966694,0.0,"{38: 3, 50: 3, 79: 8}","[38, 50, 79]",383503798,Sr3Sn3Au8
Sr3(SnIr)4,mp-22418,0.0,6.02741616,0.0,"{38: 3, 50: 4, 77: 4}","[38, 50, 77]",383504774,Sr3Sn4Ir4
Sr3Sn4Bi,mp-1208727,0.0,4.75580216,0.0,"{38: 3, 50: 4, 83: 1}","[38, 50, 83]",383504831,Sr3Sn4Bi1
Sr3Sn5,mp-18192,0.0,5.32002991,0.0,"{38: 3, 50: 5}","[38, 50]",383505,Sr3Sn5
Sr3SbI3,mp-1208807,1.5242,2.58133282,0.0,"{38: 3, 51: 1, 53: 3}","[38, 51, 53]",383511533,Sr3Sb1I3
Sr3BiSb,mp-1013585,0.0,2.28280217,0.31015075700000017,"{38: 3, 83: 1, 51: 1}","[38, 51, 83]",383511831,Sr3Bi1Sb1
Sr3Sb2,mp-1013583,0.0,2.31637411,0.3777422554117651,"{38: 3, 51: 2}","[38, 51]",383512,Sr3Sb2
BaSr3I8,mp-754736,3.1392,1.6108636,0.03556949458333003,"{56: 1, 38: 3, 53: 8}","[38, 53, 56]",383538561,Ba1Sr3I8
Sr3LaI9,mp-772074,1.9705999999999997,2.39884736,0.0332333349999967,"{38: 3, 57: 1, 53: 9}","[38, 53, 57]",383539571,Sr3La1I9
CsSr3,mp-1184035,0.0,1.45870516,0.16555663801724307,"{55: 1, 38: 3}","[38, 55]",383551,Cs1Sr3
BaSr3,mp-1183335,0.0,1.67026591,0.01226519000000037,"{56: 1, 38: 3}","[38, 56]",383561,Ba1Sr3
Ba3Sr3Np2,mp-1228565,0.0,3.13554244,0.667129119062499,"{56: 3, 38: 3, 93: 2}","[38, 56, 93]",383563932,Ba3Sr3Np2
Sr3La,mp-1187127,0.0,2.88697184,0.14937435625000006,"{38: 3, 57: 1}","[38, 57]",383571,Sr3La1
Sr3Ce,mp-1187237,0.0,2.73332327,0.2799038112500014,"{38: 3, 58: 1}","[38, 58]",383581,Sr3Ce1
Sr3Nd,mp-1187132,0.0,1.99492233,0.1641792443749992,"{38: 3, 60: 1}","[38, 60]",383601,Sr3Nd1
Sr3Pm,mp-1187161,0.0,1.97296893,0.17745595437500228,"{38: 3, 61: 1}","[38, 61]",383611,Sr3Pm1
Sr3Sm,mp-1187166,0.0,1.98729943,0.1826702900000008,"{38: 3, 62: 1}","[38, 62]",383621,Sr3Sm1
Sr3Eu,mp-1187298,0.0,1.61901813,0.037141222499997184,"{38: 3, 63: 1}","[38, 63]",383631,Sr3Eu1
Sr3Tb,mp-1187160,0.0,2.01110079,0.20843725750000175,"{38: 3, 65: 1}","[38, 65]",383651,Sr3Tb1
Sr3Dy,mp-1187112,0.0,2.02352393,0.21467963000000267,"{38: 3, 66: 1}","[38, 66]",383661,Sr3Dy1
Sr3Ho,mp-1187131,0.0,1.98878667,0.22026696500000043,"{38: 3, 67: 1}","[38, 67]",383671,Sr3Ho1
Sr3Er,mp-1187113,0.0,1.9652548,0.2248489812499983,"{38: 3, 68: 1}","[38, 68]",383681,Sr3Er1
Sr3Tm,mp-982013,0.0,1.91022191,0.22910438833333302,"{38: 3, 69: 1}","[38, 69]",383691,Sr3Tm1
Sr3Lu,mp-972300,0.0,1.9438398,0.24019645249999755,"{38: 3, 71: 1}","[38, 71]",383711,Sr3Lu1
Sr3Ta,mp-1187141,0.0,2.42779583,0.9038479924999976,"{38: 3, 73: 1}","[38, 73]",383731,Sr3Ta1
Sr3W,mp-1187144,0.0,2.85327634,1.0782912525000015,"{38: 3, 74: 1}","[38, 74]",383741,Sr3W1
Sr3Pt2,mp-1104074,0.0,3.13665307,0.0,"{38: 3, 78: 2}","[38, 78]",383782,Sr3Pt2
Sr3Au,mp-1187103,0.0,2.62920764,0.3031993651388909,"{38: 3, 79: 1}","[38, 79]",383791,Sr3Au1
Sr3Au2,mp-30421,0.0,2.85133019,0.0,"{38: 3, 79: 2}","[38, 79]",383792,Sr3Au2
Sr3Hg,mp-1105844,0.0,1.96925659,0.0035957093749976465,"{38: 3, 80: 1}","[38, 80]",383801,Sr3Hg1
Sr3Hg2,mp-13427,0.0,2.3377136,0.0,"{38: 3, 80: 2}","[38, 80]",383802,Sr3Hg2
Sr3Tl5,mp-1188539,0.0,4.56601524,0.008633411249995504,"{38: 3, 81: 5}","[38, 81]",383815,Sr3Tl5
Sr3Pb,mp-1187137,0.0,3.03777429,0.10101614083333388,"{38: 3, 82: 1}","[38, 82]",383821,Sr3Pb1
Sr3Bi,mp-972249,0.0,3.3357168,0.1807362731249973,"{38: 3, 83: 1}","[38, 83]",383831,Sr3Bi1
Sr3Bi2,mp-1013587,0.0,2.12297077,0.370712946833331,"{38: 3, 83: 2}","[38, 83]",383832,Sr3Bi2
Sr3Ac,mp-1187109,0.0,2.61276475,0.09577036312499843,"{38: 3, 89: 1}","[38, 89]",383891,Sr3Ac1
Sr3Th,mp-1187140,0.0,2.83338024,0.40307409749999934,"{38: 3, 90: 1}","[38, 90]",383901,Sr3Th1
Sr3Pa,mp-1187173,0.0,3.1696616,0.7205937575000014,"{38: 3, 91: 1}","[38, 91]",383911,Sr3Pa1
Sr3U,mp-1187232,0.0,3.1916305,0.7725108724999998,"{38: 3, 92: 1}","[38, 92]",383921,Sr3U1
Sr4Rh,mp-1208743,0.0,1.64500538,0.15828843783333468,"{38: 4, 45: 1}","[38, 45]",384451,Sr4Rh1
Sr4Pd,mp-1208722,0.0,1.39917584,0.21807564899999976,"{38: 4, 46: 1}","[38, 46]",384461,Sr4Pd1
Sr4Cd11,mp-1212170,0.0,1.62366248,0.15857373504166739,"{38: 4, 48: 11}","[38, 48]",3844811,Sr4Cd11
Sr4In13Au9,mp-570807,0.0,5.83824129,0.0,"{38: 4, 49: 13, 79: 9}","[38, 49, 79]",3844913799,Sr4In13Au9
Sr4In17Au15,mp-1218804,0.0,5.9794571,0.033906903680558376,"{38: 4, 49: 17, 79: 15}","[38, 49, 79]",38449177915,Sr4In17Au15
Sr4Sn9Au7,mp-1218558,0.0,5.70012187,0.010807606750005139,"{38: 4, 50: 9, 79: 7}","[38, 50, 79]",384509797,Sr4Sn9Au7
BaSr4,mp-1227650,0.0,1.61923154,0.0,"{56: 1, 38: 4}","[38, 56]",384561,Ba1Sr4
Sr4Ir,mp-1208741,0.0,1.52286997,0.2913122594999962,"{38: 4, 77: 1}","[38, 77]",384771,Sr4Ir1
Sr4Pt,mp-1208740,0.0,1.51050929,0.2553649146111141,"{38: 4, 78: 1}","[38, 78]",384781,Sr4Pt1
Sr4Bi11,mp-1218680,0.0,4.25584299,0.24670109316666577,"{38: 4, 83: 11}","[38, 83]",3848311,Sr4Bi11
Sr4Bi3,mp-30893,0.0,2.81204044,0.0,"{38: 4, 83: 3}","[38, 83]",384833,Sr4Bi3
Sr5Cd3,mp-542484,0.0,1.93363188,0.0,"{38: 5, 48: 3}","[38, 48]",385483,Sr5Cd3
Sr5(InSb3)2,mp-649033,0.053300000000000125,4.35327108,0.0,"{38: 5, 49: 2, 51: 6}","[38, 49, 51]",385492516,Sr5In2Sb6
Sr5(InBi3)2,mp-640825,0.0,3.91730814,0.0,"{38: 5, 49: 2, 83: 6}","[38, 49, 83]",385492836,Sr5In2Bi6
Sr5In3,mp-570362,0.0,2.95473963,0.00672603554228024,"{38: 5, 49: 3}","[38, 49]",385493,Sr5In3
Sr5Sn3,mp-17720,0.0,3.21560494,0.003021452500000521,"{38: 5, 50: 3}","[38, 50]",385503,Sr5Sn3
Sr5Sb3,mp-2585,0.0,4.01312833,0.0,"{38: 5, 51: 3}","[38, 51]",385513,Sr5Sb3
Sr5Pt4,mp-1203497,0.0376000000000003,3.33144812,0.004042353055552894,"{38: 5, 78: 4}","[38, 78]",385784,Sr5Pt4
Sr5Tl3,mp-1106120,0.0,3.0999108,0.0013760289583366614,"{38: 5, 81: 3}","[38, 81]",385813,Sr5Tl3
Sr5Pb4,mp-1203353,0.0,3.45494641,0.03281491694444583,"{38: 5, 82: 4}","[38, 82]",385824,Sr5Pb4
Sr5Bi3,mp-1197242,0.0,3.34841307,0.0,"{38: 5, 83: 3}","[38, 83]",385833,Sr5Bi3
Sr6Sn12Pt11,mp-1203634,0.0,6.30240695,0.0,"{38: 6, 50: 12, 78: 11}","[38, 50, 78]",38650127811,Sr6Sn12Pt11
Sr7Ag3,mp-1106092,0.0,2.02375171,0.013513263899998407,"{38: 7, 47: 3}","[38, 47]",387473,Sr7Ag3
Ba2Sr7I18,mp-752682,3.2106,0.83989512,0.053526217499996864,"{56: 2, 38: 7, 53: 18}","[38, 53, 56]",3875318562,Ba2Sr7I18
Sr7Pt3,mp-30843,0.0,2.80761691,0.0,"{38: 7, 78: 3}","[38, 78]",387783,Sr7Pt3
Sr7Au3,mp-30422,0.0,2.51075685,0.0,"{38: 7, 79: 3}","[38, 79]",387793,Sr7Au3
Sr8Rh5,mp-1103521,0.0,2.7164215,0.06306937846153815,"{38: 8, 45: 5}","[38, 45]",388455,Sr8Rh5
Sr9Cd4Bi9,mp-30447,0.0,3.04189907,0.0,"{38: 9, 48: 4, 83: 9}","[38, 48, 83]",389484839,Sr9Cd4Bi9
Sr9La5I33,mp-1101687,2.1183,3.24663088,0.07468885718084861,"{38: 9, 57: 5, 53: 33}","[38, 53, 57]",3895333575,Sr9La5I33
SrScBe,mp-631468,0.0,2.09826861,1.3691085926666666,"{38: 1, 21: 1, 4: 1}","[4, 21, 38]",41211381,Sr1Sc1Be1
SrBeGe,mp-1208642,0.0,3.49784841,0.06693958666666866,"{38: 1, 4: 1, 32: 1}","[4, 32, 38]",41321381,Sr1Be1Ge1
SrBe13,mp-2080,0.0,3.67935636,0.0,"{38: 1, 4: 13}","[4, 38]",413381,Sr1Be13
SrBeO3,mp-1187143,0.0,2.43926116,0.37697198499999907,"{38: 1, 4: 1, 8: 3}","[4, 8, 38]",4183381,Sr1Be1O3
SrLa2BeO5,mp-1218277,3.8305999999999996,9.06810123,0.008062528703701943,"{38: 1, 57: 2, 4: 1, 8: 5}","[4, 8, 38, 57]",4185381572,Sr1La2Be1O5
SrNd2BeO5,mp-1218200,3.8313,2.86435541,0.008578417592588039,"{38: 1, 60: 2, 4: 1, 8: 5}","[4, 8, 38, 60]",4185381602,Sr1Nd2Be1O5
SrSm2BeO5,mp-1218081,3.8531,2.82272135,0.02771300662037035,"{38: 1, 62: 2, 4: 1, 8: 5}","[4, 8, 38, 62]",4185381622,Sr1Sm2Be1O5
SrEu2BeO5,mp-1218318,0.0,2.48654767,0.20135177425926543,"{38: 1, 63: 2, 4: 1, 8: 5}","[4, 8, 38, 63]",4185381632,Sr1Eu2Be1O5
SrGd2BeO5,mp-1218337,2.2258999999999998,2.62356601,0.05193186203703348,"{38: 1, 64: 2, 4: 1, 8: 5}","[4, 8, 38, 64]",4185381642,Sr1Gd2Be1O5
Sr2LaBeO5,mp-1208818,0.0,3.23351822,0.009051647175926547,"{38: 2, 57: 1, 4: 1, 8: 5}","[4, 8, 38, 57]",4185382571,Sr2La1Be1O5
Sr2NdBeO5,mp-1208779,0.0,2.03469491,0.007751844675926378,"{38: 2, 60: 1, 4: 1, 8: 5}","[4, 8, 38, 60]",4185382601,Sr2Nd1Be1O5
Sr2SmBeO5,mp-1208778,0.0,2.0130334,0.015718832939813687,"{38: 2, 62: 1, 4: 1, 8: 5}","[4, 8, 38, 62]",4185382621,Sr2Sm1Be1O5
Sr2EuBeO5,mp-1209112,0.0,1.86856332,0.09347303648148042,"{38: 2, 63: 1, 4: 1, 8: 5}","[4, 8, 38, 63]",4185382631,Sr2Eu1Be1O5
Sr2GdBeO5,mp-1208913,0.0,1.99413408,0.021731306759258828,"{38: 2, 64: 1, 4: 1, 8: 5}","[4, 8, 38, 64]",4185382641,Sr2Gd1Be1O5
SrBeF4,mp-9726,7.6622,-1.7334124,0.0,"{38: 1, 4: 1, 9: 4}","[4, 9, 38]",4194381,Sr1Be1F4
Sr(BeN)2,mp-11919,1.6078999999999994,2.88008614,0.0,"{38: 1, 4: 2, 7: 2}","[4, 7, 38]",4272381,Sr1Be2N2
SrCaDy4Be2O10,mp-1218527,4.0655,2.98426317,0.06235728703703369,"{38: 1, 20: 1, 66: 4, 4: 2, 8: 10}","[4, 8, 20, 38, 66]",42810201381664,Sr1Ca1Dy4Be2O10
BaSrLa4Be2O10,mp-1227956,3.538100000000001,5.29274147,0.04313313773151162,"{56: 1, 38: 1, 57: 4, 4: 2, 8: 10}","[4, 8, 38, 56, 57]",42810381561574,Ba1Sr1La4Be2O10
SrBe2(PO4)2,mp-1020606,5.7435,1.20308111,0.0,"{38: 1, 4: 2, 15: 2, 8: 8}","[4, 8, 15, 38]",4288152381,Sr1Be2P2O8
K2SrBe2F8,mp-12626,7.202,-2.31755557,0.00267033846152831,"{19: 2, 38: 1, 4: 2, 9: 8}","[4, 9, 19, 38]",4298192381,K2Sr1Be2F8
Sr4Be3Ge5,mp-1218455,0.0,3.60342808,0.089081267500001,"{38: 4, 4: 3, 32: 5}","[4, 32, 38]",43325384,Sr4Be3Ge5
SrBe3O4,mp-27791,4.1301000000000005,1.72483318,0.0,"{38: 1, 4: 3, 8: 4}","[4, 8, 38]",4384381,Sr1Be3O4
Sr16Cu8BC7O40,mp-686590,0.0,3.06114208,0.03336313472221608,"{38: 16, 29: 8, 5: 1, 6: 7, 8: 40}","[5, 6, 8, 29, 38]",51678402983816,Sr16Cu8B1C7O40
Ba2SrB18,mp-1228370,0.8369000000000004,3.97131429,0.0021858366666682727,"{56: 2, 38: 1, 5: 18}","[5, 38, 56]",518381562,Ba2Sr1B18
Sr2Cu(BO3)2,mp-9660,0.5013000000000001,2.81627747,0.012883198409078034,"{38: 2, 29: 1, 5: 2, 8: 6}","[5, 8, 29, 38]",5286291382,Sr2Cu1B2O6
SrCu2(BO3)2,mp-1191148,0.0,2.4109306,0.03861641886363554,"{38: 1, 29: 2, 5: 2, 8: 6}","[5, 8, 29, 38]",5286292381,Sr1Cu2B2O6
Sr3Y(BO3)3,mp-17025,4.4109,1.42538234,0.002369245833332201,"{38: 3, 39: 1, 5: 3, 8: 9}","[5, 8, 38, 39]",5389383391,Sr3Y1B3O9
Ba3Sr4B3O9F5,mp-1182538,4.3528,1.33117904,0.017390250381920325,"{56: 3, 38: 4, 5: 3, 8: 9, 9: 5}","[5, 8, 9, 38, 56]",538995384563,Ba3Sr4B3O9F5
Ba2Sr5B4S13,mp-1214648,2.5476,4.72932619,0.00610790729167654,"{56: 2, 38: 5, 5: 4, 16: 13}","[5, 16, 38, 56]",541613385562,Ba2Sr5B4S13
Sr3Y2(BO3)4,mp-561157,4.4415000000000004,1.97086094,0.02043779341269847,"{38: 3, 39: 2, 5: 4, 8: 12}","[5, 8, 38, 39]",54812383392,Sr3Y2B4O12
Ba8Sr(BN2)6,mp-1228031,2.038,2.01731492,0.003840729465022008,"{56: 8, 38: 1, 5: 6, 7: 12}","[5, 7, 38, 56]",56712381568,Ba8Sr1B6N12
Sr2CaCu6(BO3)6,mp-1218946,0.4482000000000004,2.82291033,0.04747584674241523,"{38: 2, 20: 1, 29: 6, 5: 6, 8: 18}","[5, 8, 20, 29, 38]",56818201296382,Sr2Ca1Cu6B6O18
Sr6YSc(BO3)6,mp-18043,4.4887,1.52336152,0.0,"{38: 6, 39: 1, 21: 1, 5: 6, 8: 18}","[5, 8, 21, 38, 39]",56818211386391,Sr6Y1Sc1B6O18
BaSr3Cu8(BO3)8,mp-1228284,0.0,2.26995347,0.044078662443172156,"{56: 1, 38: 3, 29: 8, 5: 8, 8: 24}","[5, 8, 29, 38, 56]",58824298383561,Ba1Sr3Cu8B8O24
Sr2MgCuC(NO)2,mp-2239929,0.2871000000000006,3.64141156,0.7885726411111076,"{38: 2, 12: 1, 29: 1, 6: 1, 7: 2, 8: 2}","[6, 7, 8, 12, 29, 38]",617282121291382,Sr2Mg1Cu1C1N2O2
Sr2CuC(NO)2,mp-1021672,0.0,2.86541012,0.1748464818359361,"{38: 2, 29: 1, 6: 1, 7: 2, 8: 2}","[6, 7, 8, 29, 38]",617282291382,Sr2Cu1C1N2O2
Sr8Y4Cu11CO28,mp-1173193,0.0,3.74851445,0.028132517043268024,"{38: 8, 39: 4, 29: 11, 6: 1, 8: 28}","[6, 8, 29, 38, 39]",618282911388394,Sr8Y4Cu11C1O28
Sr2FeCO3F5,mp-766474,2.7143,2.77464812,0.0,"{38: 2, 26: 1, 6: 1, 8: 3, 9: 5}","[6, 8, 9, 26, 38]",618395261382,Sr2Fe1C1O3F5
BaSrCuCO4,mp-677647,0.09409999999999963,2.30867651,1.1940183668750013,"{56: 1, 38: 1, 29: 1, 6: 1, 8: 4}","[6, 8, 29, 38, 56]",6184291381561,Ba1Sr1Cu1C1O4
Sr2CuCO5,mp-1198030,0.0,3.59087166,0.03888968916664748,"{38: 2, 29: 1, 6: 1, 8: 5}","[6, 8, 29, 38]",6185291382,Sr2Cu1C1O5
Sr6FeC2N7,mp-569547,0.0,3.94321446,0.02955887531250312,"{38: 6, 26: 1, 6: 2, 7: 7}","[6, 7, 26, 38]",6277261386,Sr6Fe1C2N7
SrCu(C2O5)2,mp-727112,1.0392,-0.68737913,0.4169608406249994,"{38: 1, 29: 1, 6: 4, 8: 10}","[6, 8, 29, 38]",64810291381,Sr1Cu1C4O10
Cs3SrCu2C7(SN)7,mp-572625,2.8882000000000003,1.21555209,0.057680083888887346,"{55: 3, 38: 1, 29: 2, 6: 7, 16: 7, 7: 7}","[6, 7, 16, 29, 38, 55]",6777167292381553,Cs3Sr1Cu2C7S7N7
Ba3Sr(CO2)8,mp-1228375,3.3897999999999997,3.05550263,0.11175666741071044,"{56: 3, 38: 1, 6: 8, 8: 16}","[6, 8, 38, 56]",68816381563,Ba3Sr1C8O16
SrTi7N10,mp-1247012,1.6312000000000002,3.67450477,0.16194913288888024,"{38: 1, 22: 7, 7: 10}","[7, 22, 38]",710227381,Sr1Ti7N10
SrV7N10,mp-1247487,0.0,3.77312589,0.22029928537500254,"{38: 1, 23: 7, 7: 10}","[7, 23, 38]",710237381,Sr1V7N10
SrCr7N10,mp-1247318,0.0,3.86874292,0.10986396727777148,"{38: 1, 24: 7, 7: 10}","[7, 24, 38]",710247381,Sr1Cr7N10