formula,material_id,band_gap,efermi,energy_above_hull,comp_atoms,sorted_keys_comp_atoms,comp_number,new_formula
BaSrCaMg(SiO4)2,mp-1227705,4.7476,7.31535764,0.021568304910741354,"{56: 1, 38: 1, 20: 1, 12: 1, 14: 2, 8: 8}","[8, 12, 14, 20, 38, 56]",88121142201381561,Ba1Sr1Ca1Mg1Si2O8
BaSr2Mg(SiO4)2,mp-1019558,4.759,2.54079904,0.0,"{56: 1, 38: 2, 12: 1, 14: 2, 8: 8}","[8, 12, 14, 38, 56]",88121142382561,Ba1Sr2Mg1Si2O8
Sr3Mg(SiO4)2,mp-554641,5.2265,2.4758074,0.009324735178586785,"{38: 3, 12: 1, 14: 2, 8: 8}","[8, 12, 14, 38]",88121142383,Sr3Mg1Si2O8
SrMgTi(PO4)2,mp-1046096,0.5297999999999998,6.44253083,0.15327612529304258,"{38: 1, 12: 1, 22: 1, 15: 2, 8: 8}","[8, 12, 15, 22, 38]",88121152221381,Sr1Mg1Ti1P2O8
SrMgV(PO4)2,mp-1046410,2.4522999999999993,4.29997984,0.026018963148919383,"{38: 1, 12: 1, 23: 1, 15: 2, 8: 8}","[8, 12, 15, 23, 38]",88121152231381,Sr1Mg1V1P2O8
SrMgCr(PO4)2,mp-1046414,2.8341000000000003,3.90647181,0.022180378589746752,"{38: 1, 12: 1, 24: 1, 15: 2, 8: 8}","[8, 12, 15, 24, 38]",88121152241381,Sr1Mg1Cr1P2O8
SrMgMn(PO4)2,mp-1046354,3.7471000000000005,2.72115614,0.01877863637820809,"{38: 1, 12: 1, 25: 1, 15: 2, 8: 8}","[8, 12, 15, 25, 38]",88121152251381,Sr1Mg1Mn1P2O8
SrMgFe(PO4)2,mp-1046445,3.7512,3.05094197,0.0118082880128636,"{38: 1, 12: 1, 26: 1, 15: 2, 8: 8}","[8, 12, 15, 26, 38]",88121152261381,Sr1Mg1Fe1P2O8
SrMgCo(PO4)2,mp-1046375,2.9702,2.59674278,0.023958923632488194,"{38: 1, 12: 1, 27: 1, 15: 2, 8: 8}","[8, 12, 15, 27, 38]",88121152271381,Sr1Mg1Co1P2O8
SrMgCu(PO4)2,mp-1046153,0.6575000000000002,3.20326662,0.03497532903846956,"{38: 1, 12: 1, 29: 1, 15: 2, 8: 8}","[8, 12, 15, 29, 38]",88121152291381,Sr1Mg1Cu1P2O8
Sr2MgCu(PO4)2,mp-2227424,0.0,5.01884993,0.360779482619046,"{38: 2, 12: 1, 29: 1, 15: 2, 8: 8}","[8, 12, 15, 29, 38]",88121152291382,Sr2Mg1Cu1P2O8
SrMgSn(PO4)2,mp-1046151,3.4052,3.1401371,0.07741564560896297,"{38: 1, 12: 1, 50: 1, 15: 2, 8: 8}","[8, 12, 15, 38, 50]",88121152381501,Sr1Mg1Sn1P2O8
Sr4MgMn3(ClO4)2,mp-2229285,0.0,3.95885397,0.19424036805556,"{38: 4, 12: 1, 25: 3, 17: 2, 8: 8}","[8, 12, 17, 25, 38]",88121172253384,Sr4Mg1Mn3Cl2O8
Sr3MgV2O8,mp-2242152,1.0643999999999996,3.11612422,0.1345385057142856,"{38: 3, 12: 1, 23: 2, 8: 8}","[8, 12, 23, 38]",88121232383,Sr3Mg1V2O8
Sr2La2MgMnO8,mp-1218813,1.8099999999999996,6.23449889,0.022282546136905168,"{38: 2, 57: 2, 12: 1, 25: 1, 8: 8}","[8, 12, 25, 38, 57]",88121251382572,Sr2La2Mg1Mn1O8
BaSrMg(FeO2)4,mp-2232095,1.4692999999999998,2.02760558,0.17925986969046726,"{56: 1, 38: 1, 12: 1, 26: 4, 8: 8}","[8, 12, 26, 38, 56]",88121264381561,Ba1Sr1Mg1Fe4O8
Sr2GdMgCu2RuO8,mp-2240990,0.0,4.43173264,0.3283495426666656,"{38: 2, 64: 1, 12: 1, 29: 2, 44: 1, 8: 8}","[8, 12, 29, 38, 44, 64]",88121292382441641,Sr2Gd1Mg1Cu2Ru1O8
Sr2SmMgTa(CuO4)2,mp-2232379,0.0,5.06386682,0.456724555166657,"{38: 2, 62: 1, 12: 1, 73: 1, 29: 2, 8: 8}","[8, 12, 29, 38, 62, 73]",88121292382621731,Sr2Sm1Mg1Ta1Cu2O8
Sr2MgCu2(BiO4)2,mp-2232309,0.2599999999999998,4.96537499,0.14878832333333136,"{38: 2, 12: 1, 29: 2, 83: 2, 8: 8}","[8, 12, 29, 38, 83]",88121292382832,Sr2Mg1Cu2Bi2O8
Sr2Mg(MoO4)2,mp-2219849,1.5864999999999996,2.85657782,0.17134701692306553,"{38: 2, 12: 1, 42: 2, 8: 8}","[8, 12, 38, 42]",88121382422,Sr2Mg1Mo2O8
Sr2La2MgRuO8,mp-1173266,0.0,5.49947202,0.0324573847321421,"{38: 2, 57: 2, 12: 1, 44: 1, 8: 8}","[8, 12, 38, 44, 57]",88121382441572,Sr2La2Mg1Ru1O8
Sr2Mg(WO4)2,mp-2218882,2.5479000000000003,1.96086677,0.12043835858973395,"{38: 2, 12: 1, 74: 2, 8: 8}","[8, 12, 38, 74]",88121382742,Sr2Mg1W2O8
SrMg6SiO8,mp-1030826,0.13400000000000034,7.11771101,0.441525910859375,"{38: 1, 12: 6, 14: 1, 8: 8}","[8, 12, 14, 38]",88126141381,Sr1Mg6Si1O8
SrCaMg6O8,mp-1031834,2.5247,3.65275414,0.1877001118749977,"{38: 1, 20: 1, 12: 6, 8: 8}","[8, 12, 20, 38]",88126201381,Sr1Ca1Mg6O8
SrMg6TiO8,mp-1031365,0.0,7.59171065,0.26458307668749903,"{38: 1, 12: 6, 22: 1, 8: 8}","[8, 12, 22, 38]",88126221381,Sr1Mg6Ti1O8
SrMg6VO8,mp-1031676,1.0968,5.47183269,0.18271388737847083,"{38: 1, 12: 6, 23: 1, 8: 8}","[8, 12, 23, 38]",88126231381,Sr1Mg6V1O8
SrMg6CrO8,mp-1033472,0.0,6.54478124,0.21863225614583381,"{38: 1, 12: 6, 24: 1, 8: 8}","[8, 12, 24, 38]",88126241381,Sr1Mg6Cr1O8
SrMg6MnO8,mp-1032448,1.2219000000000007,4.95917549,0.17653655156250014,"{38: 1, 12: 6, 25: 1, 8: 8}","[8, 12, 25, 38]",88126251381,Sr1Mg6Mn1O8
SrMg6FeO8,mp-1032435,1.6543999999999999,4.60055794,0.19259912874999774,"{38: 1, 12: 6, 26: 1, 8: 8}","[8, 12, 26, 38]",88126261381,Sr1Mg6Fe1O8
SrMg6CoO8,mp-1032306,1.1388999999999996,4.59618003,0.19813201484374954,"{38: 1, 12: 6, 27: 1, 8: 8}","[8, 12, 27, 38]",88126271381,Sr1Mg6Co1O8
SrMg6CuO8,mp-1032276,0.0,5.40318588,0.2104086631250004,"{38: 1, 12: 6, 29: 1, 8: 8}","[8, 12, 29, 38]",88126291381,Sr1Mg6Cu1O8
SrMg6ZnO8,mp-1032034,1.8375999999999997,3.847232,0.18823718843750026,"{38: 1, 12: 6, 30: 1, 8: 8}","[8, 12, 30, 38]",88126301381,Sr1Mg6Zn1O8
SrYMg6O8,mp-1032600,0.0,7.32858207,0.26123241975260125,"{38: 1, 39: 1, 12: 6, 8: 8}","[8, 12, 38, 39]",88126381391,Sr1Y1Mg6O8
SrMg6NbO8,mp-1033433,0.0,7.40828461,0.3420422732499988,"{38: 1, 12: 6, 41: 1, 8: 8}","[8, 12, 38, 41]",88126381411,Sr1Mg6Nb1O8
SrMg6CdO8,mp-1033462,1.5248000000000004,3.86362907,0.17910880500000026,"{38: 1, 12: 6, 48: 1, 8: 8}","[8, 12, 38, 48]",88126381481,Sr1Mg6Cd1O8
SrMg6SnO8,mp-1031499,0.0,7.55118148,0.3073192914062357,"{38: 1, 12: 6, 50: 1, 8: 8}","[8, 12, 38, 50]",88126381501,Sr1Mg6Sn1O8
BaSrMg6O8,mp-1033527,0.6144999999999996,4.11823947,0.3749596749999995,"{56: 1, 38: 1, 12: 6, 8: 8}","[8, 12, 38, 56]",88126381561,Ba1Sr1Mg6O8
SrHfMg6O8,mp-1033367,0.0,7.73400099,0.3681812349999998,"{38: 1, 72: 1, 12: 6, 8: 8}","[8, 12, 38, 72]",88126381721,Sr1Hf1Mg6O8
SrMg6BiO8,mp-1033410,0.0,6.65385714,0.3697762929166686,"{38: 1, 12: 6, 83: 1, 8: 8}","[8, 12, 38, 83]",88126381831,Sr1Mg6Bi1O8
SrNd3AlCuO8,mp-1218168,0.0,4.73422512,0.08774493464285982,"{38: 1, 60: 3, 13: 1, 29: 1, 8: 8}","[8, 13, 29, 38, 60]",88131291381603,Sr1Nd3Al1Cu1O8
Sr2Al3FeO8,mp-1218880,3.4036999999999997,1.45156583,0.01336313834820313,"{38: 2, 13: 3, 26: 1, 8: 8}","[8, 13, 26, 38]",88133261382,Sr2Al3Fe1O8
Sr2Ti(SiO4)2,mp-1192641,3.8662,1.68763372,0.03257497096154438,"{38: 2, 22: 1, 14: 2, 8: 8}","[8, 14, 22, 38]",88142221382,Sr2Ti1Si2O8
SrCaTi(PO4)2,mp-1046217,0.3620000000000001,6.04168854,0.14973308091269288,"{38: 1, 20: 1, 22: 1, 15: 2, 8: 8}","[8, 15, 20, 22, 38]",88152201221381,Sr1Ca1Ti1P2O8
SrCaV(PO4)2,mp-1046434,2.5580999999999996,3.86738636,0.02787748992241834,"{38: 1, 20: 1, 23: 1, 15: 2, 8: 8}","[8, 15, 20, 23, 38]",88152201231381,Sr1Ca1V1P2O8
SrCaCr(PO4)2,mp-1046446,3.1243,3.17618293,0.017247941196228744,"{38: 1, 20: 1, 24: 1, 15: 2, 8: 8}","[8, 15, 20, 24, 38]",88152201241381,Sr1Ca1Cr1P2O8
SrCaMn(PO4)2,mp-1046441,3.9126999999999996,2.39802591,0.01366284776709037,"{38: 1, 20: 1, 25: 1, 15: 2, 8: 8}","[8, 15, 20, 25, 38]",88152201251381,Sr1Ca1Mn1P2O8
SrCaFe(PO4)2,mp-1046496,3.8247999999999998,2.59829196,0.010141215555554695,"{38: 1, 20: 1, 26: 1, 15: 2, 8: 8}","[8, 15, 20, 26, 38]",88152201261381,Sr1Ca1Fe1P2O8
SrCaCo(PO4)2,mp-1046419,2.8545999999999996,2.21495947,0.02804783194441285,"{38: 1, 20: 1, 27: 1, 15: 2, 8: 8}","[8, 15, 20, 27, 38]",88152201271381,Sr1Ca1Co1P2O8
SrCaCu(PO4)2,mp-1046249,0.6105999999999998,2.60815592,0.03602646509615415,"{38: 1, 20: 1, 29: 1, 15: 2, 8: 8}","[8, 15, 20, 29, 38]",88152201291381,Sr1Ca1Cu1P2O8
SrCaSn(PO4)2,mp-1046242,3.4879999999999995,2.99542878,0.05087288122861544,"{38: 1, 20: 1, 50: 1, 15: 2, 8: 8}","[8, 15, 20, 38, 50]",88152201381501,Sr1Ca1Sn1P2O8
SrCaP2WO8,mp-1046467,2.2244,4.60537278,0.19594109057694897,"{38: 1, 20: 1, 15: 2, 74: 1, 8: 8}","[8, 15, 20, 38, 74]",88152201381741,Sr1Ca1P2W1O8
SrTiZn(PO4)2,mp-1046114,0.0,5.96913127,0.17077087764422494,"{38: 1, 22: 1, 30: 1, 15: 2, 8: 8}","[8, 15, 22, 30, 38]",88152221301381,Sr1Ti1Zn1P2O8
SrTi(PO4)2,mp-1191111,2.6126,1.22315897,0.0,"{38: 1, 22: 1, 15: 2, 8: 8}","[8, 15, 22, 38]",88152221381,Sr1Ti1P2O8
SrVZn(PO4)2,mp-1046426,1.7774,3.94876842,0.03599558960724636,"{38: 1, 23: 1, 30: 1, 15: 2, 8: 8}","[8, 15, 23, 30, 38]",88152231301381,Sr1V1Zn1P2O8
SrV(PO4)2,mp-1046421,1.7375,0.95093467,0.07431271054165922,"{38: 1, 23: 1, 15: 2, 8: 8}","[8, 15, 23, 38]",88152231381,Sr1V1P2O8
SrZnCr(PO4)2,mp-1046422,2.2744999999999997,3.45228714,0.03507382726921815,"{38: 1, 30: 1, 24: 1, 15: 2, 8: 8}","[8, 15, 24, 30, 38]",88152241301381,Sr1Zn1Cr1P2O8
SrCr(PO4)2,mp-1046448,0.11929999999999996,1.13871439,0.09555369666668412,"{38: 1, 24: 1, 15: 2, 8: 8}","[8, 15, 24, 38]",88152241381,Sr1Cr1P2O8
SrMnZn(PO4)2,mp-1046402,3.2141,2.38113971,0.028021840769201667,"{38: 1, 25: 1, 30: 1, 15: 2, 8: 8}","[8, 15, 25, 30, 38]",88152251301381,Sr1Mn1Zn1P2O8
SrMn(PO4)2,mp-1046462,0.32399999999999984,1.0751126,0.06869271354162265,"{38: 1, 25: 1, 15: 2, 8: 8}","[8, 15, 25, 38]",88152251381,Sr1Mn1P2O8
SrMn2(PO4)2,mp-541990,3.3013000000000003,2.24868249,0.0,"{38: 1, 25: 2, 15: 2, 8: 8}","[8, 15, 25, 38]",88152252381,Sr1Mn2P2O8
SrZnFe(PO4)2,mp-1046443,3.2177,2.46290053,0.02258120432692312,"{38: 1, 30: 1, 26: 1, 15: 2, 8: 8}","[8, 15, 26, 30, 38]",88152261301381,Sr1Zn1Fe1P2O8
SrFe(PO4)2,mp-1046490,0.0,0.51267833,0.11260439562499869,"{38: 1, 26: 1, 15: 2, 8: 8}","[8, 15, 26, 38]",88152261381,Sr1Fe1P2O8
SrFe2(PO4)2,mp-542976,3.4246999999999996,2.39162742,0.0,"{38: 1, 26: 2, 15: 2, 8: 8}","[8, 15, 26, 38]",88152262381,Sr1Fe2P2O8
SrZnCo(PO4)2,mp-1046379,2.9339999999999997,2.10608596,0.03446311798076884,"{38: 1, 30: 1, 27: 1, 15: 2, 8: 8}","[8, 15, 27, 30, 38]",88152271301381,Sr1Zn1Co1P2O8
SrCo(PO4)2,mp-1046454,0.03860000000000008,0.6504442,0.08454354958333354,"{38: 1, 27: 1, 15: 2, 8: 8}","[8, 15, 27, 38]",88152271381,Sr1Co1P2O8
Sr2Co(PO4)2,mp-561556,3.1487999999999996,4.87284028,0.0,"{38: 2, 27: 1, 15: 2, 8: 8}","[8, 15, 27, 38]",88152271382,Sr2Co1P2O8
SrCo2(PO4)2,mp-18659,0.5616000000000003,2.75453333,0.0,"{38: 1, 27: 2, 15: 2, 8: 8}","[8, 15, 27, 38]",88152272381,Sr1Co2P2O8
SrZnCu(PO4)2,mp-1046155,0.4599000000000002,2.64114742,0.038126174903851506,"{38: 1, 30: 1, 29: 1, 15: 2, 8: 8}","[8, 15, 29, 30, 38]",88152291301381,Sr1Zn1Cu1P2O8
Sr2Cu(PO4)2,mp-10950,0.0,2.2887075,0.0,"{38: 2, 29: 1, 15: 2, 8: 8}","[8, 15, 29, 38]",88152291382,Sr2Cu1P2O8
SrCu2(PO4)2,mp-582585,0.0,2.82993206,0.02419059432691384,"{38: 1, 29: 2, 15: 2, 8: 8}","[8, 15, 29, 38]",88152292381,Sr1Cu2P2O8
SrZnSn(PO4)2,mp-1046206,3.2386999999999997,2.91246183,0.08035111276443097,"{38: 1, 30: 1, 50: 1, 15: 2, 8: 8}","[8, 15, 30, 38, 50]",88152301381501,Sr1Zn1Sn1P2O8
SrZnP2WO8,mp-1046576,1.9573999999999998,3.77993735,0.2456217375320513,"{38: 1, 30: 1, 15: 2, 74: 1, 8: 8}","[8, 15, 30, 38, 74]",88152301381741,Sr1Zn1P2W1O8
SrZn2(PO4)2,mp-8810,4.4744,0.48619308,0.0,"{38: 1, 30: 2, 15: 2, 8: 8}","[8, 15, 30, 38]",88152302381,Sr1Zn2P2O8
SrGe(PO4)2,mp-1020628,4.0991,1.89177193,0.0,"{38: 1, 32: 1, 15: 2, 8: 8}","[8, 15, 32, 38]",88152321381,Sr1Ge1P2O8
SrZr(PO4)2,mp-558625,4.1129999999999995,1.37279673,0.014155139833331276,"{38: 1, 40: 1, 15: 2, 8: 8}","[8, 15, 38, 40]",88152381401,Sr1Zr1P2O8
SrMo(PO4)2,mp-1046415,1.8805999999999998,1.43491341,0.0909850199999882,"{38: 1, 42: 1, 15: 2, 8: 8}","[8, 15, 38, 42]",88152381421,Sr1Mo1P2O8
SrSn(PO4)2,mp-862718,3.5533,2.07904639,0.0,"{38: 1, 50: 1, 15: 2, 8: 8}","[8, 15, 38, 50]",88152381501,Sr1Sn1P2O8
SrSb(PO4)2,mp-1046188,1.6429999999999998,1.51399295,0.10190626010416715,"{38: 1, 51: 1, 15: 2, 8: 8}","[8, 15, 38, 51]",88152381511,Sr1Sb1P2O8
Ba2Sr(PO4)2,mp-1228498,5.309799999999999,1.91773717,0.008214068205094627,"{56: 2, 38: 1, 15: 2, 8: 8}","[8, 15, 38, 56]",88152381562,Ba2Sr1P2O8
SrP2WO8,mp-1046472,3.1252000000000004,1.28017475,0.10565967361111639,"{38: 1, 15: 2, 74: 1, 8: 8}","[8, 15, 38, 74]",88152381741,Sr1P2W1O8
SrBi(PO4)2,mp-1046244,0.0,1.02931813,0.10796598166667071,"{38: 1, 83: 1, 15: 2, 8: 8}","[8, 15, 38, 83]",88152381831,Sr1Bi1P2O8
SrNp(PO4)2,mp-1200095,0.03149999999999942,4.54739656,0.0,"{38: 1, 93: 1, 15: 2, 8: 8}","[8, 15, 38, 93]",88152381931,Sr1Np1P2O8
BaSr2(PO4)2,mp-1227768,5.335100000000001,2.14506293,0.014346982564061861,"{56: 1, 38: 2, 15: 2, 8: 8}","[8, 15, 38, 56]",88152382561,Ba1Sr2P2O8
Sr3(PO4)2,mp-4632,5.4064000000000005,2.37030856,0.0,"{38: 3, 15: 2, 8: 8}","[8, 15, 38]",88152383,Sr3P2O8
Sr(SO4)2,mp-733869,0.0,-0.87715826,0.06477532071970415,"{38: 1, 16: 2, 8: 8}","[8, 16, 38]",88162381,Sr1S2O8
Sr4Fe3ClO8,mp-1147563,0.27490000000000014,3.85219973,0.06373936785157586,"{38: 4, 26: 3, 17: 1, 8: 8}","[8, 17, 26, 38]",88171263384,Sr4Fe3Cl1O8
Sr2Cu2RuPb2ClO8,mp-1218869,0.0,4.54641172,0.03798662083983917,"{38: 2, 29: 2, 44: 1, 82: 2, 17: 1, 8: 8}","[8, 17, 29, 38, 44, 82]",88171292382441822,Sr2Cu2Ru1Pb2Cl1O8
Sr3Cu3Pb3ClO8,mp-1218799,0.25839999999999996,4.44229178,0.02660145887344889,"{38: 3, 29: 3, 82: 3, 17: 1, 8: 8}","[8, 17, 29, 38, 82]",88171293383823,Sr3Cu3Pb3Cl1O8
Sr4Mn3(ClO4)2,mp-23597,0.0,2.94262057,0.0,"{38: 4, 25: 3, 17: 2, 8: 8}","[8, 17, 25, 38]",88172253384,Sr4Mn3Cl2O8
SrCo2Te3(ClO4)2,mp-562378,1.8676999999999997,2.50470372,0.0,"{38: 1, 27: 2, 52: 3, 17: 2, 8: 8}","[8, 17, 27, 38, 52]",88172272381523,Sr1Co2Te3Cl2O8
Sr3Se3(ClO4)2,mp-554805,3.4263,1.0307933,0.0,"{38: 3, 34: 3, 17: 2, 8: 8}","[8, 17, 34, 38]",88172343383,Sr3Se3Cl2O8
Sr4Te3(ClO2)4,mp-1218587,3.3574,5.07213514,0.0,"{38: 4, 52: 3, 17: 4, 8: 8}","[8, 17, 38, 52]",88174384523,Sr4Te3Cl4O8
Sr3CaMn2O8,mp-1218411,0.0,3.12797943,0.022718830850336325,"{38: 3, 20: 1, 25: 2, 8: 8}","[8, 20, 25, 38]",88201252383,Sr3Ca1Mn2O8
Sr2CaCu2Bi2IO8,mp-1209124,0.0,3.5592228,0.09264534729492446,"{38: 2, 20: 1, 29: 2, 83: 2, 53: 1, 8: 8}","[8, 20, 29, 38, 53, 83]",88201292382531832,Sr2Ca1Cu2Bi2I1O8
Sr2CaCu2(BiO4)2,mp-1218930,0.0,4.51768334,0.0393952988888886,"{38: 2, 20: 1, 29: 2, 83: 2, 8: 8}","[8, 20, 29, 38, 83]",88201292382832,Sr2Ca1Cu2Bi2O8
Sr3Ca(CuO2)4,mp-1218445,0.0,3.50981742,0.009958944479167897,"{38: 3, 20: 1, 29: 4, 8: 8}","[8, 20, 29, 38]",88201294383,Sr3Ca1Cu4O8
Sr5CaCu4(BiO2)4,mp-1218644,0.0,3.94246507,0.3266222583333356,"{38: 5, 20: 1, 29: 4, 83: 4, 8: 8}","[8, 20, 29, 38, 83]",88201294385834,Sr5Ca1Cu4Bi4O8
SrCaU2O8,mp-1218353,2.0454,3.97187427,0.01244476020833396,"{38: 1, 20: 1, 92: 2, 8: 8}","[8, 20, 38, 92]",88201381922,Sr1Ca1U2O8
Sr3Ca(PbO4)2,mp-1218395,1.8662,4.30861868,0.005801952321441206,"{38: 3, 20: 1, 82: 2, 8: 8}","[8, 20, 38, 82]",88201383822,Sr3Ca1Pb2O8
SrCa2Cu2(BiO4)2,mp-1208800,0.0,4.65922206,0.11803475022222454,"{38: 1, 20: 2, 29: 2, 83: 2, 8: 8}","[8, 20, 29, 38, 83]",88202292381832,Sr1Ca2Cu2Bi2O8
Sr2Ca2Cu3BiO8,mp-1173287,0.0,4.531604,0.16645017890625002,"{38: 2, 20: 2, 29: 3, 83: 1, 8: 8}","[8, 20, 29, 38, 83]",88202293382831,Sr2Ca2Cu3Bi1O8
SrCa3Mn2O8,mp-1218408,0.0,3.2209566,0.024581384965992825,"{38: 1, 20: 3, 25: 2, 8: 8}","[8, 20, 25, 38]",88203252381,Sr1Ca3Mn2O8
SrCa3(RuO4)2,mp-1218458,0.0,4.30674792,0.0318488855654806,"{38: 1, 20: 3, 44: 2, 8: 8}","[8, 20, 38, 44]",88203381442,Sr1Ca3Ru2O8
SrCa3(PbO4)2,mp-1218448,1.9231000000000003,2.79996398,0.005349488392857538,"{38: 1, 20: 3, 82: 2, 8: 8}","[8, 20, 38, 82]",88203381822,Sr1Ca3Pb2O8
SrMnV2(AgO4)2,mp-541777,1.366,2.35428372,0.02900629779017283,"{38: 1, 25: 1, 23: 2, 47: 2, 8: 8}","[8, 23, 25, 38, 47]",88232251381472,Sr1Mn1V2Ag2O8
SrMn2V2O8,mp-1194563,2.0316000000000005,2.11093826,0.0,"{38: 1, 25: 2, 23: 2, 8: 8}","[8, 23, 25, 38]",88232252381,Sr1Mn2V2O8
SrV2(CoO4)2,mp-1195702,2.1884,1.85956414,0.013946874230792439,"{38: 1, 23: 2, 27: 2, 8: 8}","[8, 23, 27, 38]",88232272381,Sr1V2Co2O8
SrV2TeO8,mp-1198767,2.6844,0.98158378,0.007000063437500259,"{38: 1, 23: 2, 52: 1, 8: 8}","[8, 23, 38, 52]",88232381521,Sr1V2Te1O8
Ba2SrV2O8,mp-1228399,3.7201,0.72338099,0.009752743076926862,"{56: 2, 38: 1, 23: 2, 8: 8}","[8, 23, 38, 56]",88232381562,Ba2Sr1V2O8
Sr3V2O8,mp-19386,3.4161,0.93567516,0.0,"{38: 3, 23: 2, 8: 8}","[8, 23, 38]",88232383,Sr3V2O8
Sr3LaMnCrO8,mp-1218443,1.2211000000000007,4.12319807,0.029818870244042728,"{38: 3, 57: 1, 25: 1, 24: 1, 8: 8}","[8, 24, 25, 38, 57]",88241251383571,Sr3La1Mn1Cr1O8
Sr2YCr(CuO4)2,mp-1218600,0.0,3.64343807,0.3627189488504312,"{38: 2, 39: 1, 24: 1, 29: 2, 8: 8}","[8, 24, 29, 38, 39]",88241292382391,Sr2Y1Cr1Cu2O8
Sr2GdCr(CuO4)2,mp-1218882,0.0,3.37904734,0.35505199724490133,"{38: 2, 64: 1, 24: 1, 29: 2, 8: 8}","[8, 24, 29, 38, 64]",88241292382641,Sr2Gd1Cr1Cu2O8
Sr3Cr2O8,mp-1277121,0.9904999999999999,2.4814908,0.004201205288445031,"{38: 3, 24: 2, 8: 8}","[8, 24, 38]",88242383,Sr3Cr2O8
SrLa3MnCuO8,mp-1218246,0.0,6.61655747,0.13516062040478616,"{38: 1, 57: 3, 25: 1, 29: 1, 8: 8}","[8, 25, 29, 38, 57]",88251291381573,Sr1La3Mn1Cu1O8
Sr2La2MnCuO8,mp-1173270,0.0,5.36783684,0.07613484460119668,"{38: 2, 57: 2, 25: 1, 29: 1, 8: 8}","[8, 25, 29, 38, 57]",88251291382572,Sr2La2Mn1Cu1O8
Sr2Pr2MnCuO8,mp-1218720,0.0,3.89058734,0.05624093552827514,"{38: 2, 59: 2, 25: 1, 29: 1, 8: 8}","[8, 25, 29, 38, 59]",88251291382592,Sr2Pr2Mn1Cu1O8
Sr2Nd2MnCuO8,mp-1173257,0.0,3.92731558,0.024048904234700963,"{38: 2, 60: 2, 25: 1, 29: 1, 8: 8}","[8, 25, 29, 38, 60]",88251291382602,Sr2Nd2Mn1Cu1O8
Sr2La2MnZnO8,mp-1218782,1.5530999999999997,4.58129834,0.05537193095833448,"{38: 2, 57: 2, 25: 1, 30: 1, 8: 8}","[8, 25, 30, 38, 57]",88251301382572,Sr2La2Mn1Zn1O8
SrLa3MnO8,mp-753578,0.0,4.91253264,0.14973171401282137,"{38: 1, 57: 3, 25: 1, 8: 8}","[8, 25, 38, 57]",88251381573,Sr1La3Mn1O8
Sr4MnRuO8,mp-1218516,0.0,3.23933936,0.0,"{38: 4, 25: 1, 44: 1, 8: 8}","[8, 25, 38, 44]",88251384441,Sr4Mn1Ru1O8
Sr3LaMn2O8,mp-1218441,0.0,4.38269034,0.04303913044049512,"{38: 3, 57: 1, 25: 2, 8: 8}","[8, 25, 38, 57]",88252383571,Sr3La1Mn2O8
Sr3PrMn2O8,mp-1218451,0.0,3.6242533,0.0,"{38: 3, 59: 1, 25: 2, 8: 8}","[8, 25, 38, 59]",88252383591,Sr3Pr1Mn2O8
Sr3NdMn2O8,mp-1218352,0.0,3.59252891,0.0,"{38: 3, 60: 1, 25: 2, 8: 8}","[8, 25, 38, 60]",88252383601,Sr3Nd1Mn2O8
Sr3DyMn2O8,mp-1218420,0.0,3.59973841,0.029610139380977785,"{38: 3, 66: 1, 25: 2, 8: 8}","[8, 25, 38, 66]",88252383661,Sr3Dy1Mn2O8
Sr2La2FeCoO8,mp-1218706,0.0,5.07146371,0.026486525178586184,"{38: 2, 57: 2, 26: 1, 27: 1, 8: 8}","[8, 26, 27, 38, 57]",88261271382572,Sr2La2Fe1Co1O8
Sr4FeMoO8,mp-1218333,0.7205999999999997,3.32217237,0.0,"{38: 4, 26: 1, 42: 1, 8: 8}","[8, 26, 38, 42]",88261384421,Sr4Fe1Mo1O8
Sr4FeRuO8,mp-1218399,0.0,3.43253247,0.0,"{38: 4, 26: 1, 44: 1, 8: 8}","[8, 26, 38, 44]",88261384441,Sr4Fe1Ru1O8
Sr4TaFeO8,mp-1218412,1.7730000000000006,2.65540471,0.0,"{38: 4, 73: 1, 26: 1, 8: 8}","[8, 26, 38, 73]",88261384731,Sr4Ta1Fe1O8
Sr3Nd(FeO4)2,mp-1218438,0.0,2.83338366,0.003998267619054197,"{38: 3, 60: 1, 26: 2, 8: 8}","[8, 26, 38, 60]",88262383601,Sr3Nd1Fe2O8
Sr3Sm(FeO4)2,mp-1218432,0.0,2.7726788,0.01601389783036744,"{38: 3, 62: 1, 26: 2, 8: 8}","[8, 26, 38, 62]",88262383621,Sr3Sm1Fe2O8
Sr3Tl(FeO4)2,mp-1218508,0.0,3.03938951,0.00778798160715688,"{38: 3, 81: 1, 26: 2, 8: 8}","[8, 26, 38, 81]",88262383811,Sr3Tl1Fe2O8
Sr2YFe3O8,mp-1208510,0.0,4.04451444,0.023265994620547126,"{38: 2, 39: 1, 26: 3, 8: 8}","[8, 26, 38, 39]",88263382391,Sr2Y1Fe3O8
BaSr(FeO2)4,mp-1228024,1.6339,1.34075831,0.01944497580356419,"{56: 1, 38: 1, 26: 4, 8: 8}","[8, 26, 38, 56]",88264381561,Ba1Sr1Fe4O8
SrNd7Fe8(AsO)8,mp-684784,0.0,3.79743345,0.2643469465104129,"{38: 1, 60: 7, 26: 8, 33: 8, 8: 8}","[8, 26, 33, 38, 60]",88268338381607,Sr1Nd7Fe8As8O8
Sr4NbCoO8,mp-1218456,1.4473000000000003,2.28270314,0.004991916785702877,"{38: 4, 41: 1, 27: 1, 8: 8}","[8, 27, 38, 41]",88271384411,Sr4Nb1Co1O8
SrCo2(AsO4)2,mp-1193940,2.3082,1.91522518,0.0,"{38: 1, 27: 2, 33: 2, 8: 8}","[8, 27, 33, 38]",88272332381,Sr1Co2As2O8
Sr3Y(CoO4)2,mp-1218489,0.0,3.14411963,0.05514808197916654,"{38: 3, 39: 1, 27: 2, 8: 8}","[8, 27, 38, 39]",88272383391,Sr3Y1Co2O8
Sr3La(CoO4)2,mp-1218340,0.052899999999999725,3.58445035,0.009052421755952444,"{38: 3, 57: 1, 27: 2, 8: 8}","[8, 27, 38, 57]",88272383571,Sr3La1Co2O8
Sr3Nd(CoO4)2,mp-1218466,0.0,3.20496407,0.029423369791690135,"{38: 3, 60: 1, 27: 2, 8: 8}","[8, 27, 38, 60]",88272383601,Sr3Nd1Co2O8
Sr3Sm(CoO4)2,mp-1218459,0.0,2.7694612,0.018038758854165948,"{38: 3, 62: 1, 27: 2, 8: 8}","[8, 27, 38, 62]",88272383621,Sr3Sm1Co2O8
Sr3Co3O8,mp-757739,0.0,2.9514024,0.0702095227678532,"{38: 3, 27: 3, 8: 8}","[8, 27, 38]",88273383,Sr3Co3O8