formula,material_id,band_gap,efermi,energy_above_hull,comp_atoms,sorted_keys_comp_atoms,comp_number,new_formula
Ba3Sr5Tl5Cu3O19,mp-1228463,0.0,3.52271544,0.01573522891427981,"{56: 3, 38: 5, 81: 5, 29: 3, 8: 19}","[8, 29, 38, 56, 81]",819293385563815,Ba3Sr5Tl5Cu3O19
Sr7Y6OF30,mp-1218554,5.0529,1.09679892,0.0,"{38: 7, 39: 6, 8: 1, 9: 30}","[8, 9, 38, 39]",81930387396,Sr7Y6O1F30
SrGa12O19,mp-863423,1.8584,2.77262555,0.019737239218748925,"{38: 1, 31: 12, 8: 19}","[8, 31, 38]",8193112381,Sr1Ga12O19
Sr10Ga6O19,mp-680384,3.0014000000000003,1.2041045,0.01286405399999957,"{38: 10, 31: 6, 8: 19}","[8, 31, 38]",8193163810,Sr10Ga6O19
Sr3Bi2Se6O19,mp-1195288,0.28859999999999975,2.1448958,0.10561236141666352,"{38: 3, 83: 2, 34: 6, 8: 19}","[8, 34, 38, 83]",819346383832,Sr3Bi2Se6O19
Sr5U5O19,mp-757372,0.0,5.5541448,0.00383880159484562,"{38: 5, 92: 5, 8: 19}","[8, 38, 92]",819385925,Sr5U5O19
Sr7W4O19,mp-768610,3.0853,2.27323605,0.0021026674999902184,"{38: 7, 74: 4, 8: 19}","[8, 38, 74]",819387744,Sr7W4O19
Sr7Re4O19,mp-30165,0.0,4.42547308,0.0050107427277756855,"{38: 7, 75: 4, 8: 19}","[8, 38, 75]",819387754,Sr7Re4O19
SrMnOF5,mp-1106083,0.0,-0.11326215,0.4457703221874967,"{38: 1, 25: 1, 8: 1, 9: 5}","[8, 9, 25, 38]",8195251381,Sr1Mn1O1F5
Sr8MgMn6O20,mp-2216785,1.0913999999999997,2.61547954,0.06852565259926813,"{38: 8, 12: 1, 25: 6, 8: 20}","[8, 12, 25, 38]",820121256388,Sr8Mg1Mn6O20
Sr6La4Mg2Ru3O20,mp-677385,0.0,4.62179374,0.21857855642856805,"{38: 6, 57: 4, 12: 2, 44: 3, 8: 20}","[8, 12, 38, 44, 57]",820122386443574,Sr6La4Mg2Ru3O20
BaSrMn2Al9PbO20,mp-1227545,1.233,3.48123062,0.0,"{56: 1, 38: 1, 25: 2, 13: 9, 82: 1, 8: 20}","[8, 13, 25, 38, 56, 82]",820139252381561821,Ba1Sr1Mn2Al9Pb1O20
SrBi6(PO5)4,mp-561005,3.5083999999999995,3.32888621,0.0,"{38: 1, 83: 6, 15: 4, 8: 20}","[8, 15, 38, 83]",820154381836,Sr1Bi6P4O20
Sr6CaY2TiCu6(HgO10)2,mp-1218668,0.0,3.65092775,0.08213037154605107,"{38: 6, 20: 1, 39: 2, 22: 1, 29: 6, 80: 2, 8: 20}","[8, 20, 22, 29, 38, 39, 80]",820201221296386392802,Sr6Ca1Y2Ti1Cu6Hg2O20
Sr7CaTi3Mn5O20,mp-1076183,0.29430000000000023,3.33295798,0.05497164590272696,"{38: 7, 20: 1, 22: 3, 25: 5, 8: 20}","[8, 20, 22, 25, 38]",820201223255387,Sr7Ca1Ti3Mn5O20
Sr7CaTi5Mn3O20,mp-1076202,0.0,5.22615038,0.0917032897102601,"{38: 7, 20: 1, 22: 5, 25: 3, 8: 20}","[8, 20, 22, 25, 38]",820201225253387,Sr7Ca1Ti5Mn3O20
Sr7CaTi7MnO20,mp-1099889,0.0,5.37379095,0.11733436984953727,"{38: 7, 20: 1, 22: 7, 25: 1, 8: 20}","[8, 20, 22, 25, 38]",820201227251387,Sr7Ca1Ti7Mn1O20
Sr7CaTi8O20,mp-1076695,0.0,5.37327631,0.07128429106480638,"{38: 7, 20: 1, 22: 8, 8: 20}","[8, 20, 22, 38]",820201228387,Sr7Ca1Ti8O20
Sr7CaMnFe7O20,mp-1076487,0.0,3.02075512,0.020018401892360593,"{38: 7, 20: 1, 25: 1, 26: 7, 8: 20}","[8, 20, 25, 26, 38]",820201251267387,Sr7Ca1Mn1Fe7O20
Sr7CaMn2(Fe3O10)2,mp-1076092,0.0,3.03240608,0.031058202473928098,"{38: 7, 20: 1, 25: 2, 26: 6, 8: 20}","[8, 20, 25, 26, 38]",820201252266387,Sr7Ca1Mn2Fe6O20
Sr7CaMn3(FeO4)5,mp-1099661,0.0,3.04893918,0.042632550694436055,"{38: 7, 20: 1, 25: 3, 26: 5, 8: 20}","[8, 20, 25, 26, 38]",820201253265387,Sr7Ca1Mn3Fe5O20
Sr7CaMn4(FeO5)4,mp-1099692,0.0,3.06063821,0.051514242317696635,"{38: 7, 20: 1, 25: 4, 26: 4, 8: 20}","[8, 20, 25, 26, 38]",820201254264387,Sr7Ca1Mn4Fe4O20
Sr7CaFe4(CoO5)4,mp-1076159,0.0,2.51883953,0.03740500342883113,"{38: 7, 20: 1, 26: 4, 27: 4, 8: 20}","[8, 20, 26, 27, 38]",820201264274387,Sr7Ca1Fe4Co4O20
Sr7CaFe5Co3O20,mp-1076758,0.0,2.40137266,0.032065805208345566,"{38: 7, 20: 1, 26: 5, 27: 3, 8: 20}","[8, 20, 26, 27, 38]",820201265273387,Sr7Ca1Fe5Co3O20
Sr7CaFe6(CoO10)2,mp-1076631,0.0,2.72033151,0.021093493654513296,"{38: 7, 20: 1, 26: 6, 27: 2, 8: 20}","[8, 20, 26, 27, 38]",820201266272387,Sr7Ca1Fe6Co2O20
Sr7CaFe7CoO20,mp-1099946,0.0,2.3999937,0.7069171005729169,"{38: 7, 20: 1, 26: 7, 27: 1, 8: 20}","[8, 20, 26, 27, 38]",820201267271387,Sr7Ca1Fe7Co1O20
Sr6Ca2MnFe7O20,mp-1099974,0.0,3.00910576,0.02565456091143048,"{38: 6, 20: 2, 25: 1, 26: 7, 8: 20}","[8, 20, 25, 26, 38]",820202251267386,Sr6Ca2Mn1Fe7O20
Sr6Ca2Mn3(FeO4)5,mp-1076177,0.0,3.10879854,0.04912002311631003,"{38: 6, 20: 2, 25: 3, 26: 5, 8: 20}","[8, 20, 25, 26, 38]",820202253265386,Sr6Ca2Mn3Fe5O20
Sr6Ca2Mn5Fe3O20,mp-1076182,0.0,3.02521045,0.0538563090711639,"{38: 6, 20: 2, 25: 5, 26: 3, 8: 20}","[8, 20, 25, 26, 38]",820202255263386,Sr6Ca2Mn5Fe3O20
Sr6Ca2Fe3(CoO4)5,mp-1076488,0.0,2.59779553,0.039146948168400364,"{38: 6, 20: 2, 26: 3, 27: 5, 8: 20}","[8, 20, 26, 27, 38]",820202263275386,Sr6Ca2Fe3Co5O20
Sr6Ca2Fe5Co3O20,mp-1076769,0.0,2.53569039,0.03570219943577513,"{38: 6, 20: 2, 26: 5, 27: 3, 8: 20}","[8, 20, 26, 27, 38]",820202265273386,Sr6Ca2Fe5Co3O20
Sr6Ca2Fe7CoO20,mp-1076884,0.20660000000000034,3.14631425,0.0238092548003479,"{38: 6, 20: 2, 26: 7, 27: 1, 8: 20}","[8, 20, 26, 27, 38]",820202267271386,Sr6Ca2Fe7Co1O20
Sr6Ca2Co5Cu3O20,mp-1076678,0.0,2.85933157,0.15752781023350249,"{38: 6, 20: 2, 27: 5, 29: 3, 8: 20}","[8, 20, 27, 29, 38]",820202275293386,Sr6Ca2Co5Cu3O20
Sr6Ca2Co7CuO20,mp-1076118,0.0,2.61803286,0.23030069572367573,"{38: 6, 20: 2, 27: 7, 29: 1, 8: 20}","[8, 20, 27, 29, 38]",820202277291386,Sr6Ca2Co7Cu1O20
Sr5Ca3TiMn7O20,mp-1076192,0.0,3.16333188,0.056757744149303235,"{38: 5, 20: 3, 22: 1, 25: 7, 8: 20}","[8, 20, 22, 25, 38]",820203221257385,Sr5Ca3Ti1Mn7O20
Sr5Ca3Ti3Mn5O20,mp-1099762,0.10950000000000015,3.34225621,0.06376732501736981,"{38: 5, 20: 3, 22: 3, 25: 5, 8: 20}","[8, 20, 22, 25, 38]",820203223255385,Sr5Ca3Ti3Mn5O20
Sr5Ca3Ti5Mn3O20,mp-1076557,0.0,5.32441824,0.09432133408524912,"{38: 5, 20: 3, 22: 5, 25: 3, 8: 20}","[8, 20, 22, 25, 38]",820203225253385,Sr5Ca3Ti5Mn3O20
Sr5Ca3MnFe7O20,mp-1076199,0.0,3.0364438,0.03132888666666478,"{38: 5, 20: 3, 25: 1, 26: 7, 8: 20}","[8, 20, 25, 26, 38]",820203251267385,Sr5Ca3Mn1Fe7O20
Sr5Ca3Mn4(FeO5)4,mp-1076141,0.0,3.11287516,0.06800521507811208,"{38: 5, 20: 3, 25: 4, 26: 4, 8: 20}","[8, 20, 25, 26, 38]",820203254264385,Sr5Ca3Mn4Fe4O20
Sr5Ca3Mn6(FeO10)2,mp-1076601,0.0,3.07242685,0.057008591701379174,"{38: 5, 20: 3, 25: 6, 26: 2, 8: 20}","[8, 20, 25, 26, 38]",820203256262385,Sr5Ca3Mn6Fe2O20
Sr5Ca3Mn7FeO20,mp-1099672,0.0,3.10958068,0.0525715349652609,"{38: 5, 20: 3, 25: 7, 26: 1, 8: 20}","[8, 20, 25, 26, 38]",820203257261385,Sr5Ca3Mn7Fe1O20
Sr5Ca3FeCo7O20,mp-1099816,0.0,2.57892007,0.031616964312491724,"{38: 5, 20: 3, 26: 1, 27: 7, 8: 20}","[8, 20, 26, 27, 38]",820203261277385,Sr5Ca3Fe1Co7O20
Sr5Ca3Fe2(Co3O10)2,mp-1099798,0.0,2.55468573,0.03820723828473849,"{38: 5, 20: 3, 26: 2, 27: 6, 8: 20}","[8, 20, 26, 27, 38]",820203262276385,Sr5Ca3Fe2Co6O20
Sr5Ca3Fe4(CoO5)4,mp-1076428,0.0,2.57171244,0.04666821355034578,"{38: 5, 20: 3, 26: 4, 27: 4, 8: 20}","[8, 20, 26, 27, 38]",820203264274385,Sr5Ca3Fe4Co4O20
Sr5Ca3Fe7CoO20,mp-1076516,0.39480000000000004,3.33740271,0.027270371666689996,"{38: 5, 20: 3, 26: 7, 27: 1, 8: 20}","[8, 20, 26, 27, 38]",820203267271385,Sr5Ca3Fe7Co1O20
Sr4Ca4TiMn7O20,mp-1099799,0.0,3.214458,0.06411885050347532,"{38: 4, 20: 4, 22: 1, 25: 7, 8: 20}","[8, 20, 22, 25, 38]",820204221257384,Sr4Ca4Ti1Mn7O20
Sr4Ca4Mn5Fe3O20,mp-1076190,0.0,3.08868362,0.06987130743055037,"{38: 4, 20: 4, 25: 5, 26: 3, 8: 20}","[8, 20, 25, 26, 38]",820204255263384,Sr4Ca4Mn5Fe3O20
Sr4Ca4Mn7FeO20,mp-1076163,0.0,3.1594593,0.05951433798608452,"{38: 4, 20: 4, 25: 7, 26: 1, 8: 20}","[8, 20, 25, 26, 38]",820204257261384,Sr4Ca4Mn7Fe1O20
Sr4Ca4FeCo7O20,mp-1100009,0.0,2.61984179,0.035494614611120134,"{38: 4, 20: 4, 26: 1, 27: 7, 8: 20}","[8, 20, 26, 27, 38]",820204261277384,Sr4Ca4Fe1Co7O20
Sr4Ca4Fe3(CoO4)5,mp-1076502,0.0,2.82030841,0.047937016305522384,"{38: 4, 20: 4, 26: 3, 27: 5, 8: 20}","[8, 20, 26, 27, 38]",820204263275384,Sr4Ca4Fe3Co5O20
Sr4Ca4Co7CuO20,mp-1076175,0.0,2.837186,0.23177894092401008,"{38: 4, 20: 4, 27: 7, 29: 1, 8: 20}","[8, 20, 27, 29, 38]",820204277291384,Sr4Ca4Co7Cu1O20
Sr3Ca5TiMn7O20,mp-1077695,0.0,3.29995292,0.06832590581596598,"{38: 3, 20: 5, 22: 1, 25: 7, 8: 20}","[8, 20, 22, 25, 38]",820205221257383,Sr3Ca5Ti1Mn7O20
Sr3Ca5Ti3Mn5O20,mp-1076134,0.007500000000000284,3.29984202,0.06968282374999468,"{38: 3, 20: 5, 22: 3, 25: 5, 8: 20}","[8, 20, 22, 25, 38]",820205223255383,Sr3Ca5Ti3Mn5O20
Sr3Ca5Mn3(FeO4)5,mp-1076482,0.0,3.23065184,0.07350292857637886,"{38: 3, 20: 5, 25: 3, 26: 5, 8: 20}","[8, 20, 25, 26, 38]",820205253265383,Sr3Ca5Mn3Fe5O20
Sr3Ca5Mn4(FeO5)4,mp-1076450,0.0,3.1882334,0.08501953114582594,"{38: 3, 20: 5, 25: 4, 26: 4, 8: 20}","[8, 20, 25, 26, 38]",820205254264383,Sr3Ca5Mn4Fe4O20
Sr3Ca5Mn7FeO20,mp-1076750,0.0,3.21800379,0.0661767278124854,"{38: 3, 20: 5, 25: 7, 26: 1, 8: 20}","[8, 20, 25, 26, 38]",820205257261383,Sr3Ca5Mn7Fe1O20
Sr3Ca5Mn8O20,mp-1247665,0.0242,3.00495285,0.10826819413193256,"{38: 3, 20: 5, 25: 8, 8: 20}","[8, 20, 25, 38]",820205258383,Sr3Ca5Mn8O20
Sr3Ca5FeCo7O20,mp-1076479,0.0,2.67644709,0.04016974142361196,"{38: 3, 20: 5, 26: 1, 27: 7, 8: 20}","[8, 20, 26, 27, 38]",820205261277383,Sr3Ca5Fe1Co7O20
Sr3Ca5Fe4(CoO5)4,mp-1099708,0.008300000000000196,2.65398912,0.05531916786802338,"{38: 3, 20: 5, 26: 4, 27: 4, 8: 20}","[8, 20, 26, 27, 38]",820205264274383,Sr3Ca5Fe4Co4O20
Sr3Ca5Fe5Co3O20,mp-1076614,0.0,2.76237309,0.05520442982638585,"{38: 3, 20: 5, 26: 5, 27: 3, 8: 20}","[8, 20, 26, 27, 38]",820205265273383,Sr3Ca5Fe5Co3O20
Sr2Ca6TiMn7O20,mp-1076877,0.0,3.23518881,0.07130687362848054,"{38: 2, 20: 6, 22: 1, 25: 7, 8: 20}","[8, 20, 22, 25, 38]",820206221257382,Sr2Ca6Ti1Mn7O20
Sr2Ca6Mn5Fe3O20,mp-1076862,0.0,3.20916427,0.09401662631943175,"{38: 2, 20: 6, 25: 5, 26: 3, 8: 20}","[8, 20, 25, 26, 38]",820206255263382,Sr2Ca6Mn5Fe3O20
Sr2Ca6Mn7FeO20,mp-1099810,0.0,3.27415167,0.07158723006944268,"{38: 2, 20: 6, 25: 7, 26: 1, 8: 20}","[8, 20, 25, 26, 38]",820206257261382,Sr2Ca6Mn7Fe1O20
Sr2Ca6FeCo7O20,mp-1099653,0.0405000000000002,2.75745586,0.04551016252314355,"{38: 2, 20: 6, 26: 1, 27: 7, 8: 20}","[8, 20, 26, 27, 38]",820206261277382,Sr2Ca6Fe1Co7O20
Sr2Ca6Fe3(CoO4)5,mp-1076198,0.0,2.79767851,0.05394270891203323,"{38: 2, 20: 6, 26: 3, 27: 5, 8: 20}","[8, 20, 26, 27, 38]",820206263275382,Sr2Ca6Fe3Co5O20
Sr2Ca6Co7CuO20,mp-1076470,0.0,2.75868747,0.22484371071471987,"{38: 2, 20: 6, 27: 7, 29: 1, 8: 20}","[8, 20, 27, 29, 38]",820206277291382,Sr2Ca6Co7Cu1O20
SrCa7TiMn7O20,mp-1077688,0.0,3.28191739,0.07410834423611057,"{38: 1, 20: 7, 22: 1, 25: 7, 8: 20}","[8, 20, 22, 25, 38]",820207221257381,Sr1Ca7Ti1Mn7O20
SrCa7Ti2Mn6O20,mp-1247576,0.0,3.53987348,0.08941351201389924,"{38: 1, 20: 7, 22: 2, 25: 6, 8: 20}","[8, 20, 22, 25, 38]",820207222256381,Sr1Ca7Ti2Mn6O20
SrCa7Ti3Mn5O20,mp-1247600,0.4525000000000001,3.51643586,0.10220511611112748,"{38: 1, 20: 7, 22: 3, 25: 5, 8: 20}","[8, 20, 22, 25, 38]",820207223255381,Sr1Ca7Ti3Mn5O20
SrCa7Mn7CrO20,mp-1247650,0.19890000000000008,3.08633123,0.12543353288193693,"{38: 1, 20: 7, 25: 7, 24: 1, 8: 20}","[8, 20, 24, 25, 38]",820207241257381,Sr1Ca7Mn7Cr1O20
SrCa7Mn6Cr2O20,mp-1247701,0.3769999999999998,3.05808609,0.14492668697916677,"{38: 1, 20: 7, 25: 6, 24: 2, 8: 20}","[8, 20, 24, 25, 38]",820207242256381,Sr1Ca7Mn6Cr2O20
SrCa7Mn6(FeO10)2,mp-1077691,0.0,3.340319,0.08196619315972331,"{38: 1, 20: 7, 25: 6, 26: 2, 8: 20}","[8, 20, 25, 26, 38]",820207256262381,Sr1Ca7Mn6Fe2O20
SrCa7Mn7FeO20,mp-1076449,0.0,3.33898817,0.07535833732638242,"{38: 1, 20: 7, 25: 7, 26: 1, 8: 20}","[8, 20, 25, 26, 38]",820207257261381,Sr1Ca7Mn7Fe1O20
SrCa7Mn8O20,mp-1247682,0.09099999999999975,2.99395868,0.10879418482638226,"{38: 1, 20: 7, 25: 8, 8: 20}","[8, 20, 25, 38]",820207258381,Sr1Ca7Mn8O20
SrCa7FeCo7O20,mp-1099847,0.0,2.85549113,0.04277599369213014,"{38: 1, 20: 7, 26: 1, 27: 7, 8: 20}","[8, 20, 26, 27, 38]",820207261277381,Sr1Ca7Fe1Co7O20
SrCa7Fe2(Co3O10)2,mp-1099745,0.0,2.83064724,0.04816258251157546,"{38: 1, 20: 7, 26: 2, 27: 6, 8: 20}","[8, 20, 26, 27, 38]",820207262276381,Sr1Ca7Fe2Co6O20
SrTi11O20,mp-28740,0.0,5.87369641,0.0,"{38: 1, 22: 11, 8: 20}","[8, 22, 38]",8202211381,Sr1Ti11O20
Sr3Ti(GaO2)10,mp-1218603,2.6334,1.26061775,0.02000923518382436,"{38: 3, 22: 1, 31: 10, 8: 20}","[8, 22, 31, 38]",8202213110383,Sr3Ti1Ga10O20
Sr10Ti(RuO5)4,mp-1218896,0.0,4.02479099,0.002625643714283754,"{38: 10, 22: 1, 44: 4, 8: 20}","[8, 22, 38, 44]",8202213810444,Sr10Ti1Ru4O20
Sr6La3Ti3Cu3O20,mp-1173245,0.0,4.82543055,0.035560613071405456,"{38: 6, 57: 3, 22: 3, 29: 3, 8: 20}","[8, 22, 29, 38, 57]",820223293386573,Sr6La3Ti3Cu3O20
Sr3Ti3(Ga2O5)4,mp-1208750,0.0,4.5023384,0.03750835886029069,"{38: 3, 22: 3, 31: 8, 8: 20}","[8, 22, 31, 38]",820223318383,Sr3Ti3Ga8O20
BaSr7Ti5Mn3O20,mp-1076493,0.0,5.0868058,0.09438856234914361,"{56: 1, 38: 7, 22: 5, 25: 3, 8: 20}","[8, 22, 25, 38, 56]",820225253387561,Ba1Sr7Ti5Mn3O20
BaSr7Ti6Mn2O20,mp-1076196,0.0,5.12402424,0.14294141573994246,"{56: 1, 38: 7, 22: 6, 25: 2, 8: 20}","[8, 22, 25, 38, 56]",820226252387561,Ba1Sr7Ti6Mn2O20
Ba3Sr5Ti7MnO20,mp-1076186,0.0,5.17324056,0.12145043276620449,"{56: 3, 38: 5, 22: 7, 25: 1, 8: 20}","[8, 22, 25, 38, 56]",820227251385563,Ba3Sr5Ti7Mn1O20
BaSr7Ti7MnO20,mp-1076193,0.0,5.202707,0.11185182901620827,"{56: 1, 38: 7, 22: 7, 25: 1, 8: 20}","[8, 22, 25, 38, 56]",820227251387561,Ba1Sr7Ti7Mn1O20
Ba3Sr5Ti8O20,mp-1099792,0.0,5.2045228,0.07849264710650061,"{56: 3, 38: 5, 22: 8, 8: 20}","[8, 22, 38, 56]",820228385563,Ba3Sr5Ti8O20
BaSr7Ti8O20,mp-1099682,0.0,5.21291466,0.06960952953706112,"{56: 1, 38: 7, 22: 8, 8: 20}","[8, 22, 38, 56]",820228387561,Ba1Sr7Ti8O20
SrV4(Bi3O10)2,mp-553895,2.8919999999999995,2.35366234,0.0,"{38: 1, 23: 4, 83: 6, 8: 20}","[8, 23, 38, 83]",820234381836,Sr1V4Bi6O20
Sr8Tl3Cr(CuO5)4,mp-559339,0.0,3.36082275,0.1709095313541571,"{38: 8, 81: 3, 24: 1, 29: 4, 8: 20}","[8, 24, 29, 38, 81]",820241294388813,Sr8Tl3Cr1Cu4O20
BaSr7MnFe7O20,mp-1076473,0.0,2.86496926,0.02111859852776643,"{56: 1, 38: 7, 25: 1, 26: 7, 8: 20}","[8, 25, 26, 38, 56]",820251267387561,Ba1Sr7Mn1Fe7O20
Sr8MnFe7O20,mp-1076409,0.0,2.92039945,0.013614986901044901,"{38: 8, 25: 1, 26: 7, 8: 20}","[8, 25, 26, 38]",820251267388,Sr8Mn1Fe7O20
Sr10Mn(RuO5)4,mp-1218911,0.0,3.74007589,0.011909252285711602,"{38: 10, 25: 1, 44: 4, 8: 20}","[8, 25, 38, 44]",8202513810444,Sr10Mn1Ru4O20
BaSr7Mn2(Fe3O10)2,mp-1076181,0.0,2.87276296,0.0311100091666745,"{56: 1, 38: 7, 25: 2, 26: 6, 8: 20}","[8, 25, 26, 38, 56]",820252266387561,Ba1Sr7Mn2Fe6O20
Sr6Nd4Mn3(RhO10)2,mp-1173199,0.0,2.78300039,0.5807377063928598,"{38: 6, 60: 4, 25: 3, 45: 2, 8: 20}","[8, 25, 38, 45, 60]",820253386452604,Sr6Nd4Mn3Rh2O20
Sr7Mn7O20,mp-1218659,0.0,2.82442446,0.02628657613973928,"{38: 7, 25: 7, 8: 20}","[8, 25, 38]",820257387,Sr7Mn7O20
Sr2La6FeCu7O20,mp-1173271,0.0,6.59730687,0.019735183194437234,"{38: 2, 57: 6, 26: 1, 29: 7, 8: 20}","[8, 26, 29, 38, 57]",820261297382576,Sr2La6Fe1Cu7O20
BaSr7Fe6(CoO10)2,mp-1099862,0.0,2.43752957,0.0249247161457804,"{56: 1, 38: 7, 26: 6, 27: 2, 8: 20}","[8, 26, 27, 38, 56]",820266272387561,Ba1Sr7Fe6Co2O20
BaSr7Fe7CoO20,mp-1076892,0.0,2.39809023,0.7007503029079398,"{56: 1, 38: 7, 26: 7, 27: 1, 8: 20}","[8, 26, 27, 38, 56]",820267271387561,Ba1Sr7Fe7Co1O20
Sr8Fe7CoO20,mp-1076165,0.0,2.66469469,0.732896336553833,"{38: 8, 26: 7, 27: 1, 8: 20}","[8, 26, 27, 38]",820267271388,Sr8Fe7Co1O20
BaSr7(Fe2O5)4,mp-1076090,0.7341000000000002,3.02831526,0.008373284272069625,"{56: 1, 38: 7, 26: 8, 8: 20}","[8, 26, 38, 56]",820268387561,Ba1Sr7Fe8O20
Ba6Sr2CoCu7O20,mp-1076296,0.0,2.40936241,0.12895744982635549,"{56: 6, 38: 2, 27: 1, 29: 7, 8: 20}","[8, 27, 29, 38, 56]",820271297382566,Ba6Sr2Co1Cu7O20
Ba4Sr4Co3(CuO4)5,mp-1076896,0.005300000000000082,2.50231841,0.1777484626465906,"{56: 4, 38: 4, 27: 3, 29: 5, 8: 20}","[8, 27, 29, 38, 56]",820273295384564,Ba4Sr4Co3Cu5O20
Ba3Sr5Co3(CuO4)5,mp-1076881,0.0,2.40252594,0.19295242496138787,"{56: 3, 38: 5, 27: 3, 29: 5, 8: 20}","[8, 27, 29, 38, 56]",820273295385563,Ba3Sr5Co3Cu5O20
Ba2Sr6Co3(CuO4)5,mp-1099742,0.047699999999999854,2.46852338,0.1643193465833308,"{56: 2, 38: 6, 27: 3, 29: 5, 8: 20}","[8, 27, 29, 38, 56]",820273295386562,Ba2Sr6Co3Cu5O20
Ba3Sr5Co4(CuO5)4,mp-1076683,0.0,2.66174104,0.10191816196758197,"{56: 3, 38: 5, 27: 4, 29: 4, 8: 20}","[8, 27, 29, 38, 56]",820274294385563,Ba3Sr5Co4Cu4O20
BaSr7Co4(CuO5)4,mp-1099990,0.0,2.65747364,0.08665049113890522,"{56: 1, 38: 7, 27: 4, 29: 4, 8: 20}","[8, 27, 29, 38, 56]",820274294387561,Ba1Sr7Co4Cu4O20
Ba2Sr6Co5Cu3O20,mp-1076893,0.0026999999999999247,2.39708391,0.12021060501895153,"{56: 2, 38: 6, 27: 5, 29: 3, 8: 20}","[8, 27, 29, 38, 56]",820275293386562,Ba2Sr6Co5Cu3O20
BaSr7Co5Cu3O20,mp-1100068,0.0,2.48514502,0.2282580200757458,"{56: 1, 38: 7, 27: 5, 29: 3, 8: 20}","[8, 27, 29, 38, 56]",820275293387561,Ba1Sr7Co5Cu3O20
Sr10Cu(RuO5)4,mp-1173638,0.0,3.78898226,0.014828518857166628,"{38: 10, 29: 1, 44: 4, 8: 20}","[8, 29, 38, 44]",8202913810444,Sr10Cu1Ru4O20
Ba3SrY8(CuO5)4,mp-1228408,0.27200000000000024,3.9820503,0.04464505638888561,"{56: 3, 38: 1, 39: 8, 29: 4, 8: 20}","[8, 29, 38, 39, 56]",820294381398563,Ba3Sr1Y8Cu4O20
Sr4CeY3Cu4(RuO10)2,mp-1218787,0.0,3.9981661,0.05737353970589343,"{38: 4, 58: 1, 39: 3, 29: 4, 44: 2, 8: 20}","[8, 29, 38, 39, 44, 58]",820294384393442581,Sr4Ce1Y3Cu4Ru2O20
Sr4CePr3Nb2(CuO5)4,mp-1218619,0.0,3.46361453,0.04119350941176414,"{38: 4, 58: 1, 59: 3, 41: 2, 29: 4, 8: 20}","[8, 29, 38, 41, 58, 59]",820294384412581593,Sr4Ce1Pr3Nb2Cu4O20
Sr4CeNd3Nb2(CuO5)4,mp-1218607,0.0,3.54829277,0.04113706595587896,"{38: 4, 58: 1, 60: 3, 41: 2, 29: 4, 8: 20}","[8, 29, 38, 41, 58, 60]",820294384412581603,Sr4Ce1Nd3Nb2Cu4O20
Sr4CeSm3Nb2(CuO5)4,mp-1218622,0.0,3.518279,0.04458527518382205,"{38: 4, 58: 1, 62: 3, 41: 2, 29: 4, 8: 20}","[8, 29, 38, 41, 58, 62]",820294384412581623,Sr4Ce1Sm3Nb2Cu4O20
Ba7Sr(Cu2O5)4,mp-1099795,0.0,2.03668057,0.10566843890622124,"{56: 7, 38: 1, 29: 8, 8: 20}","[8, 29, 38, 56]",820298381567,Ba7Sr1Cu8O20
Sr6La4Zn3(RuO10)2,mp-1173198,0.6715,4.19091534,0.03058851757142822,"{38: 6, 57: 4, 30: 3, 44: 2, 8: 20}","[8, 30, 38, 44, 57]",820303386442574,Sr6La4Zn3Ru2O20
Sr2LaGa11O20,mp-1218805,2.6569000000000003,1.67491153,0.015024177524507465,"{38: 2, 57: 1, 31: 11, 8: 20}","[8, 31, 38, 57]",8203111382571,Sr2La1Ga11O20
SrU2(AsO10)2,mp-1198396,0.0,0.27715975,0.4861001113999972,"{38: 1, 92: 2, 33: 2, 8: 20}","[8, 33, 38, 92]",820332381922,Sr1U2As2O20
Sr5La3Mn8(O5F)4,mp-698712,0.0,4.73605739,0.1390574888472429,"{38: 5, 57: 3, 25: 8, 8: 20, 9: 4}","[8, 9, 25, 38, 57]",82094258385573,Sr5La3Mn8O20F4
K2Sr3Mn2(P2O7)3,mp-561223,0.4074,3.03585024,0.00014983882352392897,"{19: 2, 38: 3, 25: 2, 15: 6, 8: 21}","[8, 15, 19, 25, 38]",821156192252383,K2Sr3Mn2P6O21
Sr6CaY2Ga3(Cu2O7)3,mp-1218712,0.0,2.99558877,0.01887246423611888,"{38: 6, 20: 1, 39: 2, 31: 3, 29: 6, 8: 21}","[8, 20, 29, 31, 38, 39]",821201296313386392,Sr6Ca1Y2Ga3Cu6O21
Sr3Ca5Mn8O21,mp-1247709,0.0,3.24577807,0.09711192052444861,"{38: 3, 20: 5, 25: 8, 8: 21}","[8, 20, 25, 38]",821205258383,Sr3Ca5Mn8O21
Sr2Ca6Mn8O21,mp-1247589,0.0,3.10111072,0.09506942245173189,"{38: 2, 20: 6, 25: 8, 8: 21}","[8, 20, 25, 38]",821206258382,Sr2Ca6Mn8O21
SrCa7TiMn7O21,mp-1247574,0.0,3.26600123,0.08523837389638977,"{38: 1, 20: 7, 22: 1, 25: 7, 8: 21}","[8, 20, 22, 25, 38]",821207221257381,Sr1Ca7Ti1Mn7O21
SrCa7Ti2Mn6O21,mp-1247570,0.07809999999999961,3.37569768,0.09522150804054696,"{38: 1, 20: 7, 22: 2, 25: 6, 8: 21}","[8, 20, 22, 25, 38]",821207222256381,Sr1Ca7Ti2Mn6O21
SrCa7Ti3Mn5O21,mp-1247645,0.2710999999999997,3.49225376,0.08936815587838787,"{38: 1, 20: 7, 22: 3, 25: 5, 8: 21}","[8, 20, 22, 25, 38]",821207223255381,Sr1Ca7Ti3Mn5O21
SrCa7Mn7CrO21,mp-1247578,0.0,3.29395678,0.09548875883847252,"{38: 1, 20: 7, 25: 7, 24: 1, 8: 21}","[8, 20, 24, 25, 38]",821207241257381,Sr1Ca7Mn7Cr1O21
SrCa7Mn6Cr2O21,mp-1247588,0.0,3.17637013,0.12144739140604166,"{38: 1, 20: 7, 25: 6, 24: 2, 8: 21}","[8, 20, 24, 25, 38]",821207242256381,Sr1Ca7Mn6Cr2O21
SrCa7Mn8O21,mp-1247723,0.0,3.26635737,0.09254719451414672,"{38: 1, 20: 7, 25: 8, 8: 21}","[8, 20, 25, 38]",821207258381,Sr1Ca7Mn8O21
Sr2MgCuAg2(SO)2,mp-2240507,0.0,3.26189737,0.4276513643541682,"{38: 2, 12: 1, 29: 1, 47: 2, 16: 2, 8: 2}","[8, 12, 16, 29, 38, 47]",82121162291382472,Sr2Mg1Cu1Ag2S2O2
Sr2MgCu(ClO)2,mp-2227379,0.32949999999999946,3.82722657,0.7845154391666673,"{38: 2, 12: 1, 29: 1, 17: 2, 8: 2}","[8, 12, 17, 29, 38]",82121172291382,Sr2Mg1Cu1Cl2O2