formula,material_id,band_gap,efermi,energy_above_hull,comp_atoms,sorted_keys_comp_atoms,comp_number,new_formula
SrMn7N10,mp-1246259,0.0,3.69331302,0.09356126569444179,"{38: 1, 25: 7, 7: 10}","[7, 25, 38]",710257381,Sr1Mn7N10
SrCo7N10,mp-1247416,0.0,2.93537599,0.2819002669444366,"{38: 1, 27: 7, 7: 10}","[7, 27, 38]",710277381,Sr1Co7N10
Sr11(GeN5)2,mp-1245458,0.0,2.83637537,0.18385938920289835,"{38: 11, 32: 2, 7: 10}","[7, 32, 38]",7103223811,Sr11Ge2N10
SrGe7N10,mp-1247194,2.6242,2.529002,0.016438563784729077,"{38: 1, 32: 7, 7: 10}","[7, 32, 38]",710327381,Sr1Ge7N10
SrZr7N10,mp-1245834,0.8078000000000001,2.73670846,0.1244072072222302,"{38: 1, 40: 7, 7: 10}","[7, 38, 40]",710381407,Sr1Zr7N10
SrRu7N10,mp-1246545,0.0,4.48848859,0.29845110249999607,"{38: 1, 44: 7, 7: 10}","[7, 38, 44]",710381447,Sr1Ru7N10
SrSn7N10,mp-1247407,0.4615999999999998,4.46845499,0.23317272777777376,"{38: 1, 50: 7, 7: 10}","[7, 38, 50]",710381507,Sr1Sn7N10
SrHf7N10,mp-1246329,1.0346000000000002,3.28621459,0.14102544833334107,"{38: 1, 72: 7, 7: 10}","[7, 38, 72]",710381727,Sr1Hf7N10
SrRe7N10,mp-1246394,0.0,4.71760652,0.15512059285879687,"{38: 1, 75: 7, 7: 10}","[7, 38, 75]",710381757,Sr1Re7N10
SrOs7N10,mp-1247400,0.0,4.8953807,0.4208169030555524,"{38: 1, 76: 7, 7: 10}","[7, 38, 76]",710381767,Sr1Os7N10
NaSrN,mp-1245463,0.23089999999999966,2.26784406,0.17155706198275844,"{11: 1, 38: 1, 7: 1}","[7, 11, 38]",71111381,Na1Sr1N1
Sr3PN,mp-1013554,0.5196999999999998,3.12298859,0.0,"{38: 3, 15: 1, 7: 1}","[7, 15, 38]",71151383,Sr3P1N1
Sr2NCl,mp-23033,1.9398000000000004,2.79250251,0.0,"{38: 2, 7: 1, 17: 1}","[7, 17, 38]",71171382,Sr2N1Cl1
KSrN,mp-1247049,0.0,0.79242148,0.33267703066666776,"{19: 1, 38: 1, 7: 1}","[7, 19, 38]",71191381,K1Sr1N1
BaSr2(PN2)6,mp-567486,4.1542,4.90520672,0.0,"{56: 1, 38: 2, 15: 6, 7: 12}","[7, 15, 38, 56]",712156382561,Ba1Sr2P6N12
Cs2SrN12,mp-621930,3.975,0.35429802,0.009009087999997334,"{55: 2, 38: 1, 7: 12}","[7, 38, 55]",712381552,Cs2Sr1N12
SrCuN,mp-21609,0.26449999999999996,3.81463053,0.0,"{38: 1, 29: 1, 7: 1}","[7, 29, 38]",71291381,Sr1Cu1N1
Sr2GaGeN,mp-867219,0.04029999999999978,2.978857,0.0,"{38: 2, 31: 1, 32: 1, 7: 1}","[7, 31, 32, 38]",71311321382,Sr2Ga1Ge1N1
Sr3AsN,mp-1013555,0.4218000000000002,3.07526231,0.0,"{38: 3, 33: 1, 7: 1}","[7, 33, 38]",71331383,Sr3As1N1
Sr2BrN,mp-23056,1.8455,2.55923509,0.0,"{38: 2, 35: 1, 7: 1}","[7, 35, 38]",71351382,Sr2Br1N1
SrN,mp-29973,0.0,2.54011029,0.0,"{38: 1, 7: 1}","[7, 38]",71381,Sr1N1
BaSrN,mp-1227306,0.0,2.2805678,0.010092153333334686,"{56: 1, 38: 1, 7: 1}","[7, 38, 56]",71381561,Ba1Sr1N1
Sr2N,mp-1245,0.0,2.09264585,0.0,"{38: 2, 7: 1}","[7, 38]",71382,Sr2N1
Sr2IN,mp-569677,1.7923,3.25263171,0.0,"{38: 2, 53: 1, 7: 1}","[7, 38, 53]",71382531,Sr2I1N1
Sr2AuN,mp-30317,0.0,2.59722524,0.01527616587499736,"{38: 2, 79: 1, 7: 1}","[7, 38, 79]",71382791,Sr2Au1N1
Sr3SbN,mp-7752,0.2576999999999998,3.7761158,0.0,"{38: 3, 51: 1, 7: 1}","[7, 38, 51]",71383511,Sr3Sb1N1
Sr3BiN,mp-570008,0.2568999999999999,3.5836395,0.0,"{38: 3, 83: 1, 7: 1}","[7, 38, 83]",71383831,Sr3Bi1N1
Sr4In2N,mp-19915,0.0,3.5880441,0.0,"{38: 4, 49: 2, 7: 1}","[7, 38, 49]",71384492,Sr4In2N1
Ba7Sr5(MoN4)4,mp-1228681,2.0781,2.42995139,0.0,"{56: 7, 38: 5, 42: 4, 7: 16}","[7, 38, 42, 56]",716385424567,Ba7Sr5Mo4N16
SrP3NO12,mp-1204920,0.0,0.32215913,0.7777548937867573,"{38: 1, 15: 3, 7: 1, 8: 12}","[7, 8, 15, 38]",71812153381,Sr1P3N1O12
Sr6Sn2NO,mp-989540,0.0,3.33224449,0.0,"{38: 6, 50: 2, 7: 1, 8: 1}","[7, 8, 38, 50]",7181386502,Sr6Sn2N1O1
SrNbNO2,mp-1218149,0.0,3.99691593,0.06997556416667017,"{38: 1, 41: 1, 7: 1, 8: 2}","[7, 8, 38, 41]",7182381411,Sr1Nb1N1O2
SrTaNO2,mp-2583419,1.1168000000000005,3.95939353,0.0,"{38: 1, 73: 1, 7: 1, 8: 2}","[7, 8, 38, 73]",7182381731,Sr1Ta1N1O2
SrWNO2,mp-1217767,0.0,4.56195978,0.34549394399999933,"{38: 1, 74: 1, 7: 1, 8: 2}","[7, 8, 38, 74]",7182381741,Sr1W1N1O2
Sr2TaNO3,mp-1218704,0.7061999999999999,3.75788348,0.012410294285716716,"{38: 2, 73: 1, 7: 1, 8: 3}","[7, 8, 38, 73]",7183382731,Sr2Ta1N1O3
Sr2FeMoNO5,mp-1218838,1.2846999999999995,3.52341119,0.109123860500004,"{38: 2, 26: 1, 42: 1, 7: 1, 8: 5}","[7, 8, 26, 38, 42]",7185261382421,Sr2Fe1Mo1N1O5
SrBiNO5,mp-1218578,2.2375,3.9868605,0.0,"{38: 1, 83: 1, 7: 1, 8: 5}","[7, 8, 38, 83]",7185381831,Sr1Bi1N1O5
Sr2NO6,mp-1080076,0.2024,0.3067168,0.2530074116666654,"{38: 2, 7: 1, 8: 6}","[7, 8, 38]",7186382,Sr2N1O6
SrNb3NO7,mp-775922,1.6897,1.72670991,0.0822362837499977,"{38: 1, 41: 3, 7: 1, 8: 7}","[7, 8, 38, 41]",7187381413,Sr1Nb3N1O7
Sr2NF,mp-531195,1.2984,2.55281484,0.0,"{38: 2, 7: 1, 9: 1}","[7, 9, 38]",7191382,Sr2N1F1
Sr6In2NF,mp-989402,0.0,3.36809389,0.024934263426469983,"{38: 6, 49: 2, 7: 1, 9: 1}","[7, 9, 38, 49]",7191386492,Sr6In2N1F1
Sr6Sn2NF,mp-989592,0.0,3.98853474,0.0,"{38: 6, 50: 2, 7: 1, 9: 1}","[7, 9, 38, 50]",7191386502,Sr6Sn2N1F1
Sr2MgN2,mp-1246812,0.12040000000000006,2.42010314,0.12137479250000016,"{38: 2, 12: 1, 7: 2}","[7, 12, 38]",72121382,Sr2Mg1N2
SrMg2N2,mp-10550,1.6917,3.51948279,0.0,"{38: 1, 12: 2, 7: 2}","[7, 12, 38]",72122381,Sr1Mg2N2
Sr4BrN2Cl,mp-1218383,1.8982,2.64989203,0.000830634999999802,"{38: 4, 35: 1, 7: 2, 17: 1}","[7, 17, 35, 38]",72171351384,Sr4Br1N2Cl1
Sr3Ca(NCl)2,mp-1218385,2.0075000000000003,2.90121184,0.011980543749999129,"{38: 3, 20: 1, 7: 2, 17: 2}","[7, 17, 20, 38]",72172201383,Sr3Ca1N2Cl2
Sr(NCl2)2,mp-1218888,0.0,0.18135656,1.5725752971428548,"{38: 1, 7: 2, 17: 4}","[7, 17, 38]",72174381,Sr1N2Cl4
Sr2CaN2,mp-1245917,0.0,1.77241868,0.11101976383333678,"{38: 2, 20: 1, 7: 2}","[7, 20, 38]",72201382,Sr2Ca1N2
SrCa2N2,mp-1247470,0.0,3.13628649,0.22189993066666602,"{38: 1, 20: 2, 7: 2}","[7, 20, 38]",72202381,Sr1Ca2N2
SrCa3(BrN)2,mp-1218377,2.2318000000000002,2.86300076,0.012087778750000666,"{38: 1, 20: 3, 35: 2, 7: 2}","[7, 20, 35, 38]",72203352381,Sr1Ca3Br2N2
SrTiN2,mp-9517,0.7925999999999997,3.88282441,0.0,"{38: 1, 22: 1, 7: 2}","[7, 22, 38]",72221381,Sr1Ti1N2
SrVN2,mp-1246556,0.2572000000000001,4.78567126,0.07595435093750247,"{38: 1, 23: 1, 7: 2}","[7, 23, 38]",72231381,Sr1V1N2
Sr2VN2,mp-1246350,0.0,3.77637998,0.1720378643666649,"{38: 2, 23: 1, 7: 2}","[7, 23, 38]",72231382,Sr2V1N2
SrCrN2,mp-1029838,0.0,4.73668171,0.045709488437505996,"{38: 1, 24: 1, 7: 2}","[7, 24, 38]",72241381,Sr1Cr1N2
Sr2CrN2,mp-1245617,0.0,4.10463801,0.2079517956666681,"{38: 2, 24: 1, 7: 2}","[7, 24, 38]",72241382,Sr2Cr1N2
Sr(CrN)2,mp-1245923,0.0,6.46975131,0.26623090141667305,"{38: 1, 24: 2, 7: 2}","[7, 24, 38]",72242381,Sr1Cr2N2
SrMnN2,mp-1029878,0.0,4.62078211,0.0,"{38: 1, 25: 1, 7: 2}","[7, 25, 38]",72251381,Sr1Mn1N2
Sr2MnN2,mp-1246807,0.0,3.44506492,0.13338200330459848,"{38: 2, 25: 1, 7: 2}","[7, 25, 38]",72251382,Sr2Mn1N2
Sr(MnN)2,mp-1246080,0.0,5.45128801,0.20046663291379208,"{38: 1, 25: 2, 7: 2}","[7, 25, 38]",72252381,Sr1Mn2N2
Sr2FeN2,mp-28771,0.0,3.78838119,0.019037129800000052,"{38: 2, 26: 1, 7: 2}","[7, 26, 38]",72261382,Sr2Fe1N2
Sr(FeN)2,mp-1245611,0.0,5.50754497,0.18811955033334726,"{38: 1, 26: 2, 7: 2}","[7, 26, 38]",72262381,Sr1Fe2N2
SrCoN2,mp-1246343,0.0,3.93957357,0.07602617687500057,"{38: 1, 27: 1, 7: 2}","[7, 27, 38]",72271381,Sr1Co1N2
Sr2CoN2,mp-1246735,0.0,3.03575392,0.002216408499998046,"{38: 2, 27: 1, 7: 2}","[7, 27, 38]",72271382,Sr2Co1N2
Sr(CoN)2,mp-1246511,0.0,5.60443511,0.2211248159999979,"{38: 1, 27: 2, 7: 2}","[7, 27, 38]",72272381,Sr1Co2N2
Sr2CuN2,mp-1246496,0.0,2.85902633,0.04716537666666376,"{38: 2, 29: 1, 7: 2}","[7, 29, 38]",72291382,Sr2Cu1N2
Sr2ZnN2,mp-9306,0.7944999999999998,2.69200818,0.0,"{38: 2, 30: 1, 7: 2}","[7, 30, 38]",72301382,Sr2Zn1N2
Sr(ZnN)2,mp-1247004,0.44589999999999996,3.18143729,0.04821384376923277,"{38: 1, 30: 2, 7: 2}","[7, 30, 38]",72302381,Sr1Zn2N2
SrGeN2,mp-1029497,2.4540999999999995,3.31257229,0.0,"{38: 1, 32: 1, 7: 2}","[7, 32, 38]",72321381,Sr1Ge1N2
Sr2GeN2,mp-29089,0.05339999999999989,3.51465401,0.0,"{38: 2, 32: 1, 7: 2}","[7, 32, 38]",72321382,Sr2Ge1N2
Sr3(GeN)2,mp-29088,0.0,3.25788386,0.0,"{38: 3, 32: 2, 7: 2}","[7, 32, 38]",72322383,Sr3Ge2N2
Sr6Ge5N2,mp-601326,0.0,3.71353789,0.0,"{38: 6, 32: 5, 7: 2}","[7, 32, 38]",72325386,Sr6Ge5N2
Sr4IBrN2,mp-1218563,1.8079999999999998,4.61942119,0.0015302437499995492,"{38: 4, 53: 1, 35: 1, 7: 2}","[7, 35, 38, 53]",72351384531,Sr4I1Br1N2
SrN2,mp-10564,0.0,4.31079956,0.0,"{38: 1, 7: 2}","[7, 38]",72381,Sr1N2
SrZrN2,mp-1029275,1.2271999999999998,3.0463492,0.0,"{38: 1, 40: 1, 7: 2}","[7, 38, 40]",72381401,Sr1Zr1N2
SrRuN2,mp-1246744,0.0,4.77066282,0.15879215500000043,"{38: 1, 44: 1, 7: 2}","[7, 38, 44]",72381441,Sr1Ru1N2
SrRhN2,mp-1245966,0.035199999999999676,4.25818538,0.316815666250001,"{38: 1, 45: 1, 7: 2}","[7, 38, 45]",72381451,Sr1Rh1N2
SrSnN2,mp-1247246,1.0697000000000005,4.70432289,0.09877659354166468,"{38: 1, 50: 1, 7: 2}","[7, 38, 50]",72381501,Sr1Sn1N2
Ba2SrN2,mp-1247390,0.0,1.77646309,0.05258555366666773,"{56: 2, 38: 1, 7: 2}","[7, 38, 56]",72381562,Ba2Sr1N2
SrCeN2,mp-11178,1.2679999999999998,4.87763601,0.0,"{38: 1, 58: 1, 7: 2}","[7, 38, 58]",72381581,Sr1Ce1N2
SrHfN2,mp-1029396,1.5456999999999996,3.2848852,0.0,"{38: 1, 72: 1, 7: 2}","[7, 38, 72]",72381721,Sr1Hf1N2
SrReN2,mp-1245971,0.38729999999999976,5.5205625,0.07566590145834162,"{38: 1, 75: 1, 7: 2}","[7, 38, 75]",72381751,Sr1Re1N2
SrOsN2,mp-1247405,0.0,5.18292958,0.21016426749999795,"{38: 1, 76: 1, 7: 2}","[7, 38, 76]",72381761,Sr1Os1N2
SrIrN2,mp-1245854,0.038599999999999746,5.1049562,0.30178325812499907,"{38: 1, 77: 1, 7: 2}","[7, 38, 77]",72381771,Sr1Ir1N2
Sr(PbN)2,mp-1246885,0.26809999999999956,5.06288134,0.11612287199999471,"{38: 1, 82: 2, 7: 2}","[7, 38, 82]",72381822,Sr1Pb2N2
Sr2RuN2,mp-1245855,0.0,3.61468265,0.04714371666666217,"{38: 2, 44: 1, 7: 2}","[7, 38, 44]",72382441,Sr2Ru1N2
Sr2PdN2,mp-1246836,0.0,2.77297273,0.14198422199999783,"{38: 2, 46: 1, 7: 2}","[7, 38, 46]",72382461,Sr2Pd1N2
Sr2CdN2,mp-1247450,0.5562999999999998,2.32923552,0.07447234749999954,"{38: 2, 48: 1, 7: 2}","[7, 38, 48]",72382481,Sr2Cd1N2
Sr2InN2,mp-1247569,0.0,3.4591829,0.08620452399999934,"{38: 2, 49: 1, 7: 2}","[7, 38, 49]",72382491,Sr2In1N2
Sr2SnN2,mp-1245651,0.0,4.50989652,0.15154879100000151,"{38: 2, 50: 1, 7: 2}","[7, 38, 50]",72382501,Sr2Sn1N2
BaSr2N2,mp-1246150,0.0,1.87059813,0.134132431666667,"{56: 1, 38: 2, 7: 2}","[7, 38, 56]",72382561,Ba1Sr2N2
Sr2PtN2,mp-1247376,0.0,3.5069535,0.03735076150000083,"{38: 2, 78: 1, 7: 2}","[7, 38, 78]",72382781,Sr2Pt1N2
Sr2PbN2,mp-1246333,0.39250000000000007,3.67827716,0.13209957850000364,"{38: 2, 82: 1, 7: 2}","[7, 38, 82]",72382821,Sr2Pb1N2
Sr3N2,mp-986716,0.3481000000000001,2.1160501,0.031059600000000742,"{38: 3, 7: 2}","[7, 38]",72383,Sr3N2
Ba3Sr3(SbN)2,mp-1214517,0.6693000000000002,3.98303254,0.010450897000000126,"{56: 3, 38: 3, 51: 2, 7: 2}","[7, 38, 51, 56]",72383512563,Ba3Sr3Sb2N2
Ba3Sr3(BiN)2,mp-1214518,0.4442999999999997,3.60435498,0.009621437000000732,"{56: 3, 38: 3, 83: 2, 7: 2}","[7, 38, 56, 83]",72383563832,Ba3Sr3Bi2N2
Sr(NO5)2,mp-1179355,0.8941999999999999,-0.30046033,0.300889070384617,"{38: 1, 7: 2, 8: 10}","[7, 8, 38]",72810381,Sr1N2O10
Sr2MgTi6N2O11,mp-1233103,0.0,5.38201969,0.13467655181817761,"{38: 2, 12: 1, 22: 6, 7: 2, 8: 11}","[7, 8, 12, 22, 38]",72811121226382,Sr2Mg1Ti6N2O11
Sr2CaTi6N2O11,mp-1233964,0.0,5.62911403,0.15217792323863222,"{38: 2, 20: 1, 22: 6, 7: 2, 8: 11}","[7, 8, 20, 22, 38]",72811201226382,Sr2Ca1Ti6N2O11
Sr2Ti6N2O11,mp-755353,1.5979,3.08667806,0.027895463511899976,"{38: 2, 22: 6, 7: 2, 8: 11}","[7, 8, 22, 38]",72811226382,Sr2Ti6N2O11
SrP4(NO6)2,mp-1208624,0.0,-1.07424238,0.6733992285526496,"{38: 1, 15: 4, 7: 2, 8: 12}","[7, 8, 15, 38]",72812154381,Sr1P4N2O12
Sr2Nb(NO)2,mp-1208732,0.0,2.98585879,0.16354646880951584,"{38: 2, 41: 1, 7: 2, 8: 2}","[7, 8, 38, 41]",7282382411,Sr2Nb1N2O2
Sr(NO3)2,mp-4157,3.7142,-0.47649874,0.0,"{38: 1, 7: 2, 8: 6}","[7, 8, 38]",7286381,Sr1N2O6
Sr3ScN3,mp-1245891,0.3534999999999999,2.30141275,0.22881833214285763,"{38: 3, 21: 1, 7: 3}","[7, 21, 38]",73211383,Sr3Sc1N3
Sr3TiN3,mp-1245686,0.09410000000000007,2.83199519,0.1478011978571434,"{38: 3, 22: 1, 7: 3}","[7, 22, 38]",73221383,Sr3Ti1N3
Sr2VN3,mp-17012,1.5183999999999997,2.90078147,0.0,"{38: 2, 23: 1, 7: 3}","[7, 23, 38]",73231382,Sr2V1N3
Sr3VN3,mp-1246302,0.33729999999999993,3.10808137,0.06979974107142972,"{38: 3, 23: 1, 7: 3}","[7, 23, 38]",73231383,Sr3V1N3
Sr2CrN3,mp-1029923,0.0,4.69953047,0.0,"{38: 2, 24: 1, 7: 3}","[7, 24, 38]",73241382,Sr2Cr1N3
Sr3CrN3,mp-12906,0.0,3.78940145,0.0,"{38: 3, 24: 1, 7: 3}","[7, 24, 38]",73241383,Sr3Cr1N3
Sr3MnN3,mp-9325,0.0,3.76546089,0.0,"{38: 3, 25: 1, 7: 3}","[7, 25, 38]",73251383,Sr3Mn1N3
Sr3FeN3,mp-35644,0.0,3.60233232,0.016766070000000077,"{38: 3, 26: 1, 7: 3}","[7, 26, 38]",73261383,Sr3Fe1N3
Sr3CoN3,mp-1246731,0.0,3.59345491,0.007088450238093458,"{38: 3, 27: 1, 7: 3}","[7, 27, 38]",73271383,Sr3Co1N3
Sr3CuN3,mp-1246848,0.0,2.84282868,0.20149393785714587,"{38: 3, 29: 1, 7: 3}","[7, 29, 38]",73291383,Sr3Cu1N3
Sr3GaN3,mp-7191,0.5667000000000004,2.38766227,0.0,"{38: 3, 31: 1, 7: 3}","[7, 31, 38]",73311383,Sr3Ga1N3
Sr12Sn4N3,mp-1218874,0.0,2.97755022,0.0,"{38: 12, 50: 4, 7: 3}","[7, 38, 50]",733812504,Sr12Sn4N3
SrTcN3,mp-989627,1.5709000000000002,1.92692735,0.0,"{38: 1, 43: 1, 7: 3}","[7, 38, 43]",73381431,Sr1Tc1N3
SrWN3,mp-989625,0.7544,3.6304223,0.0,"{38: 1, 74: 1, 7: 3}","[7, 38, 74]",73381741,Sr1W1N3
SrReN3,mp-989623,1.9969000000000001,1.5328527,0.0,"{38: 1, 75: 1, 7: 3}","[7, 38, 75]",73381751,Sr1Re1N3
Sr2NbN3,mp-17701,2.0226,2.41507702,0.0,"{38: 2, 41: 1, 7: 3}","[7, 38, 41]",73382411,Sr2Nb1N3
Sr2MoN3,mp-1246574,0.0,5.1674537,0.052953390500001696,"{38: 2, 42: 1, 7: 3}","[7, 38, 42]",73382421,Sr2Mo1N3
Sr2RuN3,mp-1246460,0.0,4.49155103,0.06047790319444424,"{38: 2, 44: 1, 7: 3}","[7, 38, 44]",73382441,Sr2Ru1N3
Sr2SbN3,mp-1246679,1.2579000000000002,3.88741134,0.20270793758333294,"{38: 2, 51: 1, 7: 3}","[7, 38, 51]",73382511,Sr2Sb1N3
Sr2TaN3,mp-17518,2.4659999999999997,2.47908359,0.0,"{38: 2, 73: 1, 7: 3}","[7, 38, 73]",73382731,Sr2Ta1N3
Sr2ReN3,mp-1029872,0.0,4.95645915,0.0,"{38: 2, 75: 1, 7: 3}","[7, 38, 75]",73382751,Sr2Re1N3
Sr2IrN3,mp-1245704,0.0,4.53064686,0.18493511888888747,"{38: 2, 77: 1, 7: 3}","[7, 38, 77]",73382771,Sr2Ir1N3
Sr3YN3,mp-1245518,0.0,2.16102012,0.28737142642857094,"{38: 3, 39: 1, 7: 3}","[7, 38, 39]",73383391,Sr3Y1N3
Sr3ZrN3,mp-1245435,0.0,2.18688622,0.19922855285714292,"{38: 3, 40: 1, 7: 3}","[7, 38, 40]",73383401,Sr3Zr1N3
Sr3NbN3,mp-1245444,1.0305,2.60844726,0.06405793107142799,"{38: 3, 41: 1, 7: 3}","[7, 38, 41]",73383411,Sr3Nb1N3
Sr3MoN3,mp-1246448,0.13719999999999954,3.94334106,0.032328946071428,"{38: 3, 42: 1, 7: 3}","[7, 38, 42]",73383421,Sr3Mo1N3
Sr3RuN3,mp-1029750,0.0,3.90004678,0.0,"{38: 3, 44: 1, 7: 3}","[7, 38, 44]",73383441,Sr3Ru1N3
Sr3RhN3,mp-1245993,0.0,3.51748072,0.0,"{38: 3, 45: 1, 7: 3}","[7, 38, 45]",73383451,Sr3Rh1N3
Sr3InN3,mp-1245417,0.3495999999999997,2.96848677,0.07277459964285526,"{38: 3, 49: 1, 7: 3}","[7, 38, 49]",73383491,Sr3In1N3
Sr3SbN3,mp-1245436,0.0,4.2326341,0.3080869979591867,"{38: 3, 51: 1, 7: 3}","[7, 38, 51]",73383511,Sr3Sb1N3
Sr3TaN3,mp-1247449,1.1123000000000003,2.61211741,0.0837448340476179,"{38: 3, 73: 1, 7: 3}","[7, 38, 73]",73383731,Sr3Ta1N3
Sr3WN3,mp-1029655,0.0,3.91539931,0.0,"{38: 3, 74: 1, 7: 3}","[7, 38, 74]",73383741,Sr3W1N3
Sr3ReN3,mp-1029531,0.0,4.14586209,0.0,"{38: 3, 75: 1, 7: 3}","[7, 38, 75]",73383751,Sr3Re1N3
Sr3OsN3,mp-1029686,0.0,3.96117774,0.0,"{38: 3, 76: 1, 7: 3}","[7, 38, 76]",73383761,Sr3Os1N3
Sr3IrN3,mp-1029741,0.0,4.14833759,0.0,"{38: 3, 77: 1, 7: 3}","[7, 38, 77]",73383771,Sr3Ir1N3
Sr3AuN3,mp-1247095,0.0,2.73189879,0.35553561621428287,"{38: 3, 79: 1, 7: 3}","[7, 38, 79]",73383791,Sr3Au1N3
Sr3BiN3,mp-1246737,0.0,3.37383111,0.3969281750000029,"{38: 3, 83: 1, 7: 3}","[7, 38, 83]",73383831,Sr3Bi1N3
Sr4N3,mp-1173210,0.0,2.21293152,0.14591292714285942,"{38: 4, 7: 3}","[7, 38]",73384,Sr4N3
Sr4GaN3O,mp-555721,1.1305,3.05627441,0.07354024472222065,"{38: 4, 31: 1, 7: 3, 8: 1}","[7, 8, 31, 38]",7381311384,Sr4Ga1N3O1
SrLaTa2(NO)3,mp-694929,1.0135000000000005,5.70177746,0.020462722999859295,"{38: 1, 57: 1, 73: 2, 7: 3, 8: 3}","[7, 8, 38, 57, 73]",7383381571732,Sr1La1Ta2N3O3
Sr3MgGeN4,mp-567398,1.4132000000000002,3.17851389,0.0,"{38: 3, 12: 1, 32: 1, 7: 4}","[7, 12, 32, 38]",74121321383,Sr3Mg1Ge1N4
SrMg2(GaN2)2,mp-1218201,2.1264999999999996,5.64113069,0.0,"{38: 1, 12: 2, 31: 2, 7: 4}","[7, 12, 31, 38]",74122312381,Sr1Mg2Ga2N4
SrMg3GeN4,mp-1218193,1.8159,5.45958222,0.012231630740735966,"{38: 1, 12: 3, 32: 1, 7: 4}","[7, 12, 32, 38]",74123321381,Sr1Mg3Ge1N4
SrMg5N4,mp-1247268,0.015100000000000335,3.36097185,0.2352632703750004,"{38: 1, 12: 5, 7: 4}","[7, 12, 38]",74125381,Sr1Mg5N4
Sr(PN2)2,mp-645364,4.264099999999999,8.80705803,0.0,"{38: 1, 15: 2, 7: 4}","[7, 15, 38]",74152381,Sr1P2N4
SrCa2WN4,mp-567568,2.6190999999999995,2.54504209,0.0,"{38: 1, 20: 2, 74: 1, 7: 4}","[7, 20, 38, 74]",74202381741,Sr1Ca2W1N4
SrCa5N4,mp-1246052,0.4205000000000001,2.92608354,0.12117982408333638,"{38: 1, 20: 5, 7: 4}","[7, 20, 38]",74205381,Sr1Ca5N4
Sr3Sc2N4,mp-1246980,1.7146999999999997,4.37277934,0.1038036461111096,"{38: 3, 21: 2, 7: 4}","[7, 21, 38]",74212383,Sr3Sc2N4
Sr4TiN4,mp-1029799,1.0132999999999996,2.94891348,0.0,"{38: 4, 22: 1, 7: 4}","[7, 22, 38]",74221384,Sr4Ti1N4
Sr3(TiN2)2,mp-1247349,0.0,4.94288701,0.16718166787036814,"{38: 3, 22: 2, 7: 4}","[7, 22, 38]",74222383,Sr3Ti2N4
Sr4VN4,mp-1246089,0.09050000000000002,3.89527399,0.05437404972222204,"{38: 4, 23: 1, 7: 4}","[7, 23, 38]",74231384,Sr4V1N4
Sr(VN2)2,mp-1246716,1.7094999999999998,2.34861213,0.06600952783333369,"{38: 1, 23: 2, 7: 4}","[7, 23, 38]",74232381,Sr1V2N4
Sr3(VN2)2,mp-1247427,0.0,4.90591695,0.12794496198148053,"{38: 3, 23: 2, 7: 4}","[7, 23, 38]",74232383,Sr3V2N4
Sr3CrN4,mp-7214,1.5373,2.57513583,0.0,"{38: 3, 24: 1, 7: 4}","[7, 24, 38]",74241383,Sr3Cr1N4
Sr4CrN4,mp-1246666,0.984,2.7149185,0.07627368006944835,"{38: 4, 24: 1, 7: 4}","[7, 24, 38]",74241384,Sr4Cr1N4
Sr(CrN2)2,mp-1247099,0.0,3.79519038,0.05191577173808959,"{38: 1, 24: 2, 7: 4}","[7, 24, 38]",74242381,Sr1Cr2N4
Sr3(CrN2)2,mp-1246148,0.0,5.39663925,0.098718669074076,"{38: 3, 24: 2, 7: 4}","[7, 24, 38]",74242383,Sr3Cr2N4
Sr4MnN4,mp-1246888,0.0,3.21350628,0.012744317777776182,"{38: 4, 25: 1, 7: 4}","[7, 25, 38]",74251384,Sr4Mn1N4
Sr5MnN4,mp-1246260,0.04860000000000042,2.59233352,0.21979174187500128,"{38: 5, 25: 1, 7: 4}","[7, 25, 38]",74251385,Sr5Mn1N4
Sr3(MnN2)2,mp-1245964,0.0,4.86390858,0.061029154781055084,"{38: 3, 25: 2, 7: 4}","[7, 25, 38]",74252383,Sr3Mn2N4
Sr(MnN)4,mp-1246465,0.0,6.16401744,0.13618161351851477,"{38: 1, 25: 4, 7: 4}","[7, 25, 38]",74254381,Sr1Mn4N4
Sr5FeN4,mp-1245335,0.0,2.27988284,0.246177122499998,"{38: 5, 26: 1, 7: 4}","[7, 26, 38]",74261385,Sr5Fe1N4
Sr3(FeN2)2,mp-1247243,0.0,4.85751377,0.05042905974868184,"{38: 3, 26: 2, 7: 4}","[7, 26, 38]",74262383,Sr3Fe2N4
Sr5(FeN2)2,mp-1246863,0.02450000000000019,3.08494718,0.10645585318182071,"{38: 5, 26: 2, 7: 4}","[7, 26, 38]",74262385,Sr5Fe2N4
SrFe5N4,mp-1247553,0.0,5.39000834,0.27357523491666846,"{38: 1, 26: 5, 7: 4}","[7, 26, 38]",74265381,Sr1Fe5N4
Sr4CoN4,mp-1246061,0.0,3.9937749,0.15434689629629617,"{38: 4, 27: 1, 7: 4}","[7, 27, 38]",74271384,Sr4Co1N4
Sr3(CoN2)2,mp-1246557,0.0,4.60647342,0.11781497944444119,"{38: 3, 27: 2, 7: 4}","[7, 27, 38]",74272383,Sr3Co2N4
Sr5(CoN2)2,mp-1195596,0.20750000000000002,2.83115387,0.0,"{38: 5, 27: 2, 7: 4}","[7, 27, 38]",74272385,Sr5Co2N4
Sr5ZnN4,mp-1245409,0.0,2.40389452,0.22065708212499935,"{38: 5, 30: 1, 7: 4}","[7, 30, 38]",74301385,Sr5Zn1N4
Sr3(GaN2)2,mp-16945,1.5856000000000003,2.96503237,0.0,"{38: 3, 31: 2, 7: 4}","[7, 31, 38]",74312383,Sr3Ga2N4
Sr4GeN4,mp-1246370,0.9788000000000001,2.84617842,0.01417211129629603,"{38: 4, 32: 1, 7: 4}","[7, 32, 38]",74321384,Sr4Ge1N4
Sr3(GeN2)2,mp-1246434,0.9788000000000006,4.35028335,0.22182385631944523,"{38: 3, 32: 2, 7: 4}","[7, 32, 38]",74322383,Sr3Ge2N4
Sr(SbN2)2,mp-1246405,1.1401999999999997,4.1573464,0.38400161053571225,"{38: 1, 51: 2, 7: 4}","[7, 38, 51]",74381512,Sr1Sb2N4
Sr3Y2N4,mp-1247263,0.3239000000000001,2.50993834,0.15020321722222185,"{38: 3, 39: 2, 7: 4}","[7, 38, 39]",74383392,Sr3Y2N4