formula,material_id,band_gap,efermi,energy_above_hull,comp_atoms,sorted_keys_comp_atoms,comp_number,new_formula
Sr(TmS2)2,mp-1194307,1.8435000000000001,2.82094889,0.0,"{38: 1, 69: 2, 16: 4}","[16, 38, 69]",164381692,Sr1Tm2S4
Sr(LuS2)2,mp-1192751,1.8411000000000004,2.86727223,0.0,"{38: 1, 71: 2, 16: 4}","[16, 38, 71]",164381712,Sr1Lu2S4
SrPb3S4,mp-1218031,0.9832000000000001,4.53945213,0.00629024374999787,"{38: 1, 82: 3, 16: 4}","[16, 38, 82]",164381823,Sr1Pb3S4
Sr(BiS2)2,mp-1197827,1.0604999999999998,3.68104191,0.0,"{38: 1, 83: 2, 16: 4}","[16, 38, 83]",164381832,Sr1Bi2S4
Sr2SnS4,mp-30294,2.4784000000000006,2.28498247,0.0,"{38: 2, 50: 1, 16: 4}","[16, 38, 50]",164382501,Sr2Sn1S4
Sr3PbS4,mp-1218560,2.2159,2.9070907,0.0,"{38: 3, 82: 1, 16: 4}","[16, 38, 82]",164383821,Sr3Pb1S4
Sr2UCu2S5,mp-1078269,0.0,5.920066,0.0,"{38: 2, 92: 1, 29: 2, 16: 5}","[16, 29, 38, 92]",165292382921,Sr2U1Cu2S5
Sr2Ga2S5,mp-14680,2.5153,2.36953091,0.012408992916664197,"{38: 2, 31: 2, 16: 5}","[16, 31, 38]",165312382,Sr2Ga2S5
SrCd4S5,mp-1217998,0.9022999999999999,2.54285471,0.1427044659999983,"{38: 1, 48: 4, 16: 5}","[16, 38, 48]",165381484,Sr1Cd4S5
SrU2S5,mp-1195141,0.0,7.12822066,0.0,"{38: 1, 92: 2, 16: 5}","[16, 38, 92]",165381922,Sr1U2S5
Sr2SnS5,mp-1218773,1.0054999999999996,4.51765985,0.0,"{38: 2, 50: 1, 16: 5}","[16, 38, 50]",165382501,Sr2Sn1S5
Sr3Sn2S7,mp-1208730,0.40200000000000014,3.7282501,0.007990279999988914,"{38: 3, 50: 2, 16: 7}","[16, 38, 50]",167383502,Sr3Sn2S7
SrH6Cl2O11,mp-1205011,5.314500000000001,-1.081895,0.0,"{38: 1, 1: 6, 17: 2, 8: 11}","[1, 8, 17, 38]",16811172381,Sr1H6Cl2O11
RbSrP3(HO2)6,mp-734123,5.3296,-0.85790792,0.02694573086956087,"{37: 1, 38: 1, 15: 3, 1: 6, 8: 12}","[1, 8, 15, 37, 38]",16812153371381,Rb1Sr1P3H6O12
Sr10Sb16H6Se7O30,mp-1199546,2.0038000000000005,2.7575911,0.0,"{38: 10, 51: 16, 1: 6, 34: 7, 8: 30}","[1, 8, 34, 38, 51]",1683034738105116,Sr10Sb16H6Se7O30
Sr(Mo3S4)2,mp-8736,0.0,5.47441063,0.0,"{38: 1, 42: 6, 16: 8}","[16, 38, 42]",168381426,Sr1Mo6S8
SrNd5S8,mp-34680,0.0,6.18340716,0.021379400357147915,"{38: 1, 60: 5, 16: 8}","[16, 38, 60]",168381605,Sr1Nd5S8
SrCuH6O5,mp-555369,0.6523000000000001,1.09935931,0.01493331461538805,"{38: 1, 29: 1, 1: 6, 8: 5}","[1, 8, 29, 38]",1685291381,Sr1Cu1H6O5
SrZnH6O5,mp-707866,3.6372,-0.97829345,0.0,"{38: 1, 30: 1, 1: 6, 8: 5}","[1, 8, 30, 38]",1685301381,Sr1Zn1H6O5
Sr2Cu(HO)6,mp-1194283,0.9971000000000001,1.83279076,0.007936159500004258,"{38: 2, 29: 1, 1: 6, 8: 6}","[1, 8, 29, 38]",1686291382,Sr2Cu1H6O6
Sr2Zn(HO)6,mp-723483,2.6375,0.20277328,0.601224371166662,"{38: 2, 30: 1, 1: 6, 8: 6}","[1, 8, 30, 38]",1686301382,Sr2Zn1H6O6
SrSn(HO)6,mp-1194672,3.7164999999999995,4.13734957,0.0,"{38: 1, 50: 1, 1: 6, 8: 6}","[1, 8, 38, 50]",1686381501,Sr1Sn1H6O6
Sr5V3H6(O3F8)2,mp-1198080,2.9173,0.29882173,0.019848344097208148,"{38: 5, 23: 3, 1: 6, 8: 6, 9: 16}","[1, 8, 9, 23, 38]",1686916233385,Sr5V3H6O6F16
SrP2(H2O3)3,mp-722485,5.3385,-0.38079516,0.02500475819444592,"{38: 1, 15: 2, 1: 6, 8: 9}","[1, 8, 15, 38]",1689152381,Sr1P2H6O9
Sr3Sb4S9,mp-29295,1.0408000000000008,4.06609595,0.0,"{38: 3, 51: 4, 16: 9}","[16, 38, 51]",169383514,Sr3Sb4S9
Sr4CaCl10,mp-1218427,5.1811,5.28782919,0.011960165499997899,"{38: 4, 20: 1, 17: 10}","[17, 20, 38]",1710201384,Sr4Ca1Cl10
BaSr4Cl10,mp-1227722,5.342899999999999,-0.32216051,0.005034886666665628,"{56: 1, 38: 4, 17: 10}","[17, 38, 56]",1710384561,Ba1Sr4Cl10
Sr4LaCl11,mp-677371,2.3272000000000004,1.16744737,0.0976500396874993,"{38: 4, 57: 1, 17: 11}","[17, 38, 57]",1711384571,Sr4La1Cl11
Sr3La2Cl12,mp-768615,4.5652,0.22713605,0.04107644529411836,"{38: 3, 57: 2, 17: 12}","[17, 38, 57]",1712383572,Sr3La2Cl12
SrBrCl,mp-1208676,4.734,4.58302273,0.03749619058333398,"{38: 1, 35: 1, 17: 1}","[17, 35, 38]",171351381,Sr1Br1Cl1
SrICl,mp-1208666,3.7669,5.57673284,0.026921777083332543,"{38: 1, 53: 1, 17: 1}","[17, 38, 53]",171381531,Sr1I1Cl1
Sr5La2Cl16,mp-771889,4.1002,0.0286092,0.09745002195652397,"{38: 5, 57: 2, 17: 16}","[17, 38, 57]",1716385572,Sr5La2Cl16
K2Sr(NbCl3)6,mp-569413,1.0688000000000004,2.27010909,0.0,"{19: 2, 38: 1, 41: 6, 17: 18}","[17, 19, 38, 41]",1718192381416,K2Sr1Nb6Cl18
CsSrTa6Cl18,mp-1213360,0.14360000000000017,2.55902759,0.0,"{55: 1, 38: 1, 73: 6, 17: 18}","[17, 38, 55, 73]",1718381551736,Cs1Sr1Ta6Cl18
Sr9ThCl22,mp-1173190,1.9808,1.35512296,0.11201465921875275,"{38: 9, 90: 1, 17: 22}","[17, 38, 90]",1722389901,Sr9Th1Cl22
SrZnCl2,mp-1208645,2.9476,-0.00531667,0.3402957543749974,"{38: 1, 30: 1, 17: 2}","[17, 30, 38]",172301381,Sr1Zn1Cl2
Sr5(Br4Cl)2,mp-28021,4.443899999999999,0.16785828,0.005977423600000975,"{38: 5, 35: 8, 17: 2}","[17, 35, 38]",172358385,Sr5Br8Cl2
SrCl2,mp-23209,5.2286,0.07819131,0.0,"{38: 1, 17: 2}","[17, 38]",172381,Sr1Cl2
Sr9La5Cl33,mp-782053,3.6325000000000003,1.72178638,0.028625759680853236,"{38: 9, 57: 5, 17: 33}","[17, 38, 57]",1733389575,Sr9La5Cl33
RbSrCl3,mp-998755,5.318,-2.13379912,0.0005938402500014206,"{37: 1, 38: 1, 17: 3}","[17, 37, 38]",173371381,Rb1Sr1Cl3
SrCl3,mp-1187157,0.0,1.63537424,0.19099454124999937,"{38: 1, 17: 3}","[17, 38]",173381,Sr1Cl3
CsSrCl3,mp-1213084,5.3366,-1.41795176,0.0,"{55: 1, 38: 1, 17: 3}","[17, 38, 55]",173381551,Cs1Sr1Cl3
Sr15La2Cl36,mp-1173598,2.5441000000000003,1.11844187,0.04461142075471791,"{38: 15, 57: 2, 17: 36}","[17, 38, 57]",17363815572,Sr15La2Cl36
Sr18ThCl40,mp-676727,2.2452,0.78144136,0.05885816923728804,"{38: 18, 90: 1, 17: 40}","[17, 38, 90]",17403818901,Sr18Th1Cl40
K2SrCl4,mp-674465,4.988099999999999,-0.70661001,0.027025869285711934,"{19: 2, 38: 1, 17: 4}","[17, 19, 38]",174192381,K2Sr1Cl4
SrZnCl4,mp-23034,4.3014,-0.15399714,0.0,"{38: 1, 30: 1, 17: 4}","[17, 30, 38]",174301381,Sr1Zn1Cl4
KSr2Cl5,mp-1211382,5.2608999999999995,-0.45247623,0.0,"{19: 1, 38: 2, 17: 5}","[17, 19, 38]",175191382,K1Sr2Cl5
Sr25Cl52,mp-531572,0.0,0.22905462,0.025062030649348088,"{38: 25, 17: 52}","[17, 38]",17523825,Sr25Cl52
RbSr2Cl5,mp-1209161,5.2035,4.72425519,0.0,"{37: 1, 38: 2, 17: 5}","[17, 37, 38]",175371382,Rb1Sr2Cl5
SrLaCl5,mp-1101356,3.7313,1.73378924,0.05015306642857631,"{38: 1, 57: 1, 17: 5}","[17, 38, 57]",175381571,Sr1La1Cl5
Sr2TlCl5,mp-1208784,4.29,4.72751928,0.0026029462499996825,"{38: 2, 81: 1, 17: 5}","[17, 38, 81]",175382811,Sr2Tl1Cl5
Ba17SrSm12Cl68,mp-1229199,0.006199999999999761,4.97912636,0.0,"{56: 17, 38: 1, 62: 12, 17: 68}","[17, 38, 56, 62]",176838156176212,Ba17Sr1Sm12Cl68
Sr2LaCl7,mp-768633,3.9812,-0.57034788,0.029921098999999174,"{38: 2, 57: 1, 17: 7}","[17, 38, 57]",177382571,Sr2La1Cl7
SrLa2Cl8,mp-753651,3.4631,1.91942261,0.06857405272727313,"{38: 1, 57: 2, 17: 8}","[17, 38, 57]",178381572,Sr1La2Cl8
Sr3LaCl9,mp-771883,3.6751999999999994,0.74033806,0.009754910192310007,"{38: 3, 57: 1, 17: 9}","[17, 38, 57]",179383571,Sr3La1Cl9
SrMg2FeH8,mp-643004,1.7242999999999997,1.85641052,0.0,"{38: 1, 12: 2, 26: 1, 1: 8}","[1, 12, 26, 38]",18122261381,Sr1Mg2Fe1H8
SrV2(H4O5)2,mp-1195428,3.1307,1.84006948,0.016341943869038644,"{38: 1, 23: 2, 1: 8, 8: 10}","[1, 8, 23, 38]",18810232381,Sr1V2H8O10
SrH8(ClO6)2,mp-1205187,5.3375,3.81682687,0.00026710972825938484,"{38: 1, 1: 8, 17: 2, 8: 12}","[1, 8, 17, 38]",18812172381,Sr1H8Cl2O12
SrU2As2(H2O3)4,mp-1209540,1.4896,1.01593344,1.0216880853958203,"{38: 1, 92: 2, 33: 2, 1: 8, 8: 12}","[1, 8, 33, 38, 92]",18812332381922,Sr1U2As2H8O12
SrV2P2(H4O7)2,mp-728720,0.6762999999999999,3.15009153,0.03647646111111502,"{38: 1, 23: 2, 15: 2, 1: 8, 8: 14}","[1, 8, 15, 23, 38]",18814152232381,Sr1V2P2H8O14
Sr2Mg(H4O3)2,mp-1233630,0.5215000000000001,2.30885706,0.20528683161764505,"{38: 2, 12: 1, 1: 8, 8: 6}","[1, 8, 12, 38]",1886121382,Sr2Mg1H8O6
Sr2Ca(H4O3)2,mp-1234488,0.0,2.24436106,0.2361669139705853,"{38: 2, 20: 1, 1: 8, 8: 6}","[1, 8, 20, 38]",1886201382,Sr2Ca1H8O6
Sr2Sn(HO)8,mp-1198515,4.0219000000000005,0.37777229,0.0,"{38: 2, 50: 1, 1: 8, 8: 8}","[1, 8, 38, 50]",1888382501,Sr2Sn1H8O8
Sr2H8PtO8,mp-1202747,2.5652,3.56895296,0.0,"{38: 2, 1: 8, 78: 1, 8: 8}","[1, 8, 38, 78]",1888382781,Sr2H8Pt1O8
KSr2Br5,mp-1211375,4.2816,-0.40240506,0.0,"{19: 1, 38: 2, 35: 5}","[19, 35, 38]",191355382,K1Sr2Br5
KSrSb,mp-1100429,1.575,3.05546201,0.2446177257843143,"{19: 1, 38: 1, 51: 1}","[19, 38, 51]",191381511,K1Sr1Sb1
KSrI3,mp-1205548,3.9993000000000003,4.28232066,0.0,"{19: 1, 38: 1, 53: 3}","[19, 38, 53]",191381533,K1Sr1I3
KSr2Cd2Sb3,mp-866639,0.1842999999999999,3.37300427,0.0,"{19: 1, 38: 2, 48: 2, 51: 3}","[19, 38, 48, 51]",191382482513,K1Sr2Cd2Sb3
KSr2I5,mp-1211448,3.6492999999999998,1.42710166,0.01199521249999913,"{19: 1, 38: 2, 53: 5}","[19, 38, 53]",191382535,K1Sr2I5
KSr3,mp-974738,0.0,1.14000742,0.09926039425000077,"{19: 1, 38: 3}","[19, 38]",191383,K1Sr3
K2SrCdSb2,mp-863758,0.3151999999999999,2.68519419,0.0,"{19: 2, 38: 1, 48: 1, 51: 2}","[19, 38, 48, 51]",192381481512,K2Sr1Cd1Sb2
K2SrIn7,mp-867362,0.0,4.72025546,0.011787258444444504,"{19: 2, 38: 1, 49: 7}","[19, 38, 49]",192381497,K2Sr1In7
K3Sr,mp-973622,0.0,0.26314285,0.1174081285833335,"{19: 3, 38: 1}","[19, 38]",193381,K3Sr1
K4Sr2SnAs4,mp-570311,0.5377000000000003,1.79805657,0.0,"{19: 4, 38: 2, 50: 1, 33: 4}","[19, 33, 38, 50]",194334382501,K4Sr2Sn1As4
K8SrTe6,mp-1223570,0.6937,1.94312848,0.016607629750000186,"{19: 8, 38: 1, 52: 6}","[19, 38, 52]",198381526,K8Sr1Te6
SrH9ClO5,mp-541339,4.6187000000000005,-1.22978727,0.017079149374998437,"{38: 1, 1: 9, 17: 1, 8: 5}","[1, 8, 17, 38]",1985171381,Sr1H9Cl1O5
SrCaZn2,mp-1218336,0.0,2.18198366,0.005259109375000293,"{38: 1, 20: 1, 30: 2}","[20, 30, 38]",201302381,Sr1Ca1Zn2
SrCaGe,mp-12418,0.4356,2.93670991,0.0,"{38: 1, 20: 1, 32: 1}","[20, 32, 38]",201321381,Sr1Ca1Ge1
SrCa,mp-1218346,0.0,1.83315768,0.036421206666666706,"{38: 1, 20: 1}","[20, 38]",201381,Sr1Ca1
SrCaAg2,mp-1095901,0.0045999999999999375,-2.0942678,1.3868610996875006,"{38: 1, 20: 1, 47: 2}","[20, 38, 47]",201381472,Sr1Ca1Ag2
SrCaCd2,mp-1097195,0.3840000000000001,-1.92337055,1.3753326625000004,"{38: 1, 20: 1, 48: 2}","[20, 38, 48]",201381482,Sr1Ca1Cd2
SrCaIn2,mp-980948,0.0,4.56584864,0.02812848656249889,"{38: 1, 20: 1, 49: 2}","[20, 38, 49]",201381492,Sr1Ca1In2
SrCaSn,mp-20726,0.2881999999999998,3.5051883,0.0,"{38: 1, 20: 1, 50: 1}","[20, 38, 50]",201381501,Sr1Ca1Sn1
SrCaI4,mp-1101340,3.8007,0.36853702,0.0,"{38: 1, 20: 1, 53: 4}","[20, 38, 53]",201381534,Sr1Ca1I4
Ba2SrCa,mp-1097376,0.0,-1.93482694,1.54283284,"{56: 2, 38: 1, 20: 1}","[20, 38, 56]",201381562,Ba2Sr1Ca1
SrCaEu2,mp-1187175,0.0,1.98481535,0.042235035833332546,"{38: 1, 20: 1, 63: 2}","[20, 38, 63]",201381632,Sr1Ca1Eu2
SrCaHg2,mp-980947,0.0,2.80361608,0.018665545000002837,"{38: 1, 20: 1, 80: 2}","[20, 38, 80]",201381802,Sr1Ca1Hg2
SrCaTl2,mp-972119,0.0,4.47765805,0.009532575000001486,"{38: 1, 20: 1, 81: 2}","[20, 38, 81]",201381812,Sr1Ca1Tl2
SrCaPb,mp-21166,0.2677999999999998,3.57149963,0.0,"{38: 1, 20: 1, 82: 1}","[20, 38, 82]",201381821,Sr1Ca1Pb1
SrCaPb2,mp-1093796,0.10470000000000024,-2.14894453,1.6640258587500012,"{38: 1, 20: 1, 82: 2}","[20, 38, 82]",201381822,Sr1Ca1Pb2
SrCaPb6,mp-1218699,0.0,6.02141292,0.0,"{38: 1, 20: 1, 82: 6}","[20, 38, 82]",201381826,Sr1Ca1Pb6
Sr2CaSn5,mp-1218852,0.0,5.57701834,0.0061687981249956,"{38: 2, 20: 1, 50: 5}","[20, 38, 50]",201382505,Sr2Ca1Sn5
Sr2CaI6,mp-756238,3.9625999999999997,0.67565445,0.02231797694444282,"{38: 2, 20: 1, 53: 6}","[20, 38, 53]",201382536,Sr2Ca1I6
BaSr2Ca,mp-1183321,0.0,1.82148085,0.024299925,"{56: 1, 38: 2, 20: 1}","[20, 38, 56]",201382561,Ba1Sr2Ca1
Sr2CaEu,mp-1187134,0.0,1.91702614,0.03158989916666499,"{38: 2, 20: 1, 63: 1}","[20, 38, 63]",201382631,Sr2Ca1Eu1
Sr3Ca,mp-1187116,0.0,1.68955273,0.005635927499998417,"{38: 3, 20: 1}","[20, 38]",201383,Sr3Ca1
Sr3CaAg4,mp-1218586,0.0,2.37951279,0.011413427447916291,"{38: 3, 20: 1, 47: 4}","[20, 38, 47]",201383474,Sr3Ca1Ag4
Sr3CaSn16,mp-1218541,0.0,6.52206896,0.018539021999999683,"{38: 3, 20: 1, 50: 16}","[20, 38, 50]",2013835016,Sr3Ca1Sn16
Sr3CaI8,mp-1101363,2.9768,1.90320186,0.0802887595833317,"{38: 3, 20: 1, 53: 8}","[20, 38, 53]",201383538,Sr3Ca1I8
SrCa2(FeAs)6,mp-1218636,0.0,5.57630932,0.011622808666667872,"{38: 1, 20: 2, 26: 6, 33: 6}","[20, 26, 33, 38]",202266336381,Sr1Ca2Fe6As6
SrCa2In2Ge,mp-619206,0.0,3.25508646,0.11248703770833268,"{38: 1, 20: 2, 49: 2, 32: 1}","[20, 32, 38, 49]",202321381492,Sr1Ca2In2Ge1
SrCa2I6,mp-754517,3.7364,0.97382972,0.032608501111111465,"{38: 1, 20: 2, 53: 6}","[20, 38, 53]",202381536,Sr1Ca2I6
BaSrCa2,mp-1093566,0.0009999999999998899,-1.96786846,1.564504805,"{56: 1, 38: 1, 20: 2}","[20, 38, 56]",202381561,Ba1Sr1Ca2
SrCa3,mp-1187176,0.0,1.90164007,0.0009647012499982566,"{38: 1, 20: 3}","[20, 38]",203381,Sr1Ca3
SrCa3Ag4,mp-1218380,0.0,2.64755051,0.014780863593749416,"{38: 1, 20: 3, 47: 4}","[20, 38, 47]",203381474,Sr1Ca3Ag4
SrScCu3Se4,mp-1179075,1.6882000000000001,3.81662052,0.14046578194444415,"{38: 1, 21: 1, 29: 3, 34: 4}","[21, 29, 34, 38]",211293344381,Sr1Sc1Cu3Se4
SrScTl2,mp-1097222,0.0,-2.40310901,1.8192568916666687,"{38: 1, 21: 1, 81: 2}","[21, 38, 81]",211381812,Sr1Sc1Tl2
Sr3Sc,mp-1187149,0.0,2.01025895,0.2945652537499992,"{38: 3, 21: 1}","[21, 38]",211383,Sr3Sc1
Sr(ScTe2)2,mp-18660,0.4482000000000008,4.75418988,0.004354369285716864,"{38: 1, 21: 2, 52: 4}","[21, 38, 52]",212381524,Sr1Sc2Te4
Sr4TiAs4,mp-15501,1.3504999999999998,2.18053217,0.0,"{38: 4, 22: 1, 33: 4}","[22, 33, 38]",221334384,Sr4Ti1As4
Sr3Ti,mp-1187142,0.0,2.19777918,0.522095526666666,"{38: 3, 22: 1}","[22, 38]",221383,Sr3Ti1
SrVCu3Se4,mp-1179014,0.1171000000000002,3.62125709,0.24374166722222057,"{38: 1, 23: 1, 29: 3, 34: 4}","[23, 29, 34, 38]",231293344381,Sr1V1Cu3Se4
Sr2VW,mp-631384,0.0,2.88263986,1.5708653916666648,"{38: 2, 23: 1, 74: 1}","[23, 38, 74]",231382741,Sr2V1W1
SrCrCu3Se4,mp-1179168,0.06009999999999982,3.44710798,0.20608932166666616,"{38: 1, 24: 1, 29: 3, 34: 4}","[24, 29, 34, 38]",241293344381,Sr1Cr1Cu3Se4
SrCrGe2,mp-1209494,0.0,3.60738972,0.24146934333333192,"{38: 1, 24: 1, 32: 2}","[24, 32, 38]",241322381,Sr1Cr1Ge2
SrCrRh2,mp-631355,0.0,4.54081476,0.5176573762499999,"{38: 1, 24: 1, 45: 2}","[24, 38, 45]",241381452,Sr1Cr1Rh2
SrCrPd2,mp-631494,0.0,3.53470925,0.5993197099999978,"{38: 1, 24: 1, 46: 2}","[24, 38, 46]",241381462,Sr1Cr1Pd2
SrCrW2,mp-631277,0.0,5.34598099,1.4597725158333326,"{38: 1, 24: 1, 74: 2}","[24, 38, 74]",241381742,Sr1Cr1W2
Sr3Cr,mp-980946,0.0,1.70739548,0.4955988250000001,"{38: 3, 24: 1}","[24, 38]",241383,Sr3Cr1
Sr(CrAs)2,mp-570031,0.0,4.69992051,0.05376750900000182,"{38: 1, 24: 2, 33: 2}","[24, 33, 38]",242332381,Sr1Cr2As2
SrMnGe,mp-20189,0.0,3.70175467,0.14691460068965423,"{38: 1, 25: 1, 32: 1}","[25, 32, 38]",251321381,Sr1Mn1Ge1
Sr14MnAs11,mp-530564,0.0,2.76478094,0.0,"{38: 14, 25: 1, 33: 11}","[25, 33, 38]",25133113814,Sr14Mn1As11
Sr14MnSb11,mp-567788,0.0,3.44109471,0.0,"{38: 14, 25: 1, 51: 11}","[25, 38, 51]",25138145111,Sr14Mn1Sb11
Sr14MnBi11,mp-569111,0.0,3.10612114,0.0,"{38: 14, 25: 1, 83: 11}","[25, 38, 83]",25138148311,Sr14Mn1Bi11
SrMnSn,mp-20759,0.0,4.03337622,0.22202421735632072,"{38: 1, 25: 1, 50: 1}","[25, 38, 50]",251381501,Sr1Mn1Sn1
SrMnSb2,mp-1208681,0.0,5.00353272,0.07307472822737004,"{38: 1, 25: 1, 51: 2}","[25, 38, 51]",251381512,Sr1Mn1Sb2
SrTa2Mn,mp-631358,0.0,4.94713355,1.216871190520834,"{38: 1, 73: 2, 25: 1}","[25, 38, 73]",251381732,Sr1Ta2Mn1
SrMnRe2,mp-631560,0.0,5.72321993,1.003735553850575,"{38: 1, 25: 1, 75: 2}","[25, 38, 75]",251381752,Sr1Mn1Re2
SrMnBi2,mp-29207,0.0,4.22290969,0.1034996286422416,"{38: 1, 25: 1, 83: 2}","[25, 38, 83]",251381832,Sr1Mn1Bi2
Sr2MnSn2,mp-1211623,0.5518000000000001,-2.78552216,2.6473005704137904,"{38: 2, 25: 1, 50: 2}","[25, 38, 50]",251382502,Sr2Mn1Sn2
Sr2UMn,mp-1066751,0.0,3.68586433,1.1156523187500005,"{38: 2, 92: 1, 25: 1}","[25, 38, 92]",251382921,Sr2U1Mn1
Sr(MnGe)2,mp-21118,0.0,4.67461322,0.03298515533333468,"{38: 1, 25: 2, 32: 2}","[25, 32, 38]",252322381,Sr1Mn2Ge2
Sr(MnAs)2,mp-4343,0.0,4.04957317,0.09032637441379521,"{38: 1, 25: 2, 33: 2}","[25, 33, 38]",252332381,Sr1Mn2As2
Sr(MnSb)2,mp-2968,0.0,3.93152889,0.20547489399569052,"{38: 1, 25: 2, 51: 2}","[25, 38, 51]",252381512,Sr1Mn2Sb2
Sr21(Mn2Sb9)2,mp-581855,0.14540000000000042,4.1000812,0.016644192030123683,"{38: 21, 25: 4, 51: 18}","[25, 38, 51]",25438215118,Sr21Mn4Sb18
Sr3Fe,mp-1187133,0.0,1.84342595,0.5716403225,"{38: 3, 26: 1}","[26, 38]",261383,Sr3Fe1
Sr(FeAs)2,mp-4488,0.0,5.08129923,0.0,"{38: 1, 26: 2, 33: 2}","[26, 33, 38]",262332381,Sr1Fe2As2
Sr(FeSb3)4,mp-1188542,0.0,7.44821106,0.0,"{38: 1, 26: 4, 51: 12}","[26, 38, 51]",2643815112,Sr1Fe4Sb12
SrCoCu3Se4,mp-1179142,0.0,2.6469438,0.18326824675926012,"{38: 1, 27: 1, 29: 3, 34: 4}","[27, 29, 34, 38]",271293344381,Sr1Co1Cu3Se4
SrZrCo,mp-631506,0.0,3.09832632,1.2690259277777791,"{38: 1, 40: 1, 27: 1}","[27, 38, 40]",271381401,Sr1Zr1Co1
Sr2UCo,mp-1067817,0.0,3.88731978,1.6467444797916677,"{38: 2, 92: 1, 27: 1}","[27, 38, 92]",271382921,Sr2U1Co1
Sr(CoGe)2,mp-7361,0.0,4.96006755,0.0,"{38: 1, 27: 2, 32: 2}","[27, 32, 38]",272322381,Sr1Co2Ge2
Sr(CoAs)2,mp-571203,0.0,5.0172952,0.0,"{38: 1, 27: 2, 33: 2}","[27, 33, 38]",272332381,Sr1Co2As2
SrCuGe,mp-1218273,0.0,4.21890985,0.008439605000000405,"{38: 1, 29: 1, 32: 1}","[29, 32, 38]",291321381,Sr1Cu1Ge1
SrCuAs,mp-12557,0.0038000000000000256,4.6657484,0.0,"{38: 1, 29: 1, 33: 1}","[29, 33, 38]",291331381,Sr1Cu1As1
SrLaCuSe3,mp-1208670,0.4863999999999997,5.06555764,0.0012747983333305513,"{38: 1, 57: 1, 29: 1, 34: 3}","[29, 34, 38, 57]",291343381571,Sr1La1Cu1Se3
SrPrCuSe3,mp-17660,1.0231,3.27548419,0.0,"{38: 1, 59: 1, 29: 1, 34: 3}","[29, 34, 38, 59]",291343381591,Sr1Pr1Cu1Se3
SrGdCuSe3,mp-1190889,1.0135,3.43426146,0.0,"{38: 1, 64: 1, 29: 1, 34: 3}","[29, 34, 38, 64]",291343381641,Sr1Gd1Cu1Se3
SrLuCuSe3,mp-568191,1.1226999999999996,3.71121375,0.0,"{38: 1, 71: 1, 29: 1, 34: 3}","[29, 34, 38, 71]",291343381711,Sr1Lu1Cu1Se3
SrCu,mp-1025402,0.0,2.6577595,0.0,"{38: 1, 29: 1}","[29, 38]",291381,Sr1Cu1
SrCuSn2,mp-30598,0.0,5.93336845,0.0,"{38: 1, 29: 1, 50: 2}","[29, 38, 50]",291381502,Sr1Cu1Sn2
SrCuSb,mp-10749,0.0,5.36824758,0.0,"{38: 1, 29: 1, 51: 1}","[29, 38, 51]",291381511,Sr1Cu1Sb1
SrCuBi,mp-30451,0.0,4.77752253,0.034768448269231644,"{38: 1, 29: 1, 83: 1}","[29, 38, 83]",291381831,Sr1Cu1Bi1
Sr2CuPd,mp-1093947,0.1976,-1.85027272,1.4038673781249993,"{38: 2, 29: 1, 46: 1}","[29, 38, 46]",291382461,Sr2Cu1Pd1
Sr2CuPt,mp-1187070,0.0,3.29322286,0.1214666856749993,"{38: 2, 29: 1, 78: 1}","[29, 38, 78]",291382781,Sr2Cu1Pt1
Sr3Cu,mp-1187104,0.0,2.24672616,0.2984604947916676,"{38: 3, 29: 1}","[29, 38]",291383,Sr3Cu1
SrGaCu2,mp-30580,0.0,3.97969602,0.0,"{38: 1, 31: 1, 29: 2}","[29, 31, 38]",292311381,Sr1Ga1Cu2
SrCu2GeSe4,mp-16179,0.5996000000000001,3.51242926,0.006508664374998752,"{38: 1, 29: 2, 32: 1, 34: 4}","[29, 32, 34, 38]",292321344381,Sr1Cu2Ge1Se4
Sr(CuGe)2,mp-3241,0.0,5.70690102,0.0,"{38: 1, 29: 2, 32: 2}","[29, 32, 38]",292322381,Sr1Cu2Ge2
Sr(CuAs)2,mp-4861,0.0,5.40708194,0.0,"{38: 1, 29: 2, 33: 2}","[29, 33, 38]",292332381,Sr1Cu2As2
Sr(InCu)2,mp-1208837,0.0,5.44497115,0.0845678370000007,"{38: 1, 49: 2, 29: 2}","[29, 38, 49]",292381492,Sr1In2Cu2
Sr(CuSn)2,mp-1068891,0.0,5.97231567,0.0,"{38: 1, 29: 2, 50: 2}","[29, 38, 50]",292381502,Sr1Cu2Sn2
Sr(CuSb)2,mp-505515,0.0,6.53250561,0.0,"{38: 1, 29: 2, 51: 2}","[29, 38, 51]",292381512,Sr1Cu2Sb2
SrGaCu3Se4,mp-1179118,1.3096,3.92428873,0.22450662361111284,"{38: 1, 31: 1, 29: 3, 34: 4}","[29, 31, 34, 38]",293311344381,Sr1Ga1Cu3Se4
SrYCu3Se4,mp-1179003,0.8155999999999999,2.00800562,0.25688973972221874,"{38: 1, 39: 1, 29: 3, 34: 4}","[29, 34, 38, 39]",293344381391,Sr1Y1Cu3Se4
SrInCu3Se4,mp-1179119,1.2809999999999997,3.94846738,0.2796365986111118,"{38: 1, 49: 1, 29: 3, 34: 4}","[29, 34, 38, 49]",293344381491,Sr1In1Cu3Se4
SrTlCu3Se4,mp-1179060,0.21980000000000022,2.43667262,0.389499845925922,"{38: 1, 81: 1, 29: 3, 34: 4}","[29, 34, 38, 81]",293344381811,Sr1Tl1Cu3Se4
Sr(Cu2As)2,mp-10441,0.0,5.97808557,0.020551224285712877,"{38: 1, 29: 4, 33: 2}","[29, 33, 38]",294332381,Sr1Cu4As2
SrCu4Ag,mp-1218338,0.0,4.69375133,0.024955128333333576,"{38: 1, 29: 4, 47: 1}","[29, 38, 47]",294381471,Sr1Cu4Ag1
Sr(Cu2Sn)2,mp-1104488,0.0,6.95823322,0.027580087142861753,"{38: 1, 29: 4, 50: 2}","[29, 38, 50]",294381502,Sr1Cu4Sn2