formula,material_id,band_gap,efermi,energy_above_hull,comp_atoms,sorted_keys_comp_atoms,comp_number,new_formula
KSrGdMnO6,mp-1520699,0.0,1.16630076,0.13734367075000087,"{19: 1, 38: 1, 64: 1, 25: 1, 8: 6}","[8, 19, 25, 38, 64]",86191251381641,K1Sr1Gd1Mn1O6
KSrMnBiO6,mp-1518490,0.0,2.39099916,0.1480006430000005,"{19: 1, 38: 1, 25: 1, 83: 1, 8: 6}","[8, 19, 25, 38, 83]",86191251381831,K1Sr1Mn1Bi1O6
KSrCeFeO6,mp-1517776,0.0,2.45058289,0.09521391874999896,"{19: 1, 38: 1, 58: 1, 26: 1, 8: 6}","[8, 19, 26, 38, 58]",86191261381581,K1Sr1Ce1Fe1O6
KSrPrFeO6,mp-1520110,0.0,1.48736954,0.15031516894116415,"{19: 1, 38: 1, 59: 1, 26: 1, 8: 6}","[8, 19, 26, 38, 59]",86191261381591,K1Sr1Pr1Fe1O6
KSrNdFeO6,mp-1516478,0.0,1.44716143,0.1440920880000025,"{19: 1, 38: 1, 60: 1, 26: 1, 8: 6}","[8, 19, 26, 38, 60]",86191261381601,K1Sr1Nd1Fe1O6
KSrSmFeO6,mp-1520748,0.0,1.46090489,0.13305785768748812,"{19: 1, 38: 1, 62: 1, 26: 1, 8: 6}","[8, 19, 26, 38, 62]",86191261381621,K1Sr1Sm1Fe1O6
KSrEuFeO6,mp-1523292,0.0,1.22214694,0.17818566212500286,"{19: 1, 38: 1, 63: 1, 26: 1, 8: 6}","[8, 19, 26, 38, 63]",86191261381631,K1Sr1Eu1Fe1O6
KSrLaSeO6,mp-1520117,2.1093,3.3759074,0.14184461379166535,"{19: 1, 38: 1, 57: 1, 34: 1, 8: 6}","[8, 19, 34, 38, 57]",86191341381571,K1Sr1La1Se1O6
KSrPrSeO6,mp-1517350,1.9789000000000003,2.50622022,0.14961461460416547,"{19: 1, 38: 1, 59: 1, 34: 1, 8: 6}","[8, 19, 34, 38, 59]",86191341381591,K1Sr1Pr1Se1O6
KSrNdSeO6,mp-1517988,1.9635000000000002,2.40826356,0.1450525290416662,"{19: 1, 38: 1, 60: 1, 34: 1, 8: 6}","[8, 19, 34, 38, 60]",86191341381601,K1Sr1Nd1Se1O6
KSrSmSeO6,mp-1516725,1.9386000000000005,2.41265763,0.13887032472916339,"{19: 1, 38: 1, 62: 1, 34: 1, 8: 6}","[8, 19, 34, 38, 62]",86191341381621,K1Sr1Sm1Se1O6
KSrEuSeO6,mp-1522736,0.0,2.38943165,0.21332391916666094,"{19: 1, 38: 1, 63: 1, 34: 1, 8: 6}","[8, 19, 34, 38, 63]",86191341381631,K1Sr1Eu1Se1O6
KSrYWO6,mp-1516583,2.8822,1.76108071,0.016048269583327723,"{19: 1, 38: 1, 39: 1, 74: 1, 8: 6}","[8, 19, 38, 39, 74]",86191381391741,K1Sr1Y1W1O6
KSrZrBiO6,mp-1518634,1.0927000000000002,2.21360216,0.020838536000002073,"{19: 1, 38: 1, 40: 1, 83: 1, 8: 6}","[8, 19, 38, 40, 83]",86191381401831,K1Sr1Zr1Bi1O6
KSrCeNbO6,mp-1519196,2.0721,2.13839723,0.020400767249983076,"{19: 1, 38: 1, 58: 1, 41: 1, 8: 6}","[8, 19, 38, 41, 58]",86191381411581,K1Sr1Ce1Nb1O6
KSrPrNbO6,mp-1519509,0.0,0.92485152,0.09966418156250079,"{19: 1, 38: 1, 59: 1, 41: 1, 8: 6}","[8, 19, 38, 41, 59]",86191381411591,K1Sr1Pr1Nb1O6
KSrNbBiO6,mp-1517672,0.0,3.15592662,0.055736751250002214,"{19: 1, 38: 1, 41: 1, 83: 1, 8: 6}","[8, 19, 38, 41, 83]",86191381411831,K1Sr1Nb1Bi1O6
KSrSnBiO6,mp-1522717,0.0,3.17732156,0.09787256050000082,"{19: 1, 38: 1, 50: 1, 83: 1, 8: 6}","[8, 19, 38, 50, 83]",86191381501831,K1Sr1Sn1Bi1O6
KSrCeSbO6,mp-1522321,1.9095000000000004,3.1214384,0.0,"{19: 1, 38: 1, 58: 1, 51: 1, 8: 6}","[8, 19, 38, 51, 58]",86191381511581,K1Sr1Ce1Sb1O6
KSrPrSbO6,mp-1521724,0.0,1.84893599,0.04266772512500161,"{19: 1, 38: 1, 59: 1, 51: 1, 8: 6}","[8, 19, 38, 51, 59]",86191381511591,K1Sr1Pr1Sb1O6
KSrTbSbO6,mp-1522221,0.0,1.98923335,0.0302409517187483,"{19: 1, 38: 1, 65: 1, 51: 1, 8: 6}","[8, 19, 38, 51, 65]",86191381511651,K1Sr1Tb1Sb1O6
KSrSbWO6,mp-1517737,1.1933999999999996,4.42198567,0.12886451008333477,"{19: 1, 38: 1, 51: 1, 74: 1, 8: 6}","[8, 19, 38, 51, 74]",86191381511741,K1Sr1Sb1W1O6
KSrLaWO6,mp-1522351,2.9551000000000003,2.62856129,0.055736966333328475,"{19: 1, 38: 1, 57: 1, 74: 1, 8: 6}","[8, 19, 38, 57, 74]",86191381571741,K1Sr1La1W1O6
KSrCeWO6,mp-1521083,0.6406000000000005,3.80831403,0.05520179524999236,"{19: 1, 38: 1, 58: 1, 74: 1, 8: 6}","[8, 19, 38, 58, 74]",86191381581741,K1Sr1Ce1W1O6
KSrCeBiO6,mp-1523185,1.6021,2.46577206,0.002156966449999409,"{19: 1, 38: 1, 58: 1, 83: 1, 8: 6}","[8, 19, 38, 58, 83]",86191381581831,K1Sr1Ce1Bi1O6
KSrPrWO6,mp-1519713,2.8314000000000004,1.57093844,0.04082981795833085,"{19: 1, 38: 1, 59: 1, 74: 1, 8: 6}","[8, 19, 38, 59, 74]",86191381591741,K1Sr1Pr1W1O6
KSrPrBiO6,mp-1517051,0.0,1.30948031,0.08707955078125096,"{19: 1, 38: 1, 59: 1, 83: 1, 8: 6}","[8, 19, 38, 59, 83]",86191381591831,K1Sr1Pr1Bi1O6
KSrNdWO6,mp-1519244,2.8257999999999996,1.57980847,0.03786212241667286,"{19: 1, 38: 1, 60: 1, 74: 1, 8: 6}","[8, 19, 38, 60, 74]",86191381601741,K1Sr1Nd1W1O6
KSrSmWO6,mp-1516962,2.849,1.67615562,0.024585164458331477,"{19: 1, 38: 1, 62: 1, 74: 1, 8: 6}","[8, 19, 38, 62, 74]",86191381621741,K1Sr1Sm1W1O6
KSrEuWO6,mp-1523094,0.0,1.75929939,0.10429960874999367,"{19: 1, 38: 1, 63: 1, 74: 1, 8: 6}","[8, 19, 38, 63, 74]",86191381631741,K1Sr1Eu1W1O6
KSrGdWO6,mp-1518642,2.8354999999999997,1.59205894,0.01894033808330242,"{19: 1, 38: 1, 64: 1, 74: 1, 8: 6}","[8, 19, 38, 64, 74]",86191381641741,K1Sr1Gd1W1O6
KSrTbWO6,mp-1516327,2.8873999999999995,1.680325,0.015632158875000357,"{19: 1, 38: 1, 65: 1, 74: 1, 8: 6}","[8, 19, 38, 65, 74]",86191381651741,K1Sr1Tb1W1O6
KSrTbBiO6,mp-1521832,0.0,1.3821873,0.059860352031248176,"{19: 1, 38: 1, 65: 1, 83: 1, 8: 6}","[8, 19, 38, 65, 83]",86191381651831,K1Sr1Tb1Bi1O6
KSrDyWO6,mp-1521008,2.8841,1.6865757,0.008265893958329329,"{19: 1, 38: 1, 66: 1, 74: 1, 8: 6}","[8, 19, 38, 66, 74]",86191381661741,K1Sr1Dy1W1O6
KSrHfBiO6,mp-1518644,1.1399,2.46807583,0.04782810025000028,"{19: 1, 38: 1, 72: 1, 83: 1, 8: 6}","[8, 19, 38, 72, 83]",86191381721831,K1Sr1Hf1Bi1O6
KSrBiWO6,mp-1518786,2.1867,3.07963717,0.05917311000000414,"{19: 1, 38: 1, 83: 1, 74: 1, 8: 6}","[8, 19, 38, 74, 83]",86191381741831,K1Sr1Bi1W1O6
KSr(BiO3)2,mp-1223282,0.0,3.64597301,0.02003490675000208,"{19: 1, 38: 1, 83: 2, 8: 6}","[8, 19, 38, 83]",86191381832,K1Sr1Bi2O6
SrCaTiMnO6,mp-1218391,1.536,3.26134669,0.023005209166667484,"{38: 1, 20: 1, 22: 1, 25: 1, 8: 6}","[8, 20, 22, 25, 38]",86201221251381,Sr1Ca1Ti1Mn1O6
SrCaZrTiO6,mp-1520998,2.3639999999999994,2.74879562,0.0843491412499997,"{38: 1, 20: 1, 40: 1, 22: 1, 8: 6}","[8, 20, 22, 38, 40]",86201221381401,Sr1Ca1Zr1Ti1O6
SrCaTiNbO6,mp-1516720,0.0,5.83452743,0.049903068656256266,"{38: 1, 20: 1, 22: 1, 41: 1, 8: 6}","[8, 20, 22, 38, 41]",86201221381411,Sr1Ca1Ti1Nb1O6
SrCaCeTiO6,mp-1522825,2.307,3.15472243,0.18964379200000003,"{38: 1, 20: 1, 58: 1, 22: 1, 8: 6}","[8, 20, 22, 38, 58]",86201221381581,Sr1Ca1Ce1Ti1O6
SrCaTbTiO6,mp-1522242,0.0,2.02012259,0.20175790181249909,"{38: 1, 20: 1, 65: 1, 22: 1, 8: 6}","[8, 20, 22, 38, 65]",86201221381651,Sr1Ca1Tb1Ti1O6
SrCaHfTiO6,mp-1518656,2.4601000000000006,3.00640154,0.07153406000000118,"{38: 1, 20: 1, 72: 1, 22: 1, 8: 6}","[8, 20, 22, 38, 72]",86201221381721,Sr1Ca1Hf1Ti1O6
SrCaTi2O6,mp-1218358,2.0157999999999996,3.17272937,0.01348955874999902,"{38: 1, 20: 1, 22: 2, 8: 6}","[8, 20, 22, 38]",86201222381,Sr1Ca1Ti2O6
SrCaYVO6,mp-1520379,1.6094000000000004,2.5312957,0.19569391569942063,"{38: 1, 20: 1, 39: 1, 23: 1, 8: 6}","[8, 20, 23, 38, 39]",86201231381391,Sr1Ca1Y1V1O6
SrCaZrVO6,mp-1519370,0.0,4.41340906,0.124689580437499,"{38: 1, 20: 1, 40: 1, 23: 1, 8: 6}","[8, 20, 23, 38, 40]",86201231381401,Sr1Ca1Zr1V1O6
SrCaNbVO6,mp-1516876,0.0,4.72726669,0.07227809934376062,"{38: 1, 20: 1, 41: 1, 23: 1, 8: 6}","[8, 20, 23, 38, 41]",86201231381411,Sr1Ca1Nb1V1O6
SrCaVInO6,mp-1518195,1.7895000000000003,3.6841997,0.1802613750119164,"{38: 1, 20: 1, 23: 1, 49: 1, 8: 6}","[8, 20, 23, 38, 49]",86201231381491,Sr1Ca1V1In1O6
SrCaTbVO6,mp-1517712,1.6166999999999998,2.55071728,0.2021644676994221,"{38: 1, 20: 1, 65: 1, 23: 1, 8: 6}","[8, 20, 23, 38, 65]",86201231381651,Sr1Ca1Tb1V1O6
SrCaDyVO6,mp-1517733,1.6157000000000004,2.59722142,0.19156451776192185,"{38: 1, 20: 1, 66: 1, 23: 1, 8: 6}","[8, 20, 23, 38, 66]",86201231381661,Sr1Ca1Dy1V1O6
SrCaHfVO6,mp-1522440,0.0,4.5089968,0.11552470993750319,"{38: 1, 20: 1, 72: 1, 23: 1, 8: 6}","[8, 20, 23, 38, 72]",86201231381721,Sr1Ca1Hf1V1O6
SrCaVWO6,mp-1521594,0.6616999999999997,5.46216084,0.09342185729166097,"{38: 1, 20: 1, 23: 1, 74: 1, 8: 6}","[8, 20, 23, 38, 74]",86201231381741,Sr1Ca1V1W1O6
SrCaV2O6,mp-1218467,0.7961,4.61580575,0.021430178886904017,"{38: 1, 20: 1, 23: 2, 8: 6}","[8, 20, 23, 38]",86201232381,Sr1Ca1V2O6
SrCaZrCrO6,mp-1522114,0.0,2.97607809,0.13827592241666942,"{38: 1, 20: 1, 40: 1, 24: 1, 8: 6}","[8, 20, 24, 38, 40]",86201241381401,Sr1Ca1Zr1Cr1O6
SrCaNbCrO6,mp-1218539,2.0839999999999996,3.12294501,0.007140991958321408,"{38: 1, 20: 1, 41: 1, 24: 1, 8: 6}","[8, 20, 24, 38, 41]",86201241381411,Sr1Ca1Nb1Cr1O6
BaSrCaCrO6,mp-1519678,0.5585,2.44233305,0.166005722499996,"{56: 1, 38: 1, 20: 1, 24: 1, 8: 6}","[8, 20, 24, 38, 56]",86201241381561,Ba1Sr1Ca1Cr1O6
SrCaCrBiO6,mp-1520712,0.7929000000000004,3.46515309,0.10980538087501213,"{38: 1, 20: 1, 24: 1, 83: 1, 8: 6}","[8, 20, 24, 38, 83]",86201241381831,Sr1Ca1Cr1Bi1O6
Sr2CaCrO6,mp-1520339,0.4963000000000002,2.4718934,0.1694954652500016,"{38: 2, 20: 1, 24: 1, 8: 6}","[8, 20, 24, 38]",86201241382,Sr2Ca1Cr1O6
SrCaCr2O6,mp-1218402,0.0,3.36142749,0.13661633268266904,"{38: 1, 20: 1, 24: 2, 8: 6}","[8, 20, 24, 38]",86201242381,Sr1Ca1Cr2O6
SrCaMnNbO6,mp-1522791,0.0,4.04972528,0.0946598393749909,"{38: 1, 20: 1, 25: 1, 41: 1, 8: 6}","[8, 20, 25, 38, 41]",86201251381411,Sr1Ca1Mn1Nb1O6
SrCaMnRuO6,mp-1218544,0.03909999999999991,3.56450488,0.030215337821435817,"{38: 1, 20: 1, 25: 1, 44: 1, 8: 6}","[8, 20, 25, 38, 44]",86201251381441,Sr1Ca1Mn1Ru1O6
BaSrCaMnO6,mp-1517356,0.0,1.71457729,0.10055092126190956,"{56: 1, 38: 1, 20: 1, 25: 1, 8: 6}","[8, 20, 25, 38, 56]",86201251381561,Ba1Sr1Ca1Mn1O6
SrCaNdMnO6,mp-1518192,0.0,2.40098207,0.1145251633511819,"{38: 1, 20: 1, 60: 1, 25: 1, 8: 6}","[8, 20, 25, 38, 60]",86201251381601,Sr1Ca1Nd1Mn1O6
SrCaSmMnO6,mp-1522553,0.0,1.96612571,0.19046117653868233,"{38: 1, 20: 1, 62: 1, 25: 1, 8: 6}","[8, 20, 25, 38, 62]",86201251381621,Sr1Ca1Sm1Mn1O6
SrCaEuMnO6,mp-1518897,0.0,2.07049113,0.2468433069761815,"{38: 1, 20: 1, 63: 1, 25: 1, 8: 6}","[8, 20, 25, 38, 63]",86201251381631,Sr1Ca1Eu1Mn1O6
SrCaDyMnO6,mp-1518514,0.0,2.04341804,0.1431247179761881,"{38: 1, 20: 1, 66: 1, 25: 1, 8: 6}","[8, 20, 25, 38, 66]",86201251381661,Sr1Ca1Dy1Mn1O6
SrCaMnWO6,mp-1520083,1.5660000000000007,4.12038947,0.08791060487499358,"{38: 1, 20: 1, 25: 1, 74: 1, 8: 6}","[8, 20, 25, 38, 74]",86201251381741,Sr1Ca1Mn1W1O6
Sr2CaMnO6,mp-1521761,0.0,1.72643617,0.11186901128571058,"{38: 2, 20: 1, 25: 1, 8: 6}","[8, 20, 25, 38]",86201251382,Sr2Ca1Mn1O6
SrCaMn2O6,mp-1218366,0.0,2.90429822,0.061174742452381636,"{38: 1, 20: 1, 25: 2, 8: 6}","[8, 20, 25, 38]",86201252381,Sr1Ca1Mn2O6
SrCaZrFeO6,mp-1519567,0.0,2.70049097,0.10388766224999824,"{38: 1, 20: 1, 40: 1, 26: 1, 8: 6}","[8, 20, 26, 38, 40]",86201261381401,Sr1Ca1Zr1Fe1O6
SrCaNbFeO6,mp-1519250,1.7541000000000002,2.94044556,0.05118332668750014,"{38: 1, 20: 1, 41: 1, 26: 1, 8: 6}","[8, 20, 26, 38, 41]",86201261381411,Sr1Ca1Nb1Fe1O6
SrCaFeSnO6,mp-1521717,0.0,3.62715079,0.12771058225000154,"{38: 1, 20: 1, 26: 1, 50: 1, 8: 6}","[8, 20, 26, 38, 50]",86201261381501,Sr1Ca1Fe1Sn1O6
BaSrCaFeO6,mp-1521728,0.0,1.96907967,0.0704776150000157,"{56: 1, 38: 1, 20: 1, 26: 1, 8: 6}","[8, 20, 26, 38, 56]",86201261381561,Ba1Sr1Ca1Fe1O6
SrCaCeFeO6,mp-1519881,0.0,3.53867795,0.1736694099999987,"{38: 1, 20: 1, 58: 1, 26: 1, 8: 6}","[8, 20, 26, 38, 58]",86201261381581,Sr1Ca1Ce1Fe1O6
SrCaPrFeO6,mp-1517272,0.6846000000000001,3.12982067,0.1408781133928505,"{38: 1, 20: 1, 59: 1, 26: 1, 8: 6}","[8, 20, 26, 38, 59]",86201261381591,Sr1Ca1Pr1Fe1O6
SrCaNdFeO6,mp-1517289,0.7082000000000002,2.97390816,0.16173348050000413,"{38: 1, 20: 1, 60: 1, 26: 1, 8: 6}","[8, 20, 26, 38, 60]",86201261381601,Sr1Ca1Nd1Fe1O6
SrCaSmFeO6,mp-1521866,0.29890000000000017,2.42681495,0.17440051256248879,"{38: 1, 20: 1, 62: 1, 26: 1, 8: 6}","[8, 20, 26, 38, 62]",86201261381621,Sr1Ca1Sm1Fe1O6
SrCaEuFeO6,mp-1519945,0.0,2.41482571,0.22010009199998848,"{38: 1, 20: 1, 63: 1, 26: 1, 8: 6}","[8, 20, 26, 38, 63]",86201261381631,Sr1Ca1Eu1Fe1O6
SrCaTbFeO6,mp-1517127,0.2963,2.63391368,0.14335910993748868,"{38: 1, 20: 1, 65: 1, 26: 1, 8: 6}","[8, 20, 26, 38, 65]",86201261381651,Sr1Ca1Tb1Fe1O6
SrCaDyFeO6,mp-1517169,0.2974999999999999,2.52334255,0.1360040879999902,"{38: 1, 20: 1, 66: 1, 26: 1, 8: 6}","[8, 20, 26, 38, 66]",86201261381661,Sr1Ca1Dy1Fe1O6
SrCaHfFeO6,mp-1517346,0.0,2.77168503,0.09511220799999798,"{38: 1, 20: 1, 72: 1, 26: 1, 8: 6}","[8, 20, 26, 38, 72]",86201261381721,Sr1Ca1Hf1Fe1O6
SrCaFeBiO6,mp-1520073,0.4131,3.53266944,0.08949794315000403,"{38: 1, 20: 1, 26: 1, 83: 1, 8: 6}","[8, 20, 26, 38, 83]",86201261381831,Sr1Ca1Fe1Bi1O6
SrCaCeCoO6,mp-1516565,0.0,3.59735316,0.17845027066665775,"{38: 1, 20: 1, 58: 1, 27: 1, 8: 6}","[8, 20, 27, 38, 58]",86201271381581,Sr1Ca1Ce1Co1O6
SrCaHfCoO6,mp-1516660,0.0,2.93073782,0.17090916583332216,"{38: 1, 20: 1, 72: 1, 27: 1, 8: 6}","[8, 20, 27, 38, 72]",86201271381721,Sr1Ca1Hf1Co1O6
SrCa(CoO3)2,mp-1075928,0.0,3.27305456,0.09691192124999493,"{38: 1, 20: 1, 27: 2, 8: 6}","[8, 20, 27, 38]",86201272381,Sr1Ca1Co2O6
SrCaCuBiO6,mp-1516265,0.0,3.71323013,0.16699650420000012,"{38: 1, 20: 1, 29: 1, 83: 1, 8: 6}","[8, 20, 29, 38, 83]",86201291381831,Sr1Ca1Cu1Bi1O6
Sr3Ca(CuO3)2,mp-1218473,0.0,3.75617058,0.01609015291666971,"{38: 3, 20: 1, 29: 2, 8: 6}","[8, 20, 29, 38]",86201292383,Sr3Ca1Cu2O6
SrCaZnWO6,mp-1518148,3.3286000000000002,2.68607318,0.1021788933749983,"{38: 1, 20: 1, 30: 1, 74: 1, 8: 6}","[8, 20, 30, 38, 74]",86201301381741,Sr1Ca1Zn1W1O6
SrCaGaBiO6,mp-1516278,0.0,3.29118785,0.12482629708958548,"{38: 1, 20: 1, 31: 1, 83: 1, 8: 6}","[8, 20, 31, 38, 83]",86201311381831,Sr1Ca1Ga1Bi1O6
SrCaCeGeO6,mp-1520006,2.0936000000000003,3.37078812,0.1996680807499871,"{38: 1, 20: 1, 58: 1, 32: 1, 8: 6}","[8, 20, 32, 38, 58]",86201321381581,Sr1Ca1Ce1Ge1O6
SrCaTbGeO6,mp-1518246,0.0,2.15442514,0.19814395831249954,"{38: 1, 20: 1, 65: 1, 32: 1, 8: 6}","[8, 20, 32, 38, 65]",86201321381651,Sr1Ca1Tb1Ge1O6
BaSrCaSeO6,mp-1522463,2.1937,2.9788188,0.022119919749995276,"{56: 1, 38: 1, 20: 1, 34: 1, 8: 6}","[8, 20, 34, 38, 56]",86201341381561,Ba1Sr1Ca1Se1O6
SrCaEuSeO6,mp-1517490,0.0,5.81384237,0.2157604627499996,"{38: 1, 20: 1, 63: 1, 34: 1, 8: 6}","[8, 20, 34, 38, 63]",86201341381631,Sr1Ca1Eu1Se1O6
SrCaYNbO6,mp-1519736,2.8753,2.08407071,0.15570990940624974,"{38: 1, 20: 1, 39: 1, 41: 1, 8: 6}","[8, 20, 38, 39, 41]",86201381391411,Sr1Ca1Y1Nb1O6
SrCaYRuO6,mp-1218511,0.3199000000000001,3.07010788,0.008759284937488232,"{38: 1, 20: 1, 39: 1, 44: 1, 8: 6}","[8, 20, 38, 39, 44]",86201381391441,Sr1Ca1Y1Ru1O6
SrCaYSbO6,mp-1519209,3.3595,3.16581278,0.10695333496875303,"{38: 1, 20: 1, 39: 1, 51: 1, 8: 6}","[8, 20, 38, 39, 51]",86201381391511,Sr1Ca1Y1Sb1O6
SrCaYBiO6,mp-1521109,1.8269000000000002,2.26004961,0.0,"{38: 1, 20: 1, 39: 1, 83: 1, 8: 6}","[8, 20, 38, 39, 83]",86201381391831,Sr1Ca1Y1Bi1O6
SrCaZrNbO6,mp-1521089,0.0,5.68664746,0.1293233113437413,"{38: 1, 20: 1, 40: 1, 41: 1, 8: 6}","[8, 20, 38, 40, 41]",86201381401411,Sr1Ca1Zr1Nb1O6
SrCaZrSnO6,mp-1522650,3.724,3.32258148,0.11400245100000195,"{38: 1, 20: 1, 40: 1, 50: 1, 8: 6}","[8, 20, 38, 40, 50]",86201381401501,Sr1Ca1Zr1Sn1O6
SrCaHfZrO6,mp-1522984,3.4147,2.3333991,0.10960337575002299,"{38: 1, 20: 1, 72: 1, 40: 1, 8: 6}","[8, 20, 38, 40, 72]",86201381401721,Sr1Ca1Hf1Zr1O6
SrCaZr2O6,mp-1519527,3.1592,2.12907326,0.05573169100000008,"{38: 1, 20: 1, 40: 2, 8: 6}","[8, 20, 38, 40]",86201381402,Sr1Ca1Zr2O6
SrCaNbInO6,mp-1522466,3.4575,3.07696343,0.11561912196876811,"{38: 1, 20: 1, 41: 1, 49: 1, 8: 6}","[8, 20, 38, 41, 49]",86201381411491,Sr1Ca1Nb1In1O6
SrCaLaNbO6,mp-1520944,2.4044,3.44401681,0.19596606622916823,"{38: 1, 20: 1, 57: 1, 41: 1, 8: 6}","[8, 20, 38, 41, 57]",86201381411571,Sr1Ca1La1Nb1O6
SrCaSmNbO6,mp-1519851,3.0967000000000002,1.90940136,0.09185392524999969,"{38: 1, 20: 1, 62: 1, 41: 1, 8: 6}","[8, 20, 38, 41, 62]",86201381411621,Sr1Ca1Sm1Nb1O6
SrCaGdNbO6,mp-1523005,2.6866,2.23805747,0.07262055868749862,"{38: 1, 20: 1, 64: 1, 41: 1, 8: 6}","[8, 20, 38, 41, 64]",86201381411641,Sr1Ca1Gd1Nb1O6
SrCaTbNbO6,mp-1522128,2.865,2.01005386,0.157481555875,"{38: 1, 20: 1, 65: 1, 41: 1, 8: 6}","[8, 20, 38, 41, 65]",86201381411651,Sr1Ca1Tb1Nb1O6
SrCaDyNbO6,mp-1523329,2.8784,2.01520282,0.14626617393749974,"{38: 1, 20: 1, 66: 1, 41: 1, 8: 6}","[8, 20, 38, 41, 66]",86201381411661,Sr1Ca1Dy1Nb1O6
SrCaHfNbO6,mp-1517520,0.0,5.91864451,0.1299790683437454,"{38: 1, 20: 1, 72: 1, 41: 1, 8: 6}","[8, 20, 38, 41, 72]",86201381411721,Sr1Ca1Hf1Nb1O6
SrCaNbWO6,mp-1519815,0.6203000000000003,4.78910127,0.18097859425000884,"{38: 1, 20: 1, 41: 1, 74: 1, 8: 6}","[8, 20, 38, 41, 74]",86201381411741,Sr1Ca1Nb1W1O6
BaSrCaMoO6,mp-1227642,2.2592000000000003,2.40411421,0.0397436272499867,"{56: 1, 38: 1, 20: 1, 42: 1, 8: 6}","[8, 20, 38, 42, 56]",86201381421561,Ba1Sr1Ca1Mo1O6
SrCa(RuO3)2,mp-1218505,0.0,4.55357088,0.008671287750001255,"{38: 1, 20: 1, 44: 2, 8: 6}","[8, 20, 38, 44]",86201381442,Sr1Ca1Ru2O6
SrCaInSbO6,mp-1520901,1.2367999999999997,4.32088582,0.1095414302499984,"{38: 1, 20: 1, 49: 1, 51: 1, 8: 6}","[8, 20, 38, 49, 51]",86201381491511,Sr1Ca1In1Sb1O6
SrCaInBiO6,mp-1517138,0.0,3.44961171,0.1446273599000012,"{38: 1, 20: 1, 49: 1, 83: 1, 8: 6}","[8, 20, 38, 49, 83]",86201381491831,Sr1Ca1In1Bi1O6
SrCaHfSnO6,mp-1519132,3.6634,3.41991904,0.10258913775000167,"{38: 1, 20: 1, 72: 1, 50: 1, 8: 6}","[8, 20, 38, 50, 72]",86201381501721,Sr1Ca1Hf1Sn1O6
SrCaLaSbO6,mp-1218509,3.6607000000000003,3.93631308,0.0,"{38: 1, 20: 1, 57: 1, 51: 1, 8: 6}","[8, 20, 38, 51, 57]",86201381511571,Sr1Ca1La1Sb1O6
SrCaPrSbO6,mp-1517320,3.3749,2.90436805,0.005623715937495,"{38: 1, 20: 1, 59: 1, 51: 1, 8: 6}","[8, 20, 38, 51, 59]",86201381511591,Sr1Ca1Pr1Sb1O6
SrCaNdSbO6,mp-1518993,3.3891999999999998,3.28086338,0.053036413437494545,"{38: 1, 20: 1, 60: 1, 51: 1, 8: 6}","[8, 20, 38, 51, 60]",86201381511601,Sr1Ca1Nd1Sb1O6
SrCaSmSbO6,mp-1523170,3.4760000000000004,2.81340652,0.0635391504166698,"{38: 1, 20: 1, 62: 1, 51: 1, 8: 6}","[8, 20, 38, 51, 62]",86201381511621,Sr1Ca1Sm1Sb1O6
SrCaEuSbO6,mp-1518710,0.0,3.06724478,0.11356023099999035,"{38: 1, 20: 1, 63: 1, 51: 1, 8: 6}","[8, 20, 38, 51, 63]",86201381511631,Sr1Ca1Eu1Sb1O6
SrCaGdSbO6,mp-1521218,3.1028,3.06046693,0.11329792120830717,"{38: 1, 20: 1, 64: 1, 51: 1, 8: 6}","[8, 20, 38, 51, 64]",86201381511641,Sr1Ca1Gd1Sb1O6
SrCaTbSbO6,mp-1519047,3.3076000000000003,3.06148525,0.10061364212500212,"{38: 1, 20: 1, 65: 1, 51: 1, 8: 6}","[8, 20, 38, 51, 65]",86201381511651,Sr1Ca1Tb1Sb1O6
SrCaDySbO6,mp-1517046,3.3225,3.11904574,0.07944881100000067,"{38: 1, 20: 1, 66: 1, 51: 1, 8: 6}","[8, 20, 38, 51, 66]",86201381511661,Sr1Ca1Dy1Sb1O6
SrCaBiSbO6,mp-1517174,2.0045,4.33991344,0.08309397712500033,"{38: 1, 20: 1, 83: 1, 51: 1, 8: 6}","[8, 20, 38, 51, 83]",86201381511831,Sr1Ca1Bi1Sb1O6
BaSrCaWO6,mp-1227701,3.4049999999999994,2.05999192,0.014143583000000959,"{56: 1, 38: 1, 20: 1, 74: 1, 8: 6}","[8, 20, 38, 56, 74]",86201381561741,Ba1Sr1Ca1W1O6
SrCaLaBiO6,mp-1519157,2.0516,3.29494464,0.0,"{38: 1, 20: 1, 57: 1, 83: 1, 8: 6}","[8, 20, 38, 57, 83]",86201381571831,Sr1Ca1La1Bi1O6
SrCaSmBiO6,mp-1523104,1.7071,2.15111548,0.0,"{38: 1, 20: 1, 62: 1, 83: 1, 8: 6}","[8, 20, 38, 62, 83]",86201381621831,Sr1Ca1Sm1Bi1O6
SrCaEuWO6,mp-1516941,0.5645999999999995,4.81908416,0.1147421257291672,"{38: 1, 20: 1, 63: 1, 74: 1, 8: 6}","[8, 20, 38, 63, 74]",86201381631741,Sr1Ca1Eu1W1O6
SrCaEuBiO6,mp-1521970,0.0,2.76270053,0.11842696554999499,"{38: 1, 20: 1, 63: 1, 83: 1, 8: 6}","[8, 20, 38, 63, 83]",86201381631831,Sr1Ca1Eu1Bi1O6
SrCaGdBiO6,mp-1520732,1.5225,2.36666728,0.0,"{38: 1, 20: 1, 64: 1, 83: 1, 8: 6}","[8, 20, 38, 64, 83]",86201381641831,Sr1Ca1Gd1Bi1O6
SrCaTbBiO6,mp-1520398,1.7765,2.23601543,0.0,"{38: 1, 20: 1, 65: 1, 83: 1, 8: 6}","[8, 20, 38, 65, 83]",86201381651831,Sr1Ca1Tb1Bi1O6
SrCaDyBiO6,mp-1520532,1.6487000000000003,2.33054377,0.0,"{38: 1, 20: 1, 66: 1, 83: 1, 8: 6}","[8, 20, 38, 66, 83]",86201381661831,Sr1Ca1Dy1Bi1O6
SrCaHfWO6,mp-1522396,0.0,4.96756117,0.1888158627500136,"{38: 1, 20: 1, 72: 1, 74: 1, 8: 6}","[8, 20, 38, 72, 74]",86201381721741,Sr1Ca1Hf1W1O6
SrCaHf2O6,mp-1218419,4.367,6.4009718,0.009440106000001336,"{38: 1, 20: 1, 72: 2, 8: 6}","[8, 20, 38, 72]",86201381722,Sr1Ca1Hf2O6
Sr2CaNbO6,mp-1208975,0.0,1.55366177,0.05601970271874723,"{38: 2, 20: 1, 41: 1, 8: 6}","[8, 20, 38, 41]",86201382411,Sr2Ca1Nb1O6