formula,material_id,band_gap,efermi,energy_above_hull,comp_atoms,sorted_keys_comp_atoms,comp_number,new_formula
SrLa4Cr5O15,mp-1650920,0.4964000000000004,6.33968754,0.06093989598750049,"{38: 1, 57: 4, 24: 5, 8: 15}","[8, 24, 38, 57]",815245381574,Sr1La4Cr5O15
Sr4CeMn4CoO15,mp-1218667,0.0,3.67775054,0.0569669375000057,"{38: 4, 58: 1, 25: 4, 27: 1, 8: 15}","[8, 25, 27, 38, 58]",815254271384581,Sr4Ce1Mn4Co1O15
Sr7Mn4O15,mp-28761,0.0,3.17297665,0.0,"{38: 7, 25: 4, 8: 15}","[8, 25, 38]",815254387,Sr7Mn4O15
Sr4Mn5O15,mp-1218691,0.0,2.04352224,0.12521322652777656,"{38: 4, 25: 5, 8: 15}","[8, 25, 38]",815255384,Sr4Mn5O15
Sr4LaMn5O15,mp-1218611,0.29349999999999987,4.04622139,0.06057917227666465,"{38: 4, 57: 1, 25: 5, 8: 15}","[8, 25, 38, 57]",815255384571,Sr4La1Mn5O15
Sr4CeMn5O15,mp-1218672,0.0,3.9263002,0.03132051281665671,"{38: 4, 58: 1, 25: 5, 8: 15}","[8, 25, 38, 58]",815255384581,Sr4Ce1Mn5O15
Sr4PrMn5O15,mp-1218591,0.0,3.25341942,0.026378100150021844,"{38: 4, 59: 1, 25: 5, 8: 15}","[8, 25, 38, 59]",815255384591,Sr4Pr1Mn5O15
Sr4NdMn5O15,mp-1218675,0.0,3.26460025,0.029888516933332276,"{38: 4, 60: 1, 25: 5, 8: 15}","[8, 25, 38, 60]",815255384601,Sr4Nd1Mn5O15
Sr8Mn6Cu4Se4O15,mp-1218663,0.0,3.92757111,0.008571557156962228,"{38: 8, 25: 6, 29: 4, 34: 4, 8: 15}","[8, 25, 29, 34, 38]",815256294344388,Sr8Mn6Cu4Se4O15
Sr2La3FeCo4O15,mp-1218816,0.0,5.30568055,0.026361933161290096,"{38: 2, 57: 3, 26: 1, 27: 4, 8: 15}","[8, 26, 27, 38, 57]",815261274382573,Sr2La3Fe1Co4O15
Sr3La2FeCo4O15,mp-1218694,0.0,4.44908671,0.05971202523225738,"{38: 3, 57: 2, 26: 1, 27: 4, 8: 15}","[8, 26, 27, 38, 57]",815261274383572,Sr3La2Fe1Co4O15
Sr5FeMo4O15,mp-1218610,0.0,5.23813168,0.03849866876666663,"{38: 5, 26: 1, 42: 4, 8: 15}","[8, 26, 38, 42]",815261385424,Sr5Fe1Mo4O15
Sr4LaFe2(CoO5)3,mp-1218676,0.0,3.70358928,0.011174015777414503,"{38: 4, 57: 1, 26: 2, 27: 3, 8: 15}","[8, 26, 27, 38, 57]",815262273384571,Sr4La1Fe2Co3O15
Sr4Y2Fe2Cu4O15,mp-1218585,0.0,3.53198537,0.053144154131262056,"{38: 4, 39: 2, 26: 2, 29: 4, 8: 15}","[8, 26, 29, 38, 39]",815262294384392,Sr4Y2Fe2Cu4O15
Sr2La3Fe4CoO15,mp-1218784,0.0,5.37124131,0.03723171312580664,"{38: 2, 57: 3, 26: 4, 27: 1, 8: 15}","[8, 26, 27, 38, 57]",815264271382573,Sr2La3Fe4Co1O15
Sr3La2Fe4CoO15,mp-1218604,0.0,4.16802344,0.014244767925805313,"{38: 3, 57: 2, 26: 4, 27: 1, 8: 15}","[8, 26, 27, 38, 57]",815264271383572,Sr3La2Fe4Co1O15
Sr2La3Fe4CuO15,mp-1218789,0.0,5.38319847,0.02737699460000087,"{38: 2, 57: 3, 26: 4, 29: 1, 8: 15}","[8, 26, 29, 38, 57]",815264291382573,Sr2La3Fe4Cu1O15
Ba5SrLa2Fe4O15,mp-1228552,2.4311999999999996,2.88531453,0.0,"{56: 5, 38: 1, 57: 2, 26: 4, 8: 15}","[8, 26, 38, 56, 57]",815264381565572,Ba5Sr1La2Fe4O15
Ba5SrNd2Fe4O15,mp-1228568,2.4166,2.28890327,0.0,"{56: 5, 38: 1, 60: 2, 26: 4, 8: 15}","[8, 26, 38, 56, 60]",815264381565602,Ba5Sr1Nd2Fe4O15
Sr5Fe4MoO15,mp-1218594,0.0,3.21271562,0.003454146200017938,"{38: 5, 26: 4, 42: 1, 8: 15}","[8, 26, 38, 42]",815264385421,Sr5Fe4Mo1O15
Ba4Sr(FeO3)5,mp-1228328,0.0,2.94754097,0.008523991866669967,"{56: 4, 38: 1, 26: 5, 8: 15}","[8, 26, 38, 56]",815265381564,Ba4Sr1Fe5O15
SrFe5Bi4O15,mp-1218304,0.0,4.35124542,0.07751681260000698,"{38: 1, 26: 5, 83: 4, 8: 15}","[8, 26, 38, 83]",815265381834,Sr1Fe5Bi4O15
BaSr4(FeO3)5,mp-1227739,0.0,2.68525689,0.0036719630666599556,"{56: 1, 38: 4, 26: 5, 8: 15}","[8, 26, 38, 56]",815265384561,Ba1Sr4Fe5O15
Sr4Y2(Fe2O5)3,mp-1218642,0.0,4.52530305,0.07475814018518445,"{38: 4, 39: 2, 26: 6, 8: 15}","[8, 26, 38, 39]",815266384392,Sr4Y2Fe6O15
Ba4Sr2La2Co4O15,mp-1228696,1.4232000000000005,2.966977,0.0,"{56: 4, 38: 2, 57: 2, 27: 4, 8: 15}","[8, 27, 38, 56, 57]",815274382564572,Ba4Sr2La2Co4O15
Ba4Sr2Nd2Co4O15,mp-1228541,1.3891,2.34656366,0.0,"{56: 4, 38: 2, 60: 2, 27: 4, 8: 15}","[8, 27, 38, 56, 60]",815274382564602,Ba4Sr2Nd2Co4O15
Ba4Sr2Sm2Co4O15,mp-1228582,1.3519,3.69279678,0.0,"{56: 4, 38: 2, 62: 2, 27: 4, 8: 15}","[8, 27, 38, 56, 62]",815274382564622,Ba4Sr2Sm2Co4O15
Ba4Sr2Gd2Co4O15,mp-1229271,0.6201999999999996,2.54122274,0.0,"{56: 4, 38: 2, 64: 2, 27: 4, 8: 15}","[8, 27, 38, 56, 64]",815274382564642,Ba4Sr2Gd2Co4O15
Ba4Sr2Dy2Co4O15,mp-1228722,1.3518999999999997,2.36520054,0.0022777035185130856,"{56: 4, 38: 2, 66: 2, 27: 4, 8: 15}","[8, 27, 38, 56, 66]",815274382564662,Ba4Sr2Dy2Co4O15
Sr6Co4Bi2O15,mp-704097,0.0,3.28546627,0.028219835277810468,"{38: 6, 27: 4, 83: 2, 8: 15}","[8, 27, 38, 83]",815274386832,Sr6Co4Bi2O15
Sr4La(CoO3)5,mp-1218687,0.0,3.50347804,0.028330350758067446,"{38: 4, 57: 1, 27: 5, 8: 15}","[8, 27, 38, 57]",815275384571,Sr4La1Co5O15
Sr6(CoO3)5,mp-19235,0.0,3.15966926,0.0,"{38: 6, 27: 5, 8: 15}","[8, 27, 38]",815275386,Sr6Co5O15
Sr7Cu2HgBiSbO15,mp-1218732,0.0,3.15319095,0.01657528046295731,"{38: 7, 29: 2, 80: 1, 83: 1, 51: 1, 8: 15}","[8, 29, 38, 51, 80, 83]",815292387511801831,Sr7Cu2Hg1Bi1Sb1O15
Sr5Re3BrO15,mp-1208774,2.3998,1.33275983,0.0,"{38: 5, 75: 3, 35: 1, 8: 15}","[8, 35, 38, 75]",815351385753,Sr5Re3Br1O15
Ba4Sr(SnO3)5,mp-1228076,0.5276000000000005,4.10019171,0.01095677350000468,"{56: 4, 38: 1, 50: 5, 8: 15}","[8, 38, 50, 56]",815381505564,Ba4Sr1Sn5O15
SrI2O15,mp-1198471,0.0,-1.6755074,0.5196200654166674,"{38: 1, 53: 2, 8: 15}","[8, 38, 53]",815381532,Sr1I2O15
Ba4SrHf5O15,mp-1228088,3.5925999999999996,5.90564572,0.00803796659999989,"{56: 4, 38: 1, 72: 5, 8: 15}","[8, 38, 56, 72]",815381564725,Ba4Sr1Hf5O15
Sr3Nb5O15,mp-1208795,0.0,4.03162646,0.03964548309781257,"{38: 3, 41: 5, 8: 15}","[8, 38, 41]",815383415,Sr3Nb5O15
Sr3Ta5O15,mp-1208813,0.0,5.00089288,0.03155990011011944,"{38: 3, 73: 5, 8: 15}","[8, 38, 73]",815383735,Sr3Ta5O15
Sr4Nb5O15,mp-1218550,0.0,4.65992593,0.008734705989587255,"{38: 4, 41: 5, 8: 15}","[8, 38, 41]",815384415,Sr4Nb5O15
Sr5Nb4O15,mp-761057,2.8004000000000002,1.81847153,0.0,"{38: 5, 41: 4, 8: 15}","[8, 38, 41]",815385414,Sr5Nb4O15
Sr5Re3IO15,mp-1209401,0.7471999999999999,2.90731411,0.0,"{38: 5, 75: 3, 53: 1, 8: 15}","[8, 38, 53, 75]",815385531753,Sr5Re3I1O15
Sr5Ta4O15,mp-769582,3.3459000000000003,1.97051676,0.0,"{38: 5, 73: 4, 8: 15}","[8, 38, 73]",815385734,Sr5Ta4O15
Sr6(RhO3)5,mp-561047,0.0,3.44526695,0.0,"{38: 6, 45: 5, 8: 15}","[8, 38, 45]",815386455,Sr6Rh5O15
Sr2MgZn2Sn2(PO4)4,mp-1233344,2.0298,2.82143749,0.0888837264969089,"{38: 2, 12: 1, 30: 2, 50: 2, 15: 4, 8: 16}","[8, 12, 15, 30, 38, 50]",816121154302382502,Sr2Mg1Zn2Sn2P4O16
Sr8MgP4(IO4)4,mp-1233937,1.6881,3.72634588,0.10139435431457411,"{38: 8, 12: 1, 15: 4, 53: 4, 8: 16}","[8, 12, 15, 38, 53]",816121154388534,Sr8Mg1P4I4O16
Sr4Mg(SO4)4,mp-1233978,1.1997999999999998,3.23518588,0.24660170292499828,"{38: 4, 12: 1, 16: 4, 8: 16}","[8, 12, 16, 38]",816121164384,Sr4Mg1S4O16
Sr4Tm8MgO16,mp-1234297,0.36820000000000075,4.76587692,0.14876917002872947,"{38: 4, 69: 8, 12: 1, 8: 16}","[8, 12, 38, 69]",816121384698,Sr4Tm8Mg1O16
SrCaMg14O16,mp-1036311,2.827,4.37143053,0.11153022031249726,"{38: 1, 20: 1, 12: 14, 8: 16}","[8, 12, 20, 38]",8161214201381,Sr1Ca1Mg14O16
SrMg14TiO16,mp-1034137,0.0,8.48757555,0.14345176303125218,"{38: 1, 12: 14, 22: 1, 8: 16}","[8, 12, 22, 38]",8161214221381,Sr1Mg14Ti1O16
SrMg14VO16,mp-1034472,1.3404999999999996,6.13245623,0.09476697243923837,"{38: 1, 12: 14, 23: 1, 8: 16}","[8, 12, 23, 38]",8161214231381,Sr1Mg14V1O16
SrMg14CrO16,mp-1034560,0.8229000000000006,6.42667695,0.10920174744791211,"{38: 1, 12: 14, 24: 1, 8: 16}","[8, 12, 24, 38]",8161214241381,Sr1Mg14Cr1O16
SrMg14MnO16,mp-1036160,1.8978000000000002,5.32354612,0.09423124984375075,"{38: 1, 12: 14, 25: 1, 8: 16}","[8, 12, 25, 38]",8161214251381,Sr1Mg14Mn1O16
SrMg14FeO16,mp-1035624,2.1632000000000007,5.16942887,0.09300966062499949,"{38: 1, 12: 14, 26: 1, 8: 16}","[8, 12, 26, 38]",8161214261381,Sr1Mg14Fe1O16
SrMg14CoO16,mp-1035008,2.0662000000000003,5.01689182,0.09347286398437493,"{38: 1, 12: 14, 27: 1, 8: 16}","[8, 12, 27, 38]",8161214271381,Sr1Mg14Co1O16
SrMg14CuO16,mp-1035243,0.0,5.19789705,0.10461713250000049,"{38: 1, 12: 14, 29: 1, 8: 16}","[8, 12, 29, 38]",8161214291381,Sr1Mg14Cu1O16
SrMg14ZnO16,mp-1034944,2.7901,4.4907125,0.09299278390624988,"{38: 1, 12: 14, 30: 1, 8: 16}","[8, 12, 30, 38]",8161214301381,Sr1Mg14Zn1O16
SrYMg14O16,mp-1035900,0.0,8.36559312,0.16153377081380071,"{38: 1, 39: 1, 12: 14, 8: 16}","[8, 12, 38, 39]",8161214381391,Sr1Y1Mg14O16
SrMg14NbO16,mp-1034479,0.0,8.1370616,0.19313860724999898,"{38: 1, 12: 14, 41: 1, 8: 16}","[8, 12, 38, 41]",8161214381411,Sr1Mg14Nb1O16
SrMg14CdO16,mp-1034491,2.4501999999999997,4.34422917,0.10848122125000081,"{38: 1, 12: 14, 48: 1, 8: 16}","[8, 12, 38, 48]",8161214381481,Sr1Mg14Cd1O16
SrMg14SnO16,mp-1034297,0.2647000000000004,7.54088176,0.1897865685156237,"{38: 1, 12: 14, 50: 1, 8: 16}","[8, 12, 38, 50]",8161214381501,Sr1Mg14Sn1O16
BaSrMg14O16,mp-1034518,0.9916,5.37745848,0.24194045656250118,"{56: 1, 38: 1, 12: 14, 8: 16}","[8, 12, 38, 56]",8161214381561,Ba1Sr1Mg14O16
SrHfMg14O16,mp-1034376,0.0,8.40757996,0.21521143249999763,"{38: 1, 72: 1, 12: 14, 8: 16}","[8, 12, 38, 72]",8161214381721,Sr1Hf1Mg14O16
SrMg14BiO16,mp-1034358,0.0,7.70875264,0.23701049958333442,"{38: 1, 12: 14, 83: 1, 8: 16}","[8, 12, 38, 83]",8161214381831,Sr1Mg14Bi1O16
Ba2Sr3CaMg2(SiO4)4,mp-1228510,4.747299999999999,7.30365386,0.010974494598242401,"{56: 2, 38: 3, 20: 1, 12: 2, 14: 4, 8: 16}","[8, 12, 14, 20, 38, 56]",816122144201383562,Ba2Sr3Ca1Mg2Si4O16
Ba2SrCa3Mg2(SiO4)4,mp-1228533,4.8951,2.59948186,0.016941864151811536,"{56: 2, 38: 1, 20: 3, 12: 2, 14: 4, 8: 16}","[8, 12, 14, 20, 38, 56]",816122144203381562,Ba2Sr1Ca3Mg2Si4O16
Sr2CaZn2Sn2(PO4)4,mp-1233087,0.5824999999999996,4.01561998,0.141993189202668,"{38: 2, 20: 1, 30: 2, 50: 2, 15: 4, 8: 16}","[8, 15, 20, 30, 38, 50]",816154201302382502,Sr2Ca1Zn2Sn2P4O16
Sr3Cu3(PO4)4,mp-561012,0.3085,2.12096387,0.009008178461539451,"{38: 3, 29: 3, 15: 4, 8: 16}","[8, 15, 29, 38]",816154293383,Sr3Cu3P4O16
SrMo2(PO4)4,mp-560050,2.1135,1.71522039,0.012057675217400643,"{38: 1, 42: 2, 15: 4, 8: 16}","[8, 15, 38, 42]",816154381422,Sr1Mo2P4O16
SrIn2(PO4)4,mp-1201013,0.0,0.7141871,0.1252395833876756,"{38: 1, 49: 2, 15: 4, 8: 16}","[8, 15, 38, 49]",816154381492,Sr1In2P4O16
Sr4Ca(SO4)4,mp-1233446,0.36160000000000014,5.08031917,0.22366315852499952,"{38: 4, 20: 1, 16: 4, 8: 16}","[8, 16, 20, 38]",816164201384,Sr4Ca1S4O16
SrAu2(SO4)4,mp-1197529,1.6783000000000001,0.90798691,0.0,"{38: 1, 79: 2, 16: 4, 8: 16}","[8, 16, 38, 79]",816164381792,Sr1Au2S4O16
Sr4CaYCu4Bi2(PbO8)2,mp-1218870,0.0,3.51648169,0.017555613776035095,"{38: 4, 20: 1, 39: 1, 29: 4, 83: 2, 82: 2, 8: 16}","[8, 20, 29, 38, 39, 82, 83]",816201294384391822832,Sr4Ca1Y1Cu4Bi2Pb2O16
Sr4CaYCu6(PbO4)4,mp-1218734,0.0,4.29183133,0.022293099148755324,"{38: 4, 20: 1, 39: 1, 29: 6, 82: 4, 8: 16}","[8, 20, 29, 38, 39, 82]",816201296384391824,Sr4Ca1Y1Cu6Pb4O16
Sr4CaHoCu6(PbO4)4,mp-1218617,0.0,4.21949576,0.021582719461259003,"{38: 4, 20: 1, 67: 1, 29: 6, 82: 4, 8: 16}","[8, 20, 29, 38, 67, 82]",816201296384671824,Sr4Ca1Ho1Cu6Pb4O16
Sr4Ca2Cu4Bi4IO16,mp-1209382,0.0,3.88060017,0.07368518568547078,"{38: 4, 20: 2, 29: 4, 83: 4, 53: 1, 8: 16}","[8, 20, 29, 38, 53, 83]",816202294384531834,Sr4Ca2Cu4Bi4I1O16
SrCa5Mn4(GaO8)2,mp-1218239,0.0,3.17671819,0.007438020109132637,"{38: 1, 20: 5, 25: 4, 31: 2, 8: 16}","[8, 20, 25, 31, 38]",816205254312381,Sr1Ca5Mn4Ga2O16
Sr2La6TiCu3O16,mp-684769,0.0,6.97091375,0.06365762428571031,"{38: 2, 57: 6, 22: 1, 29: 3, 8: 16}","[8, 22, 29, 38, 57]",816221293382576,Sr2La6Ti1Cu3O16
BaSrV4(CuO4)4,mp-1227667,0.3759000000000001,2.14676606,0.04162884421472679,"{56: 1, 38: 1, 23: 4, 29: 4, 8: 16}","[8, 23, 29, 38, 56]",816234294381561,Ba1Sr1V4Cu4O16
SrCe3V4O16,mp-1218593,0.0,3.61330219,0.0015561517187396845,"{38: 1, 58: 3, 23: 4, 8: 16}","[8, 23, 38, 58]",816234381583,Sr1Ce3V4O16
BaSr6Fe3Bi3O16,mp-1227908,0.0,3.87453088,0.07647258436424487,"{56: 1, 38: 6, 26: 3, 83: 3, 8: 16}","[8, 26, 38, 56, 83]",816263386561833,Ba1Sr6Fe3Bi3O16
SrLa7ZnCu3O16,mp-1173179,0.04929999999999968,6.90945101,0.0627608016964345,"{38: 1, 57: 7, 30: 1, 29: 3, 8: 16}","[8, 29, 30, 38, 57]",816293301381577,Sr1La7Zn1Cu3O16
Sr2La6Cu3IrO16,mp-1218814,0.0,6.80476144,0.07115655366075213,"{38: 2, 57: 6, 29: 3, 77: 1, 8: 16}","[8, 29, 38, 57, 77]",816293382576771,Sr2La6Cu3Ir1O16
Sr6Tl3Cu3O16,mp-1218860,0.0,2.92960968,0.3599637686607071,"{38: 6, 81: 3, 29: 3, 8: 16}","[8, 29, 38, 81]",816293386813,Sr6Tl3Cu3O16
Sr4Y2GaCu5(PbO4)4,mp-1218790,0.0,5.60206503,0.07025325856200837,"{38: 4, 39: 2, 31: 1, 29: 5, 82: 4, 8: 16}","[8, 29, 31, 38, 39, 82]",816295311384392824,Sr4Y2Ga1Cu5Pb4O16
SrNb6O16,mp-14482,1.6323,1.40778634,0.025162680248440594,"{38: 1, 41: 6, 8: 16}","[8, 38, 41]",816381416,Sr1Nb6O16
Ba3Sr(MoO4)4,mp-1228193,3.9819999999999998,0.2327991,0.005773814583333703,"{56: 3, 38: 1, 42: 4, 8: 16}","[8, 38, 42, 56]",816381424563,Ba3Sr1Mo4O16
SrU(MoO4)4,mp-1208685,2.0934999999999997,0.33371261,0.0,"{38: 1, 92: 1, 42: 4, 8: 16}","[8, 38, 42, 92]",816381424921,Sr1U1Mo4O16
Sr2Zr7O16,mp-770419,3.6672000000000002,2.24430751,0.0,"{38: 2, 40: 7, 8: 16}","[8, 38, 40]",816382407,Sr2Zr7O16
Sr2Hf7O16,mp-757149,4.4155,2.64020959,0.006496895600001551,"{38: 2, 72: 7, 8: 16}","[8, 38, 72]",816382727,Sr2Hf7O16
Sr5Nb5O16,mp-760083,0.0,4.19756675,0.05395256881122634,"{38: 5, 41: 5, 8: 16}","[8, 38, 41]",816385415,Sr5Nb5O16
Sr8RuRh3O16,mp-1218503,0.0,3.31101909,0.0,"{38: 8, 44: 1, 45: 3, 8: 16}","[8, 38, 44, 45]",816388441453,Sr8Ru1Rh3O16
Sr8SnPb3O16,mp-1218629,1.5169000000000006,2.81508493,0.0829496116071411,"{38: 8, 50: 1, 82: 3, 8: 16}","[8, 38, 50, 82]",816388501823,Sr8Sn1Pb3O16
BaSr11Al4(O4F)4,mp-1227818,4.0628,2.52365343,0.007768838441379877,"{56: 1, 38: 11, 13: 4, 8: 16, 9: 4}","[8, 9, 13, 38, 56]",816941343811561,Ba1Sr11Al4O16F4
Ba3Sr9Al4(O4F)4,mp-1228149,4.3095,2.64287798,0.0,"{56: 3, 38: 9, 13: 4, 8: 16, 9: 4}","[8, 9, 13, 38, 56]",81694134389563,Ba3Sr9Al4O16F4
Sr5La3Mn8(O2F)8,mp-694947,0.0,4.62268076,0.21866007524584585,"{38: 5, 57: 3, 25: 8, 8: 16, 9: 8}","[8, 9, 25, 38, 57]",81698258385573,Sr5La3Mn8O16F8
SrTiCu4P4O17,mp-1195138,0.0,2.95945262,0.0,"{38: 1, 22: 1, 29: 4, 15: 4, 8: 17}","[8, 15, 22, 29, 38]",817154221294381,Sr1Ti1Cu4P4O17
SrV3P4O17,mp-15866,1.8247,2.01875891,0.003110791079999231,"{38: 1, 23: 3, 15: 4, 8: 17}","[8, 15, 23, 38]",817154233381,Sr1V3P4O17
Sr2P6O17,mp-27583,5.326,0.62922623,0.0,"{38: 2, 15: 6, 8: 17}","[8, 15, 38]",817156382,Sr2P6O17
Sr6Pr3Cu6O17,mp-1218599,0.0,3.83640953,0.013427341523428282,"{38: 6, 59: 3, 29: 6, 8: 17}","[8, 29, 38, 59]",817296386593,Sr6Pr3Cu6O17
Sr8Cu8O17,mp-766079,0.0,3.16052792,0.02627739287878761,"{38: 8, 29: 8, 8: 17}","[8, 29, 38]",817298388,Sr8Cu8O17
Sr5Nb5O17,mp-505228,0.0,4.40840793,0.0,"{38: 5, 41: 5, 8: 17}","[8, 38, 41]",817385415,Sr5Nb5O17
Sr6Te6O17,mp-706599,1.7484999999999995,5.07842954,0.04232624251915684,"{38: 6, 52: 6, 8: 17}","[8, 38, 52]",817386526,Sr6Te6O17
NaSr11(PtO6)3,mp-1221072,0.0,2.73733494,0.0,"{11: 1, 38: 11, 78: 3, 8: 18}","[8, 11, 38, 78]",8181113811783,Na1Sr11Pt3O18
Na2Sr(P2O9)2,mp-1180362,0.5673999999999999,-0.62941156,0.7604113765333391,"{11: 2, 38: 1, 15: 4, 8: 18}","[8, 11, 15, 38]",818112154381,Na2Sr1P4O18
Na2Sr(Ge4O9)2,mp-1212069,2.9601,1.01742898,0.026416571034487468,"{11: 2, 38: 1, 32: 8, 8: 18}","[8, 11, 32, 38]",818112328381,Na2Sr1Ge8O18
Sr6Mg(W2O9)2,mp-1234368,2.3113000000000006,2.69017357,0.07444515068964641,"{38: 6, 12: 1, 74: 4, 8: 18}","[8, 12, 38, 74]",818121386744,Sr6Mg1W4O18
Sr4Ru6ClO18,mp-1193929,0.0,3.03627723,0.0011696509770056096,"{38: 4, 44: 6, 17: 1, 8: 18}","[8, 17, 38, 44]",818171384446,Sr4Ru6Cl1O18
KSrLa4Mn6O18,mp-532792,0.0,5.81466615,0.15391323795207867,"{19: 1, 38: 1, 57: 4, 25: 6, 8: 18}","[8, 19, 25, 38, 57]",818191256381574,K1Sr1La4Mn6O18
K2Sr(Ge4O9)2,mp-1212505,2.9314999999999998,0.84953345,0.021324488706894407,"{19: 2, 38: 1, 32: 8, 8: 18}","[8, 19, 32, 38]",818192328381,K2Sr1Ge8O18
SrCa2Lu10O18,mp-1218802,2.8863000000000003,1.64339864,0.06680462895162975,"{38: 1, 20: 2, 71: 10, 8: 18}","[8, 20, 38, 71]",8182023817110,Sr1Ca2Lu10O18
SrCa3Lu9O18,mp-1209065,0.0,1.41291318,0.06404510834677524,"{38: 1, 20: 3, 71: 9, 8: 18}","[8, 20, 38, 71]",818203381719,Sr1Ca3Lu9O18
Sr2Ti5(Bi2O9)2,mp-1218800,2.0942999999999996,6.09458818,0.007536681465518669,"{38: 2, 22: 5, 83: 4, 8: 18}","[8, 22, 38, 83]",818225382834,Sr2Ti5Bi4O18
SrV13O18,mp-510250,0.0,5.46915371,0.057737876302901725,"{38: 1, 23: 13, 8: 18}","[8, 23, 38]",8182313381,Sr1V13O18
Sr2V3Se5O18,mp-1197632,2.5648999999999997,1.46303244,0.009463634241080321,"{38: 2, 23: 3, 34: 5, 8: 18}","[8, 23, 34, 38]",818233345382,Sr2V3Se5O18
Sr9Cr5O18,mp-29919,0.8572000000000002,3.44373143,0.014762756523436948,"{38: 9, 24: 5, 8: 18}","[8, 24, 38]",818245389,Sr9Cr5O18
SrLa4Mn3(CuO9)2,mp-1209217,0.0,2.43329406,0.40580951564285694,"{38: 1, 57: 4, 25: 3, 29: 2, 8: 18}","[8, 25, 29, 38, 57]",818253292381574,Sr1La4Mn3Cu2O18
Sr4La2Mn3(IrO6)3,mp-1218666,0.0,5.27122156,0.128135143452778,"{38: 4, 57: 2, 25: 3, 77: 3, 8: 18}","[8, 25, 38, 57, 77]",818253384572773,Sr4La2Mn3Ir3O18
Sr4CeY3Fe2(Cu2O9)2,mp-1218645,0.0,3.84078774,0.040148890211384014,"{38: 4, 58: 1, 39: 3, 26: 2, 29: 4, 8: 18}","[8, 26, 29, 38, 39, 58]",818262294384393581,Sr4Ce1Y3Fe2Cu4O18
Sr3Fe2(SeO3)6,mp-556960,0.7642,1.05963906,0.0,"{38: 3, 26: 2, 34: 6, 8: 18}","[8, 26, 34, 38]",818262346383,Sr3Fe2Se6O18
Sr4Fe4Bi5PbO18,mp-1218774,0.0,5.47184079,0.18137743573242382,"{38: 4, 26: 4, 83: 5, 82: 1, 8: 18}","[8, 26, 38, 82, 83]",818264384821835,Sr4Fe4Bi5Pb1O18
Sr8Cu(WO6)3,mp-1218848,0.0,2.28777685,0.05921078016666481,"{38: 8, 29: 1, 74: 3, 8: 18}","[8, 29, 38, 74]",818291388743,Sr8Cu1W3O18
Sr5CeNd3Cu4PbO18,mp-1218731,0.0,3.7420215,0.05126309664062756,"{38: 5, 58: 1, 60: 3, 29: 4, 82: 1, 8: 18}","[8, 29, 38, 58, 60, 82]",818294385581603821,Sr5Ce1Nd3Cu4Pb1O18
SrU3(SeO9)2,mp-1217862,1.4102000000000001,2.08856792,0.37710856010416816,"{38: 1, 92: 3, 34: 2, 8: 18}","[8, 34, 38, 92]",818342381923,Sr1U3Se2O18
Ba4Sr2Y3(SbO6)3,mp-1228243,3.9096,6.87252518,0.01723106366666194,"{56: 4, 38: 2, 39: 3, 51: 3, 8: 18}","[8, 38, 39, 51, 56]",818382393513564,Ba4Sr2Y3Sb3O18
Ba4Sr2Lu3(BiO6)3,mp-1228201,1.0072,2.33936174,0.00990750650001182,"{56: 4, 38: 2, 71: 3, 83: 3, 8: 18}","[8, 38, 56, 71, 83]",818382564713833,Ba4Sr2Lu3Bi3O18
Sr5(IrO3)6,mp-766034,0.0,4.00857999,0.04506265793103381,"{38: 5, 77: 6, 8: 18}","[8, 38, 77]",818385776,Sr5Ir6O18
Sr5U5O18,mp-675076,0.005700000000000038,5.50733225,0.0,"{38: 5, 92: 5, 8: 18}","[8, 38, 92]",818385925,Sr5U5O18
Sr5La2Mn8(O3F)6,mp-743681,0.0,3.51551521,0.2039334623547555,"{38: 5, 57: 2, 25: 8, 8: 18, 9: 6}","[8, 9, 25, 38, 57]",81896258385572,Sr5La2Mn8O18F6
Sr2V2OF10,mp-1209027,0.0,0.46315575,0.0,"{38: 2, 23: 2, 8: 1, 9: 10}","[8, 9, 23, 38]",81910232382,Sr2V2O1F10
Sr2Fe2S2OF2,mp-549237,1.4676999999999998,3.23393914,0.04153601518518446,"{38: 2, 26: 2, 16: 2, 8: 1, 9: 2}","[8, 9, 16, 26, 38]",8192162262382,Sr2Fe2S2O1F2
Sr2Ti2As2OF2,mp-1079747,0.0,4.40521707,0.0,"{38: 2, 22: 2, 33: 2, 8: 1, 9: 2}","[8, 9, 22, 33, 38]",8192222332382,Sr2Ti2As2O1F2
Sr2Ti2Sb2OF2,mp-1079717,0.0,5.25890835,0.0,"{38: 2, 22: 2, 51: 2, 8: 1, 9: 2}","[8, 9, 22, 38, 51]",8192222382512,Sr2Ti2Sb2O1F2
Sr2Ti2Bi2OF2,mp-1078216,0.0,5.18165222,0.0,"{38: 2, 22: 2, 83: 2, 8: 1, 9: 2}","[8, 9, 22, 38, 83]",8192222382832,Sr2Ti2Bi2O1F2
Sr2Fe2Se2OF2,mp-550944,0.0,3.34260221,0.010261624444442674,"{38: 2, 26: 2, 34: 2, 8: 1, 9: 2}","[8, 9, 26, 34, 38]",8192262342382,Sr2Fe2Se2O1F2
Sr5Ti7O19,mp-1202132,1.8207999999999998,-1.08557349,0.09234932290322462,"{38: 5, 22: 7, 8: 19}","[8, 22, 38]",819227385,Sr5Ti7O19
SrCuOF2,mp-1147566,0.0,2.7139044,0.3404412879999974,"{38: 1, 29: 1, 8: 1, 9: 2}","[8, 9, 29, 38]",8192291381,Sr1Cu1O1F2
Sr8V6O19,mp-1218609,0.46779999999999955,4.54624433,0.01892442941291339,"{38: 8, 23: 6, 8: 19}","[8, 23, 38]",819236388,Sr8V6O19
SrCr9Ga3O19,mp-1218679,1.9672999999999998,5.62728103,0.0016484104492189289,"{38: 1, 24: 9, 31: 3, 8: 19}","[8, 24, 31, 38]",819249313381,Sr1Cr9Ga3O19
SrFe12O19,mp-3742,1.1401999999999997,4.08173694,0.0724712247265682,"{38: 1, 26: 12, 8: 19}","[8, 26, 38]",8192612381,Sr1Fe12O19
SrCo12O19,mp-562506,0.0,3.38312702,0.03774064531249799,"{38: 1, 27: 12, 8: 19}","[8, 27, 38]",8192712381,Sr1Co12O19