formula,material_id,band_gap,efermi,energy_above_hull,comp_atoms,sorted_keys_comp_atoms,comp_number,new_formula
Sr2CaMoO6,mp-19116,2.6243,1.94062282,0.0,"{38: 2, 20: 1, 42: 1, 8: 6}","[8, 20, 38, 42]",86201382421,Sr2Ca1Mo1O6
Sr2CaSbO6,mp-1208881,0.0,2.32516045,0.0,"{38: 2, 20: 1, 51: 1, 8: 6}","[8, 20, 38, 51]",86201382511,Sr2Ca1Sb1O6
Sr2CaTeO6,mp-11982,3.2142,2.86756709,0.0,"{38: 2, 20: 1, 52: 1, 8: 6}","[8, 20, 38, 52]",86201382521,Sr2Ca1Te1O6
Sr2CaWO6,mp-1105247,3.5269,5.32057957,0.0,"{38: 2, 20: 1, 74: 1, 8: 6}","[8, 20, 38, 74]",86201382741,Sr2Ca1W1O6
Sr2CaReO6,mp-1188807,0.0,4.20544632,0.0,"{38: 2, 20: 1, 75: 1, 8: 6}","[8, 20, 38, 75]",86201382751,Sr2Ca1Re1O6
Sr2CaOsO6,mp-1206283,0.0,3.74979415,0.0047778618909184445,"{38: 2, 20: 1, 76: 1, 8: 6}","[8, 20, 38, 76]",86201382761,Sr2Ca1Os1O6
Sr2CaIrO6,mp-15002,0.0,3.07508409,0.0,"{38: 2, 20: 1, 77: 1, 8: 6}","[8, 20, 38, 77]",86201382771,Sr2Ca1Ir1O6
Sr2CaUO6,mp-14551,2.2089,2.60567318,0.0,"{38: 2, 20: 1, 92: 1, 8: 6}","[8, 20, 38, 92]",86201382921,Sr2Ca1U1O6
Sr3CaIrO6,mp-559635,0.0,3.8096039,0.0,"{38: 3, 20: 1, 77: 1, 8: 6}","[8, 20, 38, 77]",86201383771,Sr3Ca1Ir1O6
SrCa2(FeO2)3,mp-1218406,0.0,3.8269913,0.07321668833333206,"{38: 1, 20: 2, 26: 3, 8: 6}","[8, 20, 26, 38]",86202263381,Sr1Ca2Fe3O6
Sr2Ca2IrO6,mp-1218864,0.0,3.98414607,0.021202795727283785,"{38: 2, 20: 2, 77: 1, 8: 6}","[8, 20, 38, 77]",86202382771,Sr2Ca2Ir1O6
SrCa3(CuO3)2,mp-1218400,0.0,4.19070839,0.017976345138889016,"{38: 1, 20: 3, 29: 2, 8: 6}","[8, 20, 29, 38]",86203292381,Sr1Ca3Cu2O6
SrCa3IrO6,mp-1218449,0.0,4.07666222,0.029775714999996872,"{38: 1, 20: 3, 77: 1, 8: 6}","[8, 20, 38, 77]",86203381771,Sr1Ca3Ir1O6
Sr2ScNbO6,mp-1208760,2.9419999999999997,5.08714107,0.0,"{38: 2, 21: 1, 41: 1, 8: 6}","[8, 21, 38, 41]",86211382411,Sr2Sc1Nb1O6
BaSr2ScInO6,mp-1227696,1.6908999999999996,2.59332548,0.035473508181824265,"{56: 1, 38: 2, 21: 1, 49: 1, 8: 6}","[8, 21, 38, 49, 56]",86211382491561,Ba1Sr2Sc1In1O6
Sr2ScSbO6,mp-1106218,3.5074,6.82625963,0.0,"{38: 2, 21: 1, 51: 1, 8: 6}","[8, 21, 38, 51]",86211382511,Sr2Sc1Sb1O6
Sr2ScTaO6,mp-1208776,3.4213,2.22760599,0.0,"{38: 2, 21: 1, 73: 1, 8: 6}","[8, 21, 38, 73]",86211382731,Sr2Sc1Ta1O6
Sr2ScReO6,mp-1206178,0.0,4.88503888,0.011460405386896966,"{38: 2, 21: 1, 75: 1, 8: 6}","[8, 21, 38, 75]",86211382751,Sr2Sc1Re1O6
Sr2ScOsO6,mp-1205575,0.0,4.34204026,0.0,"{38: 2, 21: 1, 76: 1, 8: 6}","[8, 21, 38, 76]",86211382761,Sr2Sc1Os1O6
Sr2ScIrO6,mp-10301,0.0,3.89836232,0.0,"{38: 2, 21: 1, 77: 1, 8: 6}","[8, 21, 38, 77]",86211382771,Sr2Sc1Ir1O6
Sr2ScBiO6,mp-1208736,1.7949000000000002,3.03736103,0.003185829833331155,"{38: 2, 21: 1, 83: 1, 8: 6}","[8, 21, 38, 83]",86211382831,Sr2Sc1Bi1O6
Sr3ScRhO6,mp-18247,2.2580999999999998,3.72257965,0.0,"{38: 3, 21: 1, 45: 1, 8: 6}","[8, 21, 38, 45]",86211383451,Sr3Sc1Rh1O6
SrLaTiMnO6,mp-691117,0.0,5.96452643,0.08342192672618687,"{38: 1, 57: 1, 22: 1, 25: 1, 8: 6}","[8, 22, 25, 38, 57]",86221251381571,Sr1La1Ti1Mn1O6
SrTiMnBiO6,mp-1217765,0.0,5.62615501,0.15485704754999663,"{38: 1, 22: 1, 25: 1, 83: 1, 8: 6}","[8, 22, 25, 38, 83]",86221251381831,Sr1Ti1Mn1Bi1O6
Sr2TiMnO6,mp-1206645,0.9884,3.42550504,0.0,"{38: 2, 22: 1, 25: 1, 8: 6}","[8, 22, 25, 38]",86221251382,Sr2Ti1Mn1O6
SrLaTiFeO6,mp-1218147,1.7674000000000003,5.05479605,0.04435725400000656,"{38: 1, 57: 1, 22: 1, 26: 1, 8: 6}","[8, 22, 26, 38, 57]",86221261381571,Sr1La1Ti1Fe1O6
SrTiFeBiO6,mp-1217783,2.4347000000000003,3.57916547,0.015481548750000407,"{38: 1, 22: 1, 26: 1, 83: 1, 8: 6}","[8, 22, 26, 38, 83]",86221261381831,Sr1Ti1Fe1Bi1O6
Sr2TiFeO6,mp-1218692,0.0,2.96309372,0.006783151749999661,"{38: 2, 22: 1, 26: 1, 8: 6}","[8, 22, 26, 38]",86221261382,Sr2Ti1Fe1O6
SrZrTiSnO6,mp-1521811,2.2854,3.70914872,0.13491672900000928,"{38: 1, 40: 1, 22: 1, 50: 1, 8: 6}","[8, 22, 38, 40, 50]",86221381401501,Sr1Zr1Ti1Sn1O6
SrNdZrTiO6,mp-1518683,0.0,6.41733953,0.1508251714999993,"{38: 1, 60: 1, 40: 1, 22: 1, 8: 6}","[8, 22, 38, 40, 60]",86221381401601,Sr1Nd1Zr1Ti1O6
SrSmZrTiO6,mp-1516441,0.0,6.36003325,0.18810306237499042,"{38: 1, 62: 1, 40: 1, 22: 1, 8: 6}","[8, 22, 38, 40, 62]",86221381401621,Sr1Sm1Zr1Ti1O6
SrEuZrTiO6,mp-1518697,0.00649999999999995,4.85134873,0.054688759250000274,"{38: 1, 63: 1, 40: 1, 22: 1, 8: 6}","[8, 22, 38, 40, 63]",86221381401631,Sr1Eu1Zr1Ti1O6
SrGdZrTiO6,mp-1523038,0.0,5.97024852,0.17181973199998524,"{38: 1, 64: 1, 40: 1, 22: 1, 8: 6}","[8, 22, 38, 40, 64]",86221381401641,Sr1Gd1Zr1Ti1O6
SrTiNbSnO6,mp-1517760,0.0,6.54185182,0.12898449762499808,"{38: 1, 22: 1, 41: 1, 50: 1, 8: 6}","[8, 22, 38, 41, 50]",86221381411501,Sr1Ti1Nb1Sn1O6
SrSmTiNbO6,mp-1518511,0.0,6.79209752,0.19391522137500417,"{38: 1, 62: 1, 22: 1, 41: 1, 8: 6}","[8, 22, 38, 41, 62]",86221381411621,Sr1Sm1Ti1Nb1O6
SrEuTiNbO6,mp-1519324,0.0,5.73561604,0.012330015750016798,"{38: 1, 63: 1, 22: 1, 41: 1, 8: 6}","[8, 22, 38, 41, 63]",86221381411631,Sr1Eu1Ti1Nb1O6
SrEuTiInO6,mp-1519580,0.0,3.38636918,0.22428134649999976,"{38: 1, 63: 1, 22: 1, 49: 1, 8: 6}","[8, 22, 38, 49, 63]",86221381491631,Sr1Eu1Ti1In1O6
SrHfTiInO6,mp-1518608,0.0,4.75268168,0.18972724769444582,"{38: 1, 72: 1, 22: 1, 49: 1, 8: 6}","[8, 22, 38, 49, 72]",86221381491721,Sr1Hf1Ti1In1O6
SrEuTiSnO6,mp-1517075,0.2790000000000008,6.75892521,0.06693355581249882,"{38: 1, 63: 1, 22: 1, 50: 1, 8: 6}","[8, 22, 38, 50, 63]",86221381501631,Sr1Eu1Ti1Sn1O6
SrHfTiSnO6,mp-1520298,2.2211,3.89816306,0.11422366975001097,"{38: 1, 72: 1, 22: 1, 50: 1, 8: 6}","[8, 22, 38, 50, 72]",86221381501721,Sr1Hf1Ti1Sn1O6
BaSrCeTiO6,mp-1522308,2.1393000000000004,2.87388006,0.05461273499999386,"{56: 1, 38: 1, 58: 1, 22: 1, 8: 6}","[8, 22, 38, 56, 58]",86221381561581,Ba1Sr1Ce1Ti1O6
BaSrPrTiO6,mp-1517332,0.0,1.83662088,0.1269650204895747,"{56: 1, 38: 1, 59: 1, 22: 1, 8: 6}","[8, 22, 38, 56, 59]",86221381561591,Ba1Sr1Pr1Ti1O6
BaSrTbTiO6,mp-1522656,0.0,1.90104529,0.09022294831250477,"{56: 1, 38: 1, 65: 1, 22: 1, 8: 6}","[8, 22, 38, 56, 65]",86221381561651,Ba1Sr1Tb1Ti1O6
BaSrTiBiO6,mp-1518116,0.0,4.0924766,0.10540222399999344,"{56: 1, 38: 1, 22: 1, 83: 1, 8: 6}","[8, 22, 38, 56, 83]",86221381561831,Ba1Sr1Ti1Bi1O6
SrNdHfTiO6,mp-1520248,0.0,6.64608592,0.1439888242500018,"{38: 1, 60: 1, 72: 1, 22: 1, 8: 6}","[8, 22, 38, 60, 72]",86221381601721,Sr1Nd1Hf1Ti1O6
SrSmHfTiO6,mp-1520741,0.0,6.59413556,0.17975401812498504,"{38: 1, 62: 1, 72: 1, 22: 1, 8: 6}","[8, 22, 38, 62, 72]",86221381621721,Sr1Sm1Hf1Ti1O6
SrEuHfTiO6,mp-1519425,0.11830000000000052,5.28093235,0.04389420999999949,"{38: 1, 63: 1, 72: 1, 22: 1, 8: 6}","[8, 22, 38, 63, 72]",86221381631721,Sr1Eu1Hf1Ti1O6
Sr2ZrTiO6,mp-1080028,1.8689,2.63565502,0.017015185749999162,"{38: 2, 40: 1, 22: 1, 8: 6}","[8, 22, 38, 40]",86221382401,Sr2Zr1Ti1O6
Sr2TiMoO6,mp-1078580,0.0,4.90362886,0.026625541499999628,"{38: 2, 22: 1, 42: 1, 8: 6}","[8, 22, 38, 42]",86221382421,Sr2Ti1Mo1O6
Sr2TiRuO6,mp-1218387,0.0,4.72414521,0.004991430999998769,"{38: 2, 22: 1, 44: 1, 8: 6}","[8, 22, 38, 44]",86221382441,Sr2Ti1Ru1O6
Sr2TiSnO6,mp-1519075,2.9853999999999994,3.83517424,0.02248214974999918,"{38: 2, 22: 1, 50: 1, 8: 6}","[8, 22, 38, 50]",86221382501,Sr2Ti1Sn1O6
Sr2TiSbO6,mp-1520180,0.0,6.27888934,0.1209962626000074,"{38: 2, 22: 1, 51: 1, 8: 6}","[8, 22, 38, 51]",86221382511,Sr2Ti1Sb1O6
Sr2CeTiO6,mp-1522630,2.2495,3.06737081,0.100233760499993,"{38: 2, 58: 1, 22: 1, 8: 6}","[8, 22, 38, 58]",86221382581,Sr2Ce1Ti1O6
Sr2TbTiO6,mp-1519771,0.0,1.9454292,0.12365573243751271,"{38: 2, 65: 1, 22: 1, 8: 6}","[8, 22, 38, 65]",86221382651,Sr2Tb1Ti1O6
Sr2HfTiO6,mp-1218807,2.4806999999999997,2.7741955,0.018669173499997527,"{38: 2, 72: 1, 22: 1, 8: 6}","[8, 22, 38, 72]",86221382721,Sr2Hf1Ti1O6
Sr2TiBiO6,mp-1520382,0.0,4.34190056,0.13165976199999907,"{38: 2, 22: 1, 83: 1, 8: 6}","[8, 22, 38, 83]",86221382831,Sr2Ti1Bi1O6
BaSrTi2O6,mp-1227336,1.7175000000000002,3.1920805,0.008544947999984842,"{56: 1, 38: 1, 22: 2, 8: 6}","[8, 22, 38, 56]",86222381561,Ba1Sr1Ti2O6
SrLaVFeO6,mp-1218148,1.2001,5.37681514,0.05445661333334506,"{38: 1, 57: 1, 23: 1, 26: 1, 8: 6}","[8, 23, 26, 38, 57]",86231261381571,Sr1La1V1Fe1O6
BaSrYVO6,mp-1522214,1.6099000000000006,2.52376344,0.11164552743751521,"{56: 1, 38: 1, 39: 1, 23: 1, 8: 6}","[8, 23, 38, 39, 56]",86231381391561,Ba1Sr1Y1V1O6
SrZrVSnO6,mp-1517400,0.0,5.20496341,0.1818701082124985,"{38: 1, 40: 1, 23: 1, 50: 1, 8: 6}","[8, 23, 38, 40, 50]",86231381401501,Sr1Zr1V1Sn1O6
SrEuZrVO6,mp-1519238,0.0,4.29346018,0.10238692831250162,"{38: 1, 63: 1, 40: 1, 23: 1, 8: 6}","[8, 23, 38, 40, 63]",86231381401631,Sr1Eu1Zr1V1O6
SrNbVSnO6,mp-1516531,0.0,5.45218045,0.14413405206249585,"{38: 1, 41: 1, 23: 1, 50: 1, 8: 6}","[8, 23, 38, 41, 50]",86231381411501,Sr1Nb1V1Sn1O6
SrEuNbVO6,mp-1521910,0.0,4.8062402,0.010710734020829449,"{38: 1, 63: 1, 41: 1, 23: 1, 8: 6}","[8, 23, 38, 41, 63]",86231381411631,Sr1Eu1Nb1V1O6
SrPrVSnO6,mp-1522887,0.0,6.11838853,0.18456356624999692,"{38: 1, 59: 1, 23: 1, 50: 1, 8: 6}","[8, 23, 38, 50, 59]",86231381501591,Sr1Pr1V1Sn1O6
SrHfVSnO6,mp-1520913,0.0,5.31895551,0.17692747287499877,"{38: 1, 72: 1, 23: 1, 50: 1, 8: 6}","[8, 23, 38, 50, 72]",86231381501721,Sr1Hf1V1Sn1O6
SrVSnWO6,mp-1521404,0.4945000000000004,6.06923121,0.13200396506250556,"{38: 1, 23: 1, 50: 1, 74: 1, 8: 6}","[8, 23, 38, 50, 74]",86231381501741,Sr1V1Sn1W1O6
BaSrLaVO6,mp-1520602,1.8488000000000002,3.10171152,0.15124940462501524,"{56: 1, 38: 1, 57: 1, 23: 1, 8: 6}","[8, 23, 38, 56, 57]",86231381561571,Ba1Sr1La1V1O6
BaSrCeVO6,mp-1521863,1.2290000000000005,3.71933656,0.05736978544817717,"{56: 1, 38: 1, 58: 1, 23: 1, 8: 6}","[8, 23, 38, 56, 58]",86231381561581,Ba1Sr1Ce1V1O6
BaSrPrVO6,mp-1521162,1.8192,2.13770626,0.14981804943751698,"{56: 1, 38: 1, 59: 1, 23: 1, 8: 6}","[8, 23, 38, 56, 59]",86231381561591,Ba1Sr1Pr1V1O6
BaSrNdVO6,mp-1516350,1.6697000000000002,2.3437124,0.14658995487498494,"{56: 1, 38: 1, 60: 1, 23: 1, 8: 6}","[8, 23, 38, 56, 60]",86231381561601,Ba1Sr1Nd1V1O6
BaSrSmVO6,mp-1517230,1.6407000000000003,2.41995012,0.14054232806252376,"{56: 1, 38: 1, 62: 1, 23: 1, 8: 6}","[8, 23, 38, 56, 62]",86231381561621,Ba1Sr1Sm1V1O6
BaSrEuVO6,mp-1518816,0.0,2.51291818,0.2046745790000699,"{56: 1, 38: 1, 63: 1, 23: 1, 8: 6}","[8, 23, 38, 56, 63]",86231381561631,Ba1Sr1Eu1V1O6
BaSrGdVO6,mp-1519521,1.5448,2.46660558,0.12217938175001564,"{56: 1, 38: 1, 64: 1, 23: 1, 8: 6}","[8, 23, 38, 56, 64]",86231381561641,Ba1Sr1Gd1V1O6
BaSrTbVO6,mp-1517812,1.6178,2.51953855,0.11488135543751365,"{56: 1, 38: 1, 65: 1, 23: 1, 8: 6}","[8, 23, 38, 56, 65]",86231381561651,Ba1Sr1Tb1V1O6
BaSrDyVO6,mp-1516351,1.6306999999999996,2.44133793,0.10866933350001418,"{56: 1, 38: 1, 66: 1, 23: 1, 8: 6}","[8, 23, 38, 56, 66]",86231381561661,Ba1Sr1Dy1V1O6
BaSrVBiO6,mp-1521465,0.9855999999999998,4.00896087,0.18034606699999767,"{56: 1, 38: 1, 23: 1, 83: 1, 8: 6}","[8, 23, 38, 56, 83]",86231381561831,Ba1Sr1V1Bi1O6
SrSmEuVO6,mp-1519755,0.05439999999999934,4.12673971,0.23321496479164594,"{38: 1, 62: 1, 63: 1, 23: 1, 8: 6}","[8, 23, 38, 62, 63]",86231381621631,Sr1Sm1Eu1V1O6
SrTbEuVO6,mp-1517713,0.05860000000000021,3.69219544,0.20312727862497404,"{38: 1, 65: 1, 63: 1, 23: 1, 8: 6}","[8, 23, 38, 63, 65]",86231381631651,Sr1Tb1Eu1V1O6
Sr2YVO6,mp-1517134,1.6134,2.48928502,0.11579059643754874,"{38: 2, 39: 1, 23: 1, 8: 6}","[8, 23, 38, 39]",86231382391,Sr2Y1V1O6
Sr2ZrVO6,mp-1272971,1.1696999999999997,4.38351327,0.008705506930116513,"{38: 2, 40: 1, 23: 1, 8: 6}","[8, 23, 38, 40]",86231382401,Sr2Zr1V1O6
Sr2VMoO6,mp-1282190,0.37040000000000006,4.46567615,0.010642213828127467,"{38: 2, 23: 1, 42: 1, 8: 6}","[8, 23, 38, 42]",86231382421,Sr2V1Mo1O6
Sr2VInO6,mp-1521078,1.7974999999999999,3.52930958,0.11858735374999796,"{38: 2, 23: 1, 49: 1, 8: 6}","[8, 23, 38, 49]",86231382491,Sr2V1In1O6
Sr2VSnO6,mp-1519447,0.0,5.28614177,0.09439728912499845,"{38: 2, 23: 1, 50: 1, 8: 6}","[8, 23, 38, 50]",86231382501,Sr2V1Sn1O6
Sr2CeVO6,mp-1520912,0.0,4.79953534,0.13284921485000112,"{38: 2, 58: 1, 23: 1, 8: 6}","[8, 23, 38, 58]",86231382581,Sr2Ce1V1O6
Sr2PrVO6,mp-1517869,1.6583999999999999,2.3350221,0.19846715693754735,"{38: 2, 59: 1, 23: 1, 8: 6}","[8, 23, 38, 59]",86231382591,Sr2Pr1V1O6
Sr2NdVO6,mp-1522778,1.6477000000000004,2.3458214,0.182999948374988,"{38: 2, 60: 1, 23: 1, 8: 6}","[8, 23, 38, 60]",86231382601,Sr2Nd1V1O6
Sr2SmVO6,mp-1521309,1.6372,2.35901795,0.15604222206248863,"{38: 2, 62: 1, 23: 1, 8: 6}","[8, 23, 38, 62]",86231382621,Sr2Sm1V1O6
Sr2EuVO6,mp-1521428,0.0,2.71094071,0.2318906585000473,"{38: 2, 63: 1, 23: 1, 8: 6}","[8, 23, 38, 63]",86231382631,Sr2Eu1V1O6
Sr2GdVO6,mp-1520195,1.4759000000000002,2.49500812,0.13208536974998886,"{38: 2, 64: 1, 23: 1, 8: 6}","[8, 23, 38, 64]",86231382641,Sr2Gd1V1O6
Sr2TbVO6,mp-1521423,1.6184000000000003,2.43972412,0.12141954043748981,"{38: 2, 65: 1, 23: 1, 8: 6}","[8, 23, 38, 65]",86231382651,Sr2Tb1V1O6
Sr2DyVO6,mp-1517709,0.0,2.42616985,0.11293031850004542,"{38: 2, 66: 1, 23: 1, 8: 6}","[8, 23, 38, 66]",86231382661,Sr2Dy1V1O6
Sr2HfVO6,mp-1518433,0.0,4.34667278,0.05804287293011612,"{38: 2, 72: 1, 23: 1, 8: 6}","[8, 23, 38, 72]",86231382721,Sr2Hf1V1O6
Sr2TaVO6,mp-1205944,0.0,4.73284853,0.0,"{38: 2, 73: 1, 23: 1, 8: 6}","[8, 23, 38, 73]",86231382731,Sr2Ta1V1O6
Sr2VWO6,mp-1519311,0.8022,5.17291471,0.012787181062499542,"{38: 2, 23: 1, 74: 1, 8: 6}","[8, 23, 38, 74]",86231382741,Sr2V1W1O6
SrV2O6,mp-19038,2.5842,0.71471834,0.0007971051388881989,"{38: 1, 23: 2, 8: 6}","[8, 23, 38]",86232381,Sr1V2O6
Sr2MnCrO6,mp-1218765,0.0,3.12987539,0.06144295611112316,"{38: 2, 25: 1, 24: 1, 8: 6}","[8, 24, 25, 38]",86241251382,Sr2Mn1Cr1O6
BaSrYCrO6,mp-1516437,0.0,2.64535188,0.1492181595937465,"{56: 1, 38: 1, 39: 1, 24: 1, 8: 6}","[8, 24, 38, 39, 56]",86241381391561,Ba1Sr1Y1Cr1O6
SrEuYCrO6,mp-1519529,0.0,2.74175497,0.2777782849062511,"{38: 1, 63: 1, 39: 1, 24: 1, 8: 6}","[8, 24, 38, 39, 63]",86241381391631,Sr1Eu1Y1Cr1O6
SrNdZrCrO6,mp-1520463,2.4526999999999997,3.59923824,0.15183350550000263,"{38: 1, 60: 1, 40: 1, 24: 1, 8: 6}","[8, 24, 38, 40, 60]",86241381401601,Sr1Nd1Zr1Cr1O6
SrSmZrCrO6,mp-1518505,2.4086999999999996,3.7030914,0.18801222449999955,"{38: 1, 62: 1, 40: 1, 24: 1, 8: 6}","[8, 24, 38, 40, 62]",86241381401621,Sr1Sm1Zr1Cr1O6
SrEuZrCrO6,mp-1518073,0.0,3.15124134,0.1532413862750044,"{38: 1, 63: 1, 40: 1, 24: 1, 8: 6}","[8, 24, 38, 40, 63]",86241381401631,Sr1Eu1Zr1Cr1O6
SrNbCrSnO6,mp-1517681,2.1416999999999993,4.11339913,0.1135047000000089,"{38: 1, 41: 1, 24: 1, 50: 1, 8: 6}","[8, 24, 38, 41, 50]",86241381411501,Sr1Nb1Cr1Sn1O6
SrEuNbCrO6,mp-1518389,0.0,5.43197098,0.009116653361122218,"{38: 1, 63: 1, 41: 1, 24: 1, 8: 6}","[8, 24, 38, 41, 63]",86241381411631,Sr1Eu1Nb1Cr1O6
SrEuCrInO6,mp-1518655,0.0,3.81668938,0.2615713009166827,"{38: 1, 63: 1, 24: 1, 49: 1, 8: 6}","[8, 24, 38, 49, 63]",86241381491631,Sr1Eu1Cr1In1O6
SrCrInWO6,mp-1519512,0.29520000000000035,5.65814327,0.16318859007143516,"{38: 1, 24: 1, 49: 1, 74: 1, 8: 6}","[8, 24, 38, 49, 74]",86241381491741,Sr1Cr1In1W1O6
SrCrSnSbO6,mp-1521763,0.8796999999999997,5.40278366,0.18318395078409289,"{38: 1, 24: 1, 50: 1, 51: 1, 8: 6}","[8, 24, 38, 50, 51]",86241381501511,Sr1Cr1Sn1Sb1O6
BaSrCrSnO6,mp-1516623,0.0,3.61483168,0.11648512218749563,"{56: 1, 38: 1, 24: 1, 50: 1, 8: 6}","[8, 24, 38, 50, 56]",86241381501561,Ba1Sr1Cr1Sn1O6
SrLaCrSnO6,mp-1521441,2.0275999999999996,5.69430593,0.11062681499999982,"{38: 1, 57: 1, 24: 1, 50: 1, 8: 6}","[8, 24, 38, 50, 57]",86241381501571,Sr1La1Cr1Sn1O6
SrCeCrSnO6,mp-1517421,0.12769999999999992,6.86840267,0.20641390087501144,"{38: 1, 58: 1, 24: 1, 50: 1, 8: 6}","[8, 24, 38, 50, 58]",86241381501581,Sr1Ce1Cr1Sn1O6
SrPrCrSnO6,mp-1522443,2.0575,4.62640606,0.12783165549999964,"{38: 1, 59: 1, 24: 1, 50: 1, 8: 6}","[8, 24, 38, 50, 59]",86241381501591,Sr1Pr1Cr1Sn1O6
SrNdCrSnO6,mp-1521877,2.0900999999999996,4.64587944,0.14619316250000125,"{38: 1, 60: 1, 24: 1, 50: 1, 8: 6}","[8, 24, 38, 50, 60]",86241381501601,Sr1Nd1Cr1Sn1O6
SrSmCrSnO6,mp-1516332,2.1038999999999994,4.64328431,0.18058708450000083,"{38: 1, 62: 1, 24: 1, 50: 1, 8: 6}","[8, 24, 38, 50, 62]",86241381501621,Sr1Sm1Cr1Sn1O6
SrEuCrSnO6,mp-1518792,0.0,4.15773451,0.16381372225000135,"{38: 1, 63: 1, 24: 1, 50: 1, 8: 6}","[8, 24, 38, 50, 63]",86241381501631,Sr1Eu1Cr1Sn1O6
SrCrSnWO6,mp-1517968,0.0,6.4286814,0.18057277878570943,"{38: 1, 24: 1, 50: 1, 74: 1, 8: 6}","[8, 24, 38, 50, 74]",86241381501741,Sr1Cr1Sn1W1O6
SrCrSnBiO6,mp-1517668,0.9519000000000002,5.27591215,0.17089072464583577,"{38: 1, 24: 1, 50: 1, 83: 1, 8: 6}","[8, 24, 38, 50, 83]",86241381501831,Sr1Cr1Sn1Bi1O6
SrEuCrSbO6,mp-1523312,0.0,6.05532601,0.09077334128408765,"{38: 1, 63: 1, 24: 1, 51: 1, 8: 6}","[8, 24, 38, 51, 63]",86241381511631,Sr1Eu1Cr1Sb1O6
SrCrBiSbO6,mp-1518707,0.0,7.12554058,0.20653272875000273,"{38: 1, 24: 1, 83: 1, 51: 1, 8: 6}","[8, 24, 38, 51, 83]",86241381511831,Sr1Cr1Bi1Sb1O6
BaSrCeCrO6,mp-1516756,0.0,3.27081629,0.11438198612501438,"{56: 1, 38: 1, 58: 1, 24: 1, 8: 6}","[8, 24, 38, 56, 58]",86241381561581,Ba1Sr1Ce1Cr1O6
BaSrNdCrO6,mp-1518926,0.0,2.63721661,0.15488310403124572,"{56: 1, 38: 1, 60: 1, 24: 1, 8: 6}","[8, 24, 38, 56, 60]",86241381561601,Ba1Sr1Nd1Cr1O6
BaSrSmCrO6,mp-1521852,0.0,2.57266402,0.1773436672187465,"{56: 1, 38: 1, 62: 1, 24: 1, 8: 6}","[8, 24, 38, 56, 62]",86241381561621,Ba1Sr1Sm1Cr1O6
BaSrEuCrO6,mp-1520360,0.0,2.37921621,0.2020364714062488,"{56: 1, 38: 1, 63: 1, 24: 1, 8: 6}","[8, 24, 38, 56, 63]",86241381561631,Ba1Sr1Eu1Cr1O6
BaSrGdCrO6,mp-1516227,0.0,2.56245812,0.15246938590624737,"{56: 1, 38: 1, 64: 1, 24: 1, 8: 6}","[8, 24, 38, 56, 64]",86241381561641,Ba1Sr1Gd1Cr1O6
BaSrTbCrO6,mp-1522060,0.0,2.60460092,0.151683454593746,"{56: 1, 38: 1, 65: 1, 24: 1, 8: 6}","[8, 24, 38, 56, 65]",86241381561651,Ba1Sr1Tb1Cr1O6
BaSrCrBiO6,mp-1517386,0.14200000000000035,3.26027632,0.12002846495001851,"{56: 1, 38: 1, 24: 1, 83: 1, 8: 6}","[8, 24, 38, 56, 83]",86241381561831,Ba1Sr1Cr1Bi1O6
Ba2SrCrO6,mp-1522756,0.6776,2.2042148,0.13704751550000172,"{56: 2, 38: 1, 24: 1, 8: 6}","[8, 24, 38, 56]",86241381562,Ba2Sr1Cr1O6
SrCeEuCrO6,mp-1516260,0.0,3.59635469,0.25760046125,"{38: 1, 58: 1, 63: 1, 24: 1, 8: 6}","[8, 24, 38, 58, 63]",86241381581631,Sr1Ce1Eu1Cr1O6
SrSmHfCrO6,mp-1520664,2.6321000000000003,3.7396935,0.16775744725000052,"{38: 1, 62: 1, 72: 1, 24: 1, 8: 6}","[8, 24, 38, 62, 72]",86241381621721,Sr1Sm1Hf1Cr1O6
SrEuDyCrO6,mp-1520871,0.0,2.90024218,0.27393411396874967,"{38: 1, 63: 1, 66: 1, 24: 1, 8: 6}","[8, 24, 38, 63, 66]",86241381631661,Sr1Eu1Dy1Cr1O6
SrEuHfCrO6,mp-1518457,0.0,3.19747657,0.13980219600000154,"{38: 1, 63: 1, 72: 1, 24: 1, 8: 6}","[8, 24, 38, 63, 72]",86241381631721,Sr1Eu1Hf1Cr1O6
SrEuCrBiO6,mp-1521023,0.0,4.51836047,0.25439729625000673,"{38: 1, 63: 1, 24: 1, 83: 1, 8: 6}","[8, 24, 38, 63, 83]",86241381631831,Sr1Eu1Cr1Bi1O6
Sr2YCrO6,mp-1079925,0.0,2.5545293,0.14805001862499267,"{38: 2, 39: 1, 24: 1, 8: 6}","[8, 24, 38, 39]",86241382391,Sr2Y1Cr1O6
Sr2ZrCrO6,mp-1080742,0.0,2.8540849,0.0353711369687435,"{38: 2, 40: 1, 24: 1, 8: 6}","[8, 24, 38, 40]",86241382401,Sr2Zr1Cr1O6
Sr2NbCrO6,mp-1205690,2.2687,3.02637809,0.0,"{38: 2, 41: 1, 24: 1, 8: 6}","[8, 24, 38, 41]",86241382411,Sr2Nb1Cr1O6
Sr2CrMoO6,mp-1205606,0.0,4.99966039,0.047035499250004165,"{38: 2, 24: 1, 42: 1, 8: 6}","[8, 24, 38, 42]",86241382421,Sr2Cr1Mo1O6
Sr2CrInO6,mp-1517551,0.0,3.65470935,0.16607014893749383,"{38: 2, 24: 1, 49: 1, 8: 6}","[8, 24, 38, 49]",86241382491,Sr2Cr1In1O6
Sr2CrSnO6,mp-1521920,0.0,3.84503789,0.09728414908333782,"{38: 2, 24: 1, 50: 1, 8: 6}","[8, 24, 38, 50]",86241382501,Sr2Cr1Sn1O6
Sr2CrSbO6,mp-1084823,1.7026999999999997,4.00152827,0.0,"{38: 2, 24: 1, 51: 1, 8: 6}","[8, 24, 38, 51]",86241382511,Sr2Cr1Sb1O6
Sr2LaCrO6,mp-1079391,0.0,3.5566793,0.23737670431248858,"{38: 2, 57: 1, 24: 1, 8: 6}","[8, 24, 38, 57]",86241382571,Sr2La1Cr1O6
Sr2CeCrO6,mp-1520688,0.0,3.36427831,0.1277380652500053,"{38: 2, 58: 1, 24: 1, 8: 6}","[8, 24, 38, 58]",86241382581,Sr2Ce1Cr1O6
Sr2SmCrO6,mp-1522861,0.0,2.60538216,0.18956682924999502,"{38: 2, 62: 1, 24: 1, 8: 6}","[8, 24, 38, 62]",86241382621,Sr2Sm1Cr1O6
Sr2EuCrO6,mp-1517600,0.0,2.71138527,0.23367292568748965,"{38: 2, 63: 1, 24: 1, 8: 6}","[8, 24, 38, 63]",86241382631,Sr2Eu1Cr1O6
Sr2GdCrO6,mp-1518869,0.0,2.57100336,0.16810156393749232,"{38: 2, 64: 1, 24: 1, 8: 6}","[8, 24, 38, 64]",86241382641,Sr2Gd1Cr1O6