formula,material_id,band_gap,efermi,energy_above_hull,comp_atoms,sorted_keys_comp_atoms,comp_number,new_formula
BaSr2(SnO3)3,mp-1227830,1.4113000000000002,3.95250217,0.011656806666669794,"{56: 1, 38: 2, 50: 3, 8: 9}","[8, 38, 50, 56]",89382503561,Ba1Sr2Sn3O9
Sr3UIn2O9,mp-1218755,1.6343,3.5799541,0.027101904333333593,"{38: 3, 92: 1, 49: 2, 8: 9}","[8, 38, 49, 92]",89383492921,Sr3U1In2O9
Sr3La4O9,mp-757624,3.7808,4.46325532,0.05847818796874904,"{38: 3, 57: 4, 8: 9}","[8, 38, 57]",89383574,Sr3La4O9
Sr3Pr4O9,mp-686055,2.3406,1.84765675,0.17158286921874932,"{38: 3, 59: 4, 8: 9}","[8, 38, 59]",89383594,Sr3Pr4O9
Sr3Nd4O9,mp-1218602,3.9774999999999996,2.1721906,0.059913794999999936,"{38: 3, 60: 4, 8: 9}","[8, 38, 60]",89383604,Sr3Nd4O9
Sr3W2O9,mp-756585,3.1847000000000003,2.15644096,0.07315030499999153,"{38: 3, 74: 2, 8: 9}","[8, 38, 74]",89383742,Sr3W2O9
Sr4Nb2O9,mp-28940,3.25,1.4987757,0.0,"{38: 4, 41: 2, 8: 9}","[8, 38, 41]",89384412,Sr4Nb2O9
Sr4Ru2O9,mp-36836,0.0,2.8962822,0.0,"{38: 4, 44: 2, 8: 9}","[8, 38, 44]",89384442,Sr4Ru2O9
Sr4Ta2O9,mp-769271,4.1956999999999995,1.0860685,0.0,"{38: 4, 73: 2, 8: 9}","[8, 38, 73]",89384732,Sr4Ta2O9
Sr4U2O9,mp-1218792,0.18710000000000004,5.20011317,0.0,"{38: 4, 92: 2, 8: 9}","[8, 38, 92]",89384922,Sr4U2O9
Sr3CaZr16(PO4)24,mp-1218809,4.219200000000001,0.25099758,0.0022902343571420403,"{38: 3, 20: 1, 40: 16, 15: 24, 8: 96}","[8, 15, 20, 38, 40]",89615242013834016,Sr3Ca1Zr16P24O96
SrCa3Zr16(PO4)24,mp-1218319,4.1966,0.05776124,0.002045969214284682,"{38: 1, 20: 3, 40: 16, 15: 24, 8: 96}","[8, 15, 20, 38, 40]",89615242033814016,Sr1Ca3Zr16P24O96
SrMnPF,mp-1079195,0.0,3.37587481,0.12598978937499972,"{38: 1, 25: 1, 15: 1, 9: 1}","[9, 15, 25, 38]",91151251381,Sr1Mn1P1F1
Sr2ZnP2F,mp-1208497,0.0,1.5076423,1.2670004372222188,"{38: 2, 30: 1, 15: 2, 9: 1}","[9, 15, 30, 38]",91152301382,Sr2Zn1P2F1
SrCuSF,mp-12444,1.5126,4.70281359,0.0,"{38: 1, 29: 1, 16: 1, 9: 1}","[9, 16, 29, 38]",91161291381,Sr1Cu1S1F1
SrAgSF,mp-1078562,1.2532999999999999,2.8482662,0.007166428125000124,"{38: 1, 47: 1, 16: 1, 9: 1}","[9, 16, 38, 47]",91161381471,Sr1Ag1S1F1
Sr2CuS2F,mp-1208929,0.0,-0.47620721,1.2941517091666697,"{38: 2, 29: 1, 16: 2, 9: 1}","[9, 16, 29, 38]",91162291382,Sr2Cu1S2F1
SrBiS2F,mp-1078631,0.8544,3.12931161,0.008654981083333624,"{38: 1, 83: 1, 16: 2, 9: 1}","[9, 16, 38, 83]",91162381831,Sr1Bi1S2F1
SrClF,mp-22957,5.9376999999999995,0.40018649,0.0,"{38: 1, 17: 1, 9: 1}","[9, 17, 38]",91171381,Sr1Cl1F1
Sr2Cl2F,mp-1206876,0.0,-1.70652662,1.2234728163333344,"{38: 2, 17: 2, 9: 1}","[9, 17, 38]",91172382,Sr2Cl2F1
Sr3CrF12,mp-1210197,0.18189999999999973,-2.45405814,0.49462768999999973,"{38: 3, 24: 1, 9: 12}","[9, 24, 38]",912241383,Sr3Cr1F12
Sr3MnF12,mp-1208713,0.0,-1.78259435,0.15681871109375045,"{38: 3, 25: 1, 9: 12}","[9, 25, 38]",912251383,Sr3Mn1F12
SrAs2F12,mp-1208728,3.6245,0.70961587,0.012028799499997689,"{38: 1, 33: 2, 9: 12}","[9, 33, 38]",912332381,Sr1As2F12
Sr(AuF6)2,mp-1208951,1.193,-2.91719433,0.0,"{38: 1, 79: 2, 9: 12}","[9, 38, 79]",912381792,Sr1Au2F12
Sr3RhF12,mp-1237311,0.0,-3.15910371,0.24683612812500044,"{38: 3, 45: 1, 9: 12}","[9, 38, 45]",912383451,Sr3Rh1F12
SrMnSbF,mp-1080128,0.0,3.73428461,0.046795299997305584,"{38: 1, 25: 1, 51: 1, 9: 1}","[9, 25, 38, 51]",91251381511,Sr1Mn1Sb1F1
SrFeAsF,mp-20807,0.0,3.56613569,0.23785165124999352,"{38: 1, 26: 1, 33: 1, 9: 1}","[9, 26, 33, 38]",91261331381,Sr1Fe1As1F1
Sr2FeAs2F,mp-1208841,0.0,1.8708341,1.385178840833329,"{38: 2, 26: 1, 33: 2, 9: 1}","[9, 26, 33, 38]",91261332382,Sr2Fe1As2F1
SrCuSeF,mp-21228,1.1989,4.12801483,0.00047716156249855146,"{38: 1, 29: 1, 34: 1, 9: 1}","[9, 29, 34, 38]",91291341381,Sr1Cu1Se1F1
SrCuTeF,mp-1091416,1.5171000000000001,5.21447954,0.018134295624999908,"{38: 1, 29: 1, 52: 1, 9: 1}","[9, 29, 38, 52]",91291381521,Sr1Cu1Te1F1
SrZnAsF,mp-1080135,0.6936,3.29413222,0.0,"{38: 1, 30: 1, 33: 1, 9: 1}","[9, 30, 33, 38]",91301331381,Sr1Zn1As1F1
SrZnSbF,mp-1078903,0.0,4.24470242,0.004579403750001099,"{38: 1, 30: 1, 51: 1, 9: 1}","[9, 30, 38, 51]",91301381511,Sr1Zn1Sb1F1
SrSbSe2F,mp-556194,0.12010000000000032,3.5084351,0.010604793499999765,"{38: 1, 51: 1, 34: 2, 9: 1}","[9, 34, 38, 51]",91342381511,Sr1Sb1Se2F1
SrBrF,mp-23024,5.0036,0.58407912,0.0,"{38: 1, 35: 1, 9: 1}","[9, 35, 38]",91351381,Sr1Br1F1
Sr2Br2F,mp-1207250,0.0,-1.7587103,1.1314927148333336,"{38: 2, 35: 2, 9: 1}","[9, 35, 38]",91352382,Sr2Br2F1
SrF,mp-1187162,0.0,2.95272283,0.3197581733333337,"{38: 1, 9: 1}","[9, 38]",91381,Sr1F1
SrAgTeF,mp-1080438,1.2846999999999995,3.77031783,0.0,"{38: 1, 47: 1, 52: 1, 9: 1}","[9, 38, 47, 52]",91381471521,Sr1Ag1Te1F1
SrIF,mp-23046,4.3096000000000005,1.42381739,0.0,"{38: 1, 53: 1, 9: 1}","[9, 38, 53]",91381531,Sr1I1F1
Sr2I2F,mp-1207271,0.0,-1.24780702,1.0066577842500006,"{38: 2, 53: 2, 9: 1}","[9, 38, 53]",91382532,Sr2I2F1
Sr5Cd2Sb5F,mp-867155,0.050200000000000244,3.9708088,0.0,"{38: 5, 48: 2, 51: 5, 9: 1}","[9, 38, 48, 51]",91385482515,Sr5Cd2Sb5F1
Sr5Pb3F,mp-1188272,0.0,3.38789584,0.0,"{38: 5, 82: 3, 9: 1}","[9, 38, 82]",91385823,Sr5Pb3F1
Ba2SrMg4F14,mp-1198727,6.6106,5.43166433,0.0027787444047637777,"{56: 2, 38: 1, 12: 4, 9: 14}","[9, 12, 38, 56]",914124381562,Ba2Sr1Mg4F14
Sr4Zn3F14,mp-28802,4.784000000000001,-1.05922798,0.006220448571426118,"{38: 4, 30: 3, 9: 14}","[9, 30, 38]",914303384,Sr4Zn3F14
Ba3SrMg4F16,mp-1228153,6.687799999999999,-1.37315132,0.012496452916668233,"{56: 3, 38: 1, 12: 4, 9: 16}","[9, 12, 38, 56]",916124381563,Ba3Sr1Mg4F16
SrLa5F17,mp-675492,6.0367,1.65379556,0.022905856376814526,"{38: 1, 57: 5, 9: 17}","[9, 38, 57]",917381575,Sr1La5F17
Sr4Lu3F17,mp-35769,6.6819,-0.35019356,0.0,"{38: 4, 71: 3, 9: 17}","[9, 38, 71]",917384713,Sr4Lu3F17
SrP2(XeF6)3,mp-560352,2.6253,-3.47292587,0.0,"{38: 1, 15: 2, 54: 3, 9: 18}","[9, 15, 38, 54]",918152381543,Sr1P2Xe3F18
SrAs2(XeF6)3,mp-1208723,2.9770999999999996,-1.05257662,0.0,"{38: 1, 33: 2, 54: 3, 9: 18}","[9, 33, 38, 54]",918332381543,Sr1As2Xe3F18
Sr5Cr3F19,mp-1173208,3.3272000000000004,2.58974963,0.005617215555558275,"{38: 5, 24: 3, 9: 19}","[9, 24, 38]",919243385,Sr5Cr3F19
Sr5Fe3F19,mp-1173207,3.6135,2.18729656,0.021034672685189548,"{38: 5, 26: 3, 9: 19}","[9, 26, 38]",919263385,Sr5Fe3F19
Sr5Co3F19,mp-1208697,0.9893,-0.88423585,0.06061325990740585,"{38: 5, 27: 3, 9: 19}","[9, 27, 38]",919273385,Sr5Co3F19
Ba2Na2SrAl4F20,mp-1204071,7.1081,-1.3108239,0.0,"{56: 2, 11: 2, 38: 1, 13: 4, 9: 20}","[9, 11, 13, 38, 56]",920112134381562,Ba2Na2Sr1Al4F20
Sr2SnS3F2,mp-17676,2.0801,2.59612953,0.0,"{38: 2, 50: 1, 16: 3, 9: 2}","[9, 16, 38, 50]",92163382501,Sr2Sn1S3F2
SrSm(ClF)2,mp-1217969,0.0,6.71000568,0.21550077527778022,"{38: 1, 62: 1, 17: 2, 9: 2}","[9, 17, 38, 62]",92172381621,Sr1Sm1Cl2F2
Sr5Zr3F22,mp-29085,5.3637999999999995,-1.2341099,0.0,"{38: 5, 40: 3, 9: 22}","[9, 38, 40]",922385403,Sr5Zr3F22
SrZnF2,mp-1208622,2.609,-0.37672993,0.42863954937500104,"{38: 1, 30: 1, 9: 2}","[9, 30, 38]",92301381,Sr1Zn1F2
Sr2SnSe3F2,mp-17057,1.4478999999999997,2.50117806,0.011308555937500131,"{38: 2, 50: 1, 34: 3, 9: 2}","[9, 34, 38, 50]",92343382501,Sr2Sn1Se3F2
SrF2,mp-981,6.7674,-1.85096453,0.0,"{38: 1, 9: 2}","[9, 38]",92381,Sr1F2
Na3Sr4Cr5F26,mp-1201930,3.3459000000000003,-0.71894536,0.008590828223678848,"{11: 3, 38: 4, 24: 5, 9: 26}","[9, 11, 24, 38]",926113245384,Na3Sr4Cr5F26
Na7Sr2Fe7F32,mp-581085,3.1959999999999997,-1.35171019,0.013906868177083531,"{11: 7, 38: 2, 26: 7, 9: 32}","[9, 11, 26, 38]",932117267382,Na7Sr2Fe7F32
SrF3,mp-727311,0.0,-1.21365432,0.0,"{38: 1, 9: 3}","[9, 38]",93381,Sr1F3
CsSrF3,mp-8397,6.1846,-2.15714812,0.019347563999998485,"{55: 1, 38: 1, 9: 3}","[9, 38, 55]",93381551,Cs1Sr1F3
Na2Sr6ZnFe6F34,mp-697817,3.4149000000000003,-1.13888445,0.0065143657142900935,"{11: 2, 38: 6, 30: 1, 26: 6, 9: 34}","[9, 11, 26, 30, 38]",934112266301386,Na2Sr6Zn1Fe6F34
SrMgF4,mp-561022,6.6872,-1.30148062,0.02173007500000068,"{38: 1, 12: 1, 9: 4}","[9, 12, 38]",94121381,Sr1Mg1F4
SrCe2(SF2)2,mp-1218416,0.0,6.2987031,0.008804477777785813,"{38: 1, 58: 2, 16: 2, 9: 4}","[9, 16, 38, 58]",94162381582,Sr1Ce2S2F4
Sr3Ca(ClF)4,mp-1218392,5.689299999999999,0.52809207,0.012592781666665331,"{38: 3, 20: 1, 17: 4, 9: 4}","[9, 17, 20, 38]",94174201383,Sr3Ca1Cl4F4
Ba3Sr(ClF)4,mp-1228025,5.585100000000001,-0.14725303,0.010290763333332897,"{56: 3, 38: 1, 17: 4, 9: 4}","[9, 17, 38, 56]",94174381563,Ba3Sr1Cl4F4
SrCrF4,mp-558281,3.6107,0.66304444,0.0,"{38: 1, 24: 1, 9: 4}","[9, 24, 38]",94241381,Sr1Cr1F4
SrCuF4,mp-12265,0.8036,0.07910223,0.0,"{38: 1, 29: 1, 9: 4}","[9, 29, 38]",94291381,Sr1Cu1F4
SrZnF4,mp-5078,5.0642,-2.08273376,0.01824190583333163,"{38: 1, 30: 1, 9: 4}","[9, 30, 38]",94301381,Sr1Zn1F4
SrPdF4,mp-12622,1.0797999999999999,0.37809339,0.0,"{38: 1, 46: 1, 9: 4}","[9, 38, 46]",94381461,Sr1Pd1F4
SrTiF5,mp-1208720,0.053199999999999914,3.44846954,0.03120330017857409,"{38: 1, 22: 1, 9: 5}","[9, 22, 38]",95221381,Sr1Ti1F5
SrVF5,mp-30297,2.3682000000000003,0.44332015,0.0,"{38: 1, 23: 1, 9: 5}","[9, 23, 38]",95231381,Sr1V1F5
SrCrF5,mp-1209037,3.0298,-0.88141897,0.0072831583928696375,"{38: 1, 24: 1, 9: 5}","[9, 24, 38]",95241381,Sr1Cr1F5
SrFeF5,mp-27338,3.7149,-1.48398655,0.0,"{38: 1, 26: 1, 9: 5}","[9, 26, 38]",95261381,Sr1Fe1F5
SrCoF5,mp-1208712,0.7891,-0.25295893,0.05551675357142649,"{38: 1, 27: 1, 9: 5}","[9, 27, 38]",95271381,Sr1Co1F5
SrGaF5,mp-1208823,5.6513,-1.95824314,0.0,"{38: 1, 31: 1, 9: 5}","[9, 31, 38]",95311381,Sr1Ga1F5
SrSbF5,mp-16903,4.7617,0.50387326,0.0,"{38: 1, 51: 1, 9: 5}","[9, 38, 51]",95381511,Sr1Sb1F5
NaSrTiF6,mp-1210124,0.2774000000000001,2.77566835,0.00929047666666527,"{11: 1, 38: 1, 22: 1, 9: 6}","[9, 11, 22, 38]",96111221381,Na1Sr1Ti1F6
NaSrVF6,mp-1210039,2.5448,-0.19878495,0.0,"{11: 1, 38: 1, 23: 1, 9: 6}","[9, 11, 23, 38]",96111231381,Na1Sr1V1F6
NaSrCrF6,mp-17259,2.0585,0.85201922,0.0,"{11: 1, 38: 1, 24: 1, 9: 6}","[9, 11, 24, 38]",96111241381,Na1Sr1Cr1F6
NaSrFeF6,mp-556802,4.1088,-2.18111906,0.0,"{11: 1, 38: 1, 26: 1, 9: 6}","[9, 11, 26, 38]",96111261381,Na1Sr1Fe1F6
NaSrGaF6,mp-1210031,5.9984,-2.59799437,0.0,"{11: 1, 38: 1, 31: 1, 9: 6}","[9, 11, 31, 38]",96111311381,Na1Sr1Ga1F6
Cs2NaSrF6,mp-989574,0.0,-2.56573223,0.024288242499999946,"{55: 2, 11: 1, 38: 1, 9: 6}","[9, 11, 38, 55]",96111381552,Cs2Na1Sr1F6
SrCrF6,mp-554332,0.0,-0.49852501,0.0,"{38: 1, 24: 1, 9: 6}","[9, 24, 38]",96241381,Sr1Cr1F6
Sr2CuF6,mp-557552,0.8134,-0.02828698,0.0021292233333323196,"{38: 2, 29: 1, 9: 6}","[9, 29, 38]",96291382,Sr2Cu1F6
SrZrF6,mp-1208602,6.1738,-1.7589542,0.0,"{38: 1, 40: 1, 9: 6}","[9, 38, 40]",96381401,Sr1Zr1F6
SrRhF6,mp-9926,0.0,0.00610565,0.0,"{38: 1, 45: 1, 9: 6}","[9, 38, 45]",96381451,Sr1Rh1F6
BaSrPdF6,mp-1227495,1.4644,1.61372833,0.01589533055556025,"{56: 1, 38: 1, 46: 1, 9: 6}","[9, 38, 46, 56]",96381461561,Ba1Sr1Pd1F6
SrPbF6,mp-504677,0.0,0.80604027,0.16205751187500184,"{38: 1, 82: 1, 9: 6}","[9, 38, 82]",96381821,Sr1Pb1F6
SrThF6,mp-1173137,5.1442000000000005,0.3951067,0.07717637749999895,"{38: 1, 90: 1, 9: 6}","[9, 38, 90]",96381901,Sr1Th1F6
Sr2PrF6,mp-1218713,0.0,5.10592534,0.11712833870370432,"{38: 2, 59: 1, 9: 6}","[9, 38, 59]",96382591,Sr2Pr1F6
NaSrMg2F7,mp-1220897,6.508900000000001,-1.35574243,0.008859435681817907,"{11: 1, 38: 1, 12: 2, 9: 7}","[9, 11, 12, 38]",97111122381,Na1Sr1Mg2F7
SrCaCrF7,mp-1208686,4.2453,3.06100432,0.0,"{38: 1, 20: 1, 24: 1, 9: 7}","[9, 20, 24, 38]",97201241381,Sr1Ca1Cr1F7
Sr2ScF7,mp-14926,6.0325999999999995,-1.16628977,0.0,"{38: 2, 21: 1, 9: 7}","[9, 21, 38]",97211382,Sr2Sc1F7
SrTaF7,mp-555119,5.4935,-1.65940383,0.0,"{38: 1, 73: 1, 9: 7}","[9, 38, 73]",97381731,Sr1Ta1F7
Sr2RhF7,mp-541114,1.9751,0.70314424,0.0,"{38: 2, 45: 1, 9: 7}","[9, 38, 45]",97382451,Sr2Rh1F7
Sr2InF7,mp-14283,4.9452,-0.62948523,0.0,"{38: 2, 49: 1, 9: 7}","[9, 38, 49]",97382491,Sr2In1F7
Sr2LaF7,mp-675758,4.8865,0.71793422,0.11573055833333612,"{38: 2, 57: 1, 9: 7}","[9, 38, 57]",97382571,Sr2La1F7
NaSr7Cu8(SF)8,mp-603276,0.0,4.1133061,0.006610851406250617,"{11: 1, 38: 7, 29: 8, 16: 8, 9: 8}","[9, 11, 16, 29, 38]",98111168298387,Na1Sr7Cu8S8F8
NaSr2CrF8,mp-561198,3.7906,3.08656532,0.0009539929166670902,"{11: 1, 38: 2, 24: 1, 9: 8}","[9, 11, 24, 38]",98111241382,Na1Sr2Cr1F8