formula,material_id,band_gap,efermi,energy_above_hull,comp_atoms,sorted_keys_comp_atoms,comp_number,new_formula
Sr3Zr2N4,mp-1247420,0.0041999999999999815,3.7266217,0.22962914592592654,"{38: 3, 40: 2, 7: 4}","[7, 38, 40]",74383402,Sr3Zr2N4
Sr3(NbN2)2,mp-1246945,0.0,3.14409635,0.15395467799999807,"{38: 3, 41: 2, 7: 4}","[7, 38, 41]",74383412,Sr3Nb2N4
Sr3MoN4,mp-570046,1.7734000000000005,2.32417048,0.0,"{38: 3, 42: 1, 7: 4}","[7, 38, 42]",74383421,Sr3Mo1N4
Sr3(MoN2)2,mp-1247568,0.0,5.51173107,0.22378320009258967,"{38: 3, 42: 2, 7: 4}","[7, 38, 42]",74383422,Sr3Mo2N4
Sr3(RuN2)2,mp-1245671,0.0,4.77136909,0.12937484953703127,"{38: 3, 44: 2, 7: 4}","[7, 38, 44]",74383442,Sr3Ru2N4
Sr3(RhN2)2,mp-1246494,0.021300000000000097,4.4290415,0.19061341388888664,"{38: 3, 45: 2, 7: 4}","[7, 38, 45]",74383452,Sr3Rh2N4
Sr3(InN2)2,mp-1246921,0.7454999999999998,4.22222732,0.1444533661111107,"{38: 3, 49: 2, 7: 4}","[7, 38, 49]",74383492,Sr3In2N4
Sr3(SbN2)2,mp-1246469,1.0266000000000002,3.80807946,0.3079335901111069,"{38: 3, 51: 2, 7: 4}","[7, 38, 51]",74383512,Sr3Sb2N4
Sr3(TaN2)2,mp-1245775,0.0,4.69745419,0.23526632649999613,"{38: 3, 73: 2, 7: 4}","[7, 38, 73]",74383732,Sr3Ta2N4
Sr3(WN2)2,mp-1245880,0.0,5.33148132,0.15121194861110965,"{38: 3, 74: 2, 7: 4}","[7, 38, 74]",74383742,Sr3W2N4
Sr3(ReN2)2,mp-1246037,0.025699999999999612,5.15932579,0.22306208351851442,"{38: 3, 75: 2, 7: 4}","[7, 38, 75]",74383752,Sr3Re2N4
Sr3(OsN2)2,mp-1245563,0.0,4.85353204,0.19379431490740373,"{38: 3, 76: 2, 7: 4}","[7, 38, 76]",74383762,Sr3Os2N4
Sr3(IrN2)2,mp-1246636,0.3301999999999996,4.83444755,0.22938378712962404,"{38: 3, 77: 2, 7: 4}","[7, 38, 77]",74383772,Sr3Ir2N4
Sr3(AuN2)2,mp-1246903,0.0,2.67904065,0.3656658977777809,"{38: 3, 79: 2, 7: 4}","[7, 38, 79]",74383792,Sr3Au2N4
Sr3(BiN2)2,mp-1246321,1.2045000000000003,4.54710083,0.36841068879629724,"{38: 3, 83: 2, 7: 4}","[7, 38, 83]",74383832,Sr3Bi2N4
Sr4ZrN4,mp-1029580,0.8592,2.53085846,0.0,"{38: 4, 40: 1, 7: 4}","[7, 38, 40]",74384401,Sr4Zr1N4
Sr4RuN4,mp-1246298,0.0,4.42452331,0.11228546111111015,"{38: 4, 44: 1, 7: 4}","[7, 38, 44]",74384441,Sr4Ru1N4
Sr4RhN4,mp-1246313,0.0,3.74038315,0.09272367750000221,"{38: 4, 45: 1, 7: 4}","[7, 38, 45]",74384451,Sr4Rh1N4
Sr4SnN4,mp-1246073,0.6576999999999997,3.32693181,0.022801256495725397,"{38: 4, 50: 1, 7: 4}","[7, 38, 50]",74384501,Sr4Sn1N4
Sr4ReN4,mp-1246473,0.0,3.07694502,0.3259293694444443,"{38: 4, 75: 1, 7: 4}","[7, 38, 75]",74384751,Sr4Re1N4
Sr4IrN4,mp-1245498,0.0,4.27485836,0.14411589055555396,"{38: 4, 77: 1, 7: 4}","[7, 38, 77]",74384771,Sr4Ir1N4
Sr4PtN4,mp-1245545,0.0,3.55144768,0.18119900444444426,"{38: 4, 78: 1, 7: 4}","[7, 38, 78]",74384781,Sr4Pt1N4
Sr5CdN4,mp-1246818,0.18999999999999995,2.15570442,0.2024414991250012,"{38: 5, 48: 1, 7: 4}","[7, 38, 48]",74385481,Sr5Cd1N4
Sr4MoN4O,mp-6164,2.2746,2.84343155,0.20858714570833392,"{38: 4, 42: 1, 7: 4, 8: 1}","[7, 8, 38, 42]",7481384421,Sr4Mo1N4O1
BaSrSi4(NO)4,mp-1227610,3.5329000000000006,6.85336928,0.016413663705350245,"{56: 1, 38: 1, 14: 4, 7: 4, 8: 4}","[7, 8, 14, 38, 56]",7484144381561,Ba1Sr1Si4N4O4
Sr3Sc3N5,mp-1245988,1.7723,4.26390927,0.09552766363636422,"{38: 3, 21: 3, 7: 5}","[7, 21, 38]",75213383,Sr3Sc3N5
Sr3Ti3N5,mp-1245904,0.0,5.13232137,0.15922215075757506,"{38: 3, 22: 3, 7: 5}","[7, 22, 38]",75223383,Sr3Ti3N5
Sr3V3N5,mp-1246284,0.0,5.17665061,0.16233404316666622,"{38: 3, 23: 3, 7: 5}","[7, 23, 38]",75233383,Sr3V3N5
Sr3Cr3N5,mp-1246582,0.0,5.20653933,0.10602159041667214,"{38: 3, 24: 3, 7: 5}","[7, 24, 38]",75243383,Sr3Cr3N5
Sr3Mn3N5,mp-1247199,0.0,5.10972073,0.04414534909538759,"{38: 3, 25: 3, 7: 5}","[7, 25, 38]",75253383,Sr3Mn3N5
Sr3Fe3N5,mp-1246649,0.0,4.95172358,0.0,"{38: 3, 26: 3, 7: 5}","[7, 26, 38]",75263383,Sr3Fe3N5
Sr3Co3N5,mp-1247212,0.0,4.50826964,0.08454453920454519,"{38: 3, 27: 3, 7: 5}","[7, 27, 38]",75273383,Sr3Co3N5
Sr6Cu3N5,mp-29136,0.4772000000000003,3.38766002,0.0,"{38: 6, 29: 3, 7: 5}","[7, 29, 38]",75293386,Sr6Cu3N5
Sr8In4Cu3N5,mp-571541,0.0,4.48724662,0.0,"{38: 8, 49: 4, 29: 3, 7: 5}","[7, 29, 38, 49]",75293388494,Sr8In4Cu3N5
Sr6GaN5,mp-18635,0.31140000000000034,2.37796948,0.0041403791666674294,"{38: 6, 31: 1, 7: 5}","[7, 31, 38]",75311386,Sr6Ga1N5
Sr3Ga3N5,mp-570971,1.3618999999999999,3.16183522,0.0,"{38: 3, 31: 3, 7: 5}","[7, 31, 38]",75313383,Sr3Ga3N5
Sr3Y3N5,mp-1246857,1.0318,3.30438801,0.1611756813636358,"{38: 3, 39: 3, 7: 5}","[7, 38, 39]",75383393,Sr3Y3N5
Sr3Zr3N5,mp-1247446,0.0,4.46526106,0.15937978666666552,"{38: 3, 40: 3, 7: 5}","[7, 38, 40]",75383403,Sr3Zr3N5
Sr3Nb3N5,mp-1247443,0.0,4.86078924,0.1816950964999986,"{38: 3, 41: 3, 7: 5}","[7, 38, 41]",75383413,Sr3Nb3N5
Sr3Mo3N5,mp-1246124,0.0,5.54667172,0.22982599836363082,"{38: 3, 42: 3, 7: 5}","[7, 38, 42]",75383423,Sr3Mo3N5
Sr3Ru3N5,mp-1246985,0.0,5.04416841,0.15523356969697666,"{38: 3, 44: 3, 7: 5}","[7, 38, 44]",75383443,Sr3Ru3N5
Sr3Rh3N5,mp-1245919,0.0,4.34027458,0.215560277045455,"{38: 3, 45: 3, 7: 5}","[7, 38, 45]",75383453,Sr3Rh3N5
Sr3In3N5,mp-1245757,0.4545999999999992,4.24420718,0.15981268353535505,"{38: 3, 49: 3, 7: 5}","[7, 38, 49]",75383493,Sr3In3N5
Sr3Sb3N5,mp-1247452,1.4433000000000002,5.40765384,0.25334224255244653,"{38: 3, 51: 3, 7: 5}","[7, 38, 51]",75383513,Sr3Sb3N5
Sr3Ta3N5,mp-1245946,0.0,5.03975316,0.20826422033333003,"{38: 3, 73: 3, 7: 5}","[7, 38, 73]",75383733,Sr3Ta3N5
Sr3W3N5,mp-1245954,0.0,5.26902137,0.13907831363637158,"{38: 3, 74: 3, 7: 5}","[7, 38, 74]",75383743,Sr3W3N5
Sr3Re3N5,mp-1247439,0.0,5.2091254,0.269353101893941,"{38: 3, 75: 3, 7: 5}","[7, 38, 75]",75383753,Sr3Re3N5
Sr3Os3N5,mp-1247424,0.0,5.1826477,0.25634772984849263,"{38: 3, 76: 3, 7: 5}","[7, 38, 76]",75383763,Sr3Os3N5
Sr3Ir3N5,mp-1245587,0.0,5.14541823,0.2038858225757636,"{38: 3, 77: 3, 7: 5}","[7, 38, 77]",75383773,Sr3Ir3N5
Sr3Bi3N5,mp-1246221,1.2530999999999994,3.61907894,0.421094206931822,"{38: 3, 83: 3, 7: 5}","[7, 38, 83]",75383833,Sr3Bi3N5
Sr5NbN5,mp-10577,1.1591,2.67468473,0.0,"{38: 5, 41: 1, 7: 5}","[7, 38, 41]",75385411,Sr5Nb1N5
Sr2Ca49Mo12N56O3,mp-1209837,1.9009999999999998,3.57647026,0.014307751913699818,"{38: 2, 20: 49, 42: 12, 7: 56, 8: 3}","[7, 8, 20, 38, 42]",7568320493824212,Sr2Ca49Mo12N56O3
Sr51W12N56O3,mp-699686,0.09860000000000024,4.19115839,0.09619525696721354,"{38: 51, 74: 12, 7: 56, 8: 3}","[7, 8, 38, 74]",7568338517412,Sr51W12N56O3
Sr10Nb5N5O14,mp-1218907,0.0,4.51264453,0.07462903982842484,"{38: 10, 41: 5, 7: 5, 8: 14}","[7, 8, 38, 41]",758143810415,Sr10Nb5N5O14
SrMgP3N5O2,mp-1020629,4.1352,4.54275276,0.0,"{38: 1, 12: 1, 15: 3, 7: 5, 8: 2}","[7, 8, 12, 15, 38]",7582121153381,Sr1Mg1P3N5O2
Sr7SN6,mp-1245374,0.0,5.02430837,0.3499324378571398,"{38: 7, 16: 1, 7: 6}","[7, 16, 38]",76161387,Sr7S1N6
Sr7TiN6,mp-1245386,1.3865999999999996,2.72678647,0.010600740892856564,"{38: 7, 22: 1, 7: 6}","[7, 22, 38]",76221387,Sr7Ti1N6
Sr5(TiN3)2,mp-1247347,1.8023999999999996,4.29278387,0.019524331923090443,"{38: 5, 22: 2, 7: 6}","[7, 22, 38]",76222385,Sr5Ti2N6
Sr5(VN3)2,mp-1247227,0.32650000000000023,4.27907071,0.06070650025641022,"{38: 5, 23: 2, 7: 6}","[7, 23, 38]",76232385,Sr5V2N6
Sr7CrN6,mp-1247406,0.0,4.3654974,0.11113099098215251,"{38: 7, 24: 1, 7: 6}","[7, 24, 38]",76241387,Sr7Cr1N6
Sr5(CrN3)2,mp-1246530,0.0,4.66835602,0.05305026557692294,"{38: 5, 24: 2, 7: 6}","[7, 24, 38]",76242385,Sr5Cr2N6
Sr7MnN6,mp-1245614,0.0,4.11266625,0.03884414071428477,"{38: 7, 25: 1, 7: 6}","[7, 25, 38]",76251387,Sr7Mn1N6
Sr5(MnN3)2,mp-1246690,0.0,4.33046014,0.022783997527474398,"{38: 5, 25: 2, 7: 6}","[7, 25, 38]",76252385,Sr5Mn2N6
Sr7CoN6,mp-1247404,0.07100000000000017,3.93446634,0.09556599976190405,"{38: 7, 27: 1, 7: 6}","[7, 27, 38]",76271387,Sr7Co1N6
Sr5(CoN3)2,mp-1246638,0.002200000000000202,3.76826606,0.09709882576922801,"{38: 5, 27: 2, 7: 6}","[7, 27, 38]",76272385,Sr5Co2N6
Sr7GeN6,mp-568436,1.1313,2.79601526,0.0,"{38: 7, 32: 1, 7: 6}","[7, 32, 38]",76321387,Sr7Ge1N6
Sr5(GeN3)2,mp-571046,1.3525,2.88041216,0.0,"{38: 5, 32: 2, 7: 6}","[7, 32, 38]",76322385,Sr5Ge2N6
Sr11(Ge2N3)2,mp-581913,0.1774,2.99407303,0.01782091468253988,"{38: 11, 32: 4, 7: 6}","[7, 32, 38]",763243811,Sr11Ge4N6
Sr7SeN6,mp-1246854,0.47809999999999997,3.04063765,0.42250898303571205,"{38: 7, 34: 1, 7: 6}","[7, 34, 38]",76341387,Sr7Se1N6
SrN6,mp-2131,3.6681,0.37559521,0.009174299285714227,"{38: 1, 7: 6}","[7, 38]",76381,Sr1N6
Sr5Zr2N6,mp-1247149,1.2229999999999999,3.25450828,0.10623816846154277,"{38: 5, 40: 2, 7: 6}","[7, 38, 40]",76385402,Sr5Zr2N6
Sr5(RuN3)2,mp-1247140,0.0,4.38495615,0.041603955512821145,"{38: 5, 44: 2, 7: 6}","[7, 38, 44]",76385442,Sr5Ru2N6
Sr5(RhN3)2,mp-1247348,0.020399999999999974,3.90612343,0.12842854769230705,"{38: 5, 45: 2, 7: 6}","[7, 38, 45]",76385452,Sr5Rh2N6
Sr5(SnN3)2,mp-1245859,1.4672,4.68394605,0.12002543653846409,"{38: 5, 50: 2, 7: 6}","[7, 38, 50]",76385502,Sr5Sn2N6
Sr5Hf2N6,mp-1247284,1.2601,3.33974978,0.07522547807692703,"{38: 5, 72: 2, 7: 6}","[7, 38, 72]",76385722,Sr5Hf2N6
Sr5(ReN3)2,mp-1246201,0.44010000000000016,4.6250762,0.03449196634615426,"{38: 5, 75: 2, 7: 6}","[7, 38, 75]",76385752,Sr5Re2N6
Sr5(OsN3)2,mp-1247351,0.0,4.58643417,0.036757879102562896,"{38: 5, 76: 2, 7: 6}","[7, 38, 76]",76385762,Sr5Os2N6
Sr5(IrN3)2,mp-1246708,0.0,4.19676582,0.10163444217948836,"{38: 5, 77: 2, 7: 6}","[7, 38, 77]",76385772,Sr5Ir2N6
Sr5(PtN3)2,mp-1247336,0.22739999999999982,3.897088,0.31709514038461606,"{38: 5, 78: 2, 7: 6}","[7, 38, 78]",76385782,Sr5Pt2N6
Sr5(PbN3)2,mp-1247455,1.0165000000000002,3.96499194,0.3614769100000004,"{38: 5, 82: 2, 7: 6}","[7, 38, 82]",76385822,Sr5Pb2N6
Sr7ZrN6,mp-1245667,0.8233999999999999,2.37965051,0.03606766499999736,"{38: 7, 40: 1, 7: 6}","[7, 38, 40]",76387401,Sr7Zr1N6
Sr7RuN6,mp-1245958,0.04270000000000085,4.13584332,0.0826339466071424,"{38: 7, 44: 1, 7: 6}","[7, 38, 44]",76387441,Sr7Ru1N6
Sr7RhN6,mp-1247499,0.0,3.93740984,0.11562869053571667,"{38: 7, 45: 1, 7: 6}","[7, 38, 45]",76387451,Sr7Rh1N6
Sr7SnN6,mp-1246791,0.8056999999999999,3.05657426,0.032252752589281286,"{38: 7, 50: 1, 7: 6}","[7, 38, 50]",76387501,Sr7Sn1N6
Sr7TeN6,mp-1246827,0.1526999999999994,4.10677481,0.37670012357142646,"{38: 7, 52: 1, 7: 6}","[7, 38, 52]",76387521,Sr7Te1N6
Sr7HfN6,mp-1246024,0.9251999999999998,2.39556834,0.0051617933928582715,"{38: 7, 72: 1, 7: 6}","[7, 38, 72]",76387721,Sr7Hf1N6
Sr7ReN6,mp-1245695,0.0,4.4041977,0.04572898999999975,"{38: 7, 75: 1, 7: 6}","[7, 38, 75]",76387751,Sr7Re1N6
Sr7OsN6,mp-1245384,0.0,4.17248141,0.09395280964285746,"{38: 7, 76: 1, 7: 6}","[7, 38, 76]",76387761,Sr7Os1N6
Sr7IrN6,mp-1245379,0.08950000000000014,3.93013719,0.12992036732143042,"{38: 7, 77: 1, 7: 6}","[7, 38, 77]",76387771,Sr7Ir1N6
Sr7PtN6,mp-1247110,0.06619999999999981,3.26324051,0.18145021133928552,"{38: 7, 78: 1, 7: 6}","[7, 38, 78]",76387781,Sr7Pt1N6
Sr7PbN6,mp-1246928,0.6106000000000003,2.76151263,0.13423174607142485,"{38: 7, 82: 1, 7: 6}","[7, 38, 82]",76387821,Sr7Pb1N6
Sr8PbN6,mp-1247458,0.0,2.05381127,0.26747915111111276,"{38: 8, 82: 1, 7: 6}","[7, 38, 82]",76388821,Sr8Pb1N6
K2SrCu(NO2)6,mp-12161,0.04249999999999998,1.31151926,0.13353263159090467,"{19: 2, 38: 1, 29: 1, 7: 6, 8: 12}","[7, 8, 19, 29, 38]",76812192291381,K2Sr1Cu1N6O12
SrYSi4N7,mp-6606,2.7523,5.805669,0.0012321025961448129,"{38: 1, 39: 1, 14: 4, 7: 7}","[7, 14, 38, 39]",77144381391,Sr1Y1Si4N7
Sr19In8N7,mp-641775,0.20029999999999992,3.75686869,0.0,"{38: 19, 49: 8, 7: 7}","[7, 38, 49]",773819498,Sr19In8N7
Sr5Mo2N7,mp-31231,1.2258,3.64811977,0.0,"{38: 5, 42: 2, 7: 7}","[7, 38, 42]",77385422,Sr5Mo2N7
Sr9(CrN4)2,mp-1247333,0.3805999999999998,2.89522336,0.05699525700658015,"{38: 9, 24: 2, 7: 8}","[7, 24, 38]",78242389,Sr9Cr2N8
Sr8Cr3N8,mp-1247459,0.0,3.97751205,0.06338541491228078,"{38: 8, 24: 3, 7: 8}","[7, 24, 38]",78243388,Sr8Cr3N8
Sr10MnN8,mp-1247367,0.0,1.93829118,0.23576949197368613,"{38: 10, 25: 1, 7: 8}","[7, 25, 38]",782513810,Sr10Mn1N8
Sr8Mn2FeN8,mp-569961,0.0,3.77237111,0.0,"{38: 8, 25: 2, 26: 1, 7: 8}","[7, 25, 26, 38]",78252261388,Sr8Mn2Fe1N8
Sr9(MnN4)2,mp-1247555,0.0,3.0554541,0.02512127526315755,"{38: 9, 25: 2, 7: 8}","[7, 25, 38]",78252389,Sr9Mn2N8
Sr8Mn3N8,mp-1247040,0.0,3.63826863,0.009658455474895078,"{38: 8, 25: 3, 7: 8}","[7, 25, 38]",78253388,Sr8Mn3N8
Sr8Fe3N8,mp-573523,0.0,3.5953946,0.0,"{38: 8, 26: 3, 7: 8}","[7, 26, 38]",78263388,Sr8Fe3N8
Sr8Co3N8,mp-1030752,0.0,3.4196424,0.0,"{38: 8, 27: 3, 7: 8}","[7, 27, 38]",78273388,Sr8Co3N8
Sr10IrN8,mp-1245476,0.3414999999999999,2.12786199,0.13628060710526135,"{38: 10, 77: 1, 7: 8}","[7, 38, 77]",783810771,Sr10Ir1N8
Sr3P6(N4O3)2,mp-557650,4.4992,4.31322396,0.0,"{38: 3, 15: 6, 7: 8, 8: 6}","[7, 8, 15, 38]",7886156383,Sr3P6N8O6
Ba3SrSi8(NO)8,mp-1228191,3.9167000000000005,3.56428557,0.0,"{56: 3, 38: 1, 14: 8, 7: 8, 8: 8}","[7, 8, 14, 38, 56]",7888148381563,Ba3Sr1Si8N8O8
Sr8(MnN3)3,mp-567532,0.0,3.98349415,0.0,"{38: 8, 25: 3, 7: 9}","[7, 25, 38]",79253388,Sr8Mn3N9
CsSrN9,mp-29228,3.8236000000000003,0.50577917,0.0077384068181789445,"{55: 1, 38: 1, 7: 9}","[7, 38, 55]",79381551,Cs1Sr1N9
Sr4MgTi3O10,mp-2229402,0.0,4.81963809,0.10150873907409252,"{38: 4, 12: 1, 22: 3, 8: 10}","[8, 12, 22, 38]",810121223384,Sr4Mg1Ti3O10
Sr4MgV3O10,mp-2232863,0.0,4.19230099,0.11597449339507104,"{38: 4, 12: 1, 23: 3, 8: 10}","[8, 12, 23, 38]",810121233384,Sr4Mg1V3O10
Sr4MgMn2(GaO5)2,mp-1233475,0.0,4.58399619,0.10651907657894899,"{38: 4, 12: 1, 25: 2, 31: 2, 8: 10}","[8, 12, 25, 31, 38]",810121252312384,Sr4Mg1Mn2Ga2O10
Sr4MgMn4O10,mp-2228369,0.0,3.15574274,0.11949467347368525,"{38: 4, 12: 1, 25: 4, 8: 10}","[8, 12, 25, 38]",810121254384,Sr4Mg1Mn4O10
Sr4Mg(Fe2O5)2,mp-2228813,0.7350999999999996,3.26960657,0.12030046789473836,"{38: 4, 12: 1, 26: 4, 8: 10}","[8, 12, 26, 38]",810121264384,Sr4Mg1Fe4O10
Sr4Mg(Co2O5)2,mp-2228341,0.6625999999999999,2.66692215,0.09150308026316356,"{38: 4, 12: 1, 27: 4, 8: 10}","[8, 12, 27, 38]",810121274384,Sr4Mg1Co4O10
RbSr2MgNb3O10,mp-2229307,0.0,3.79305814,0.11829811852939187,"{37: 1, 38: 2, 12: 1, 41: 3, 8: 10}","[8, 12, 37, 38, 41]",810121371382413,Rb1Sr2Mg1Nb3O10
CsSr2MgNb3O10,mp-2229536,0.0,4.01691948,0.11886033110292882,"{55: 1, 38: 2, 12: 1, 41: 3, 8: 10}","[8, 12, 38, 41, 55]",810121382413551,Cs1Sr2Mg1Nb3O10
Sr2MgRu3O10,mp-2233117,0.0,3.41406653,0.08425831218748758,"{38: 2, 12: 1, 44: 3, 8: 10}","[8, 12, 38, 44]",810121382443,Sr2Mg1Ru3O10
SrY2Si3O10,mp-1020706,4.9314,2.15544986,0.012435645989583577,"{38: 1, 39: 2, 14: 3, 8: 10}","[8, 14, 38, 39]",810143381392,Sr1Y2Si3O10
SrCu(Si2O5)2,mp-14862,1.0593000000000004,2.95802972,0.01943051703125409,"{38: 1, 29: 1, 14: 4, 8: 10}","[8, 14, 29, 38]",810144291381,Sr1Cu1Si4O10
SrV2(PO5)2,mp-559580,1.8276,2.30404692,0.003440150266651898,"{38: 1, 23: 2, 15: 2, 8: 10}","[8, 15, 23, 38]",810152232381,Sr1V2P2O10
Sr(SO5)2,mp-1179308,1.349,-1.15099861,0.44505431240385285,"{38: 1, 16: 2, 8: 10}","[8, 16, 38]",810162381,Sr1S2O10
Sr3CaTiMn3O10,mp-1076505,0.000500000000000167,3.12360974,0.058992839409719444,"{38: 3, 20: 1, 22: 1, 25: 3, 8: 10}","[8, 20, 22, 25, 38]",810201221253383,Sr3Ca1Ti1Mn3O10
Sr3CaTi2Mn2O10,mp-1076875,0.7831000000000001,3.27785024,0.0634248761111138,"{38: 3, 20: 1, 22: 2, 25: 2, 8: 10}","[8, 20, 22, 25, 38]",810201222252383,Sr3Ca1Ti2Mn2O10
SrCaTi2(GeO5)2,mp-1218580,2.8285,1.62575575,0.00022564484375031668,"{38: 1, 20: 1, 22: 2, 32: 2, 8: 10}","[8, 20, 22, 32, 38]",810201222322381,Sr1Ca1Ti2Ge2O10
Sr3CaTi3MnO10,mp-1076170,0.0,5.36332241,0.15111825650383537,"{38: 3, 20: 1, 22: 3, 25: 1, 8: 10}","[8, 20, 22, 25, 38]",810201223251383,Sr3Ca1Ti3Mn1O10
Sr3CaMn2FeO10,mp-1218360,0.0,3.12537117,0.028833956330534427,"{38: 3, 20: 1, 25: 2, 26: 1, 8: 10}","[8, 20, 25, 26, 38]",810201252261383,Sr3Ca1Mn2Fe1O10
Sr4CaMn2(GaO5)2,mp-1233017,0.0,4.68143948,0.11634861921052764,"{38: 4, 20: 1, 25: 2, 31: 2, 8: 10}","[8, 20, 25, 31, 38]",810201252312384,Sr4Ca1Mn2Ga2O10
Sr3Ca(Fe2O5)2,mp-1076761,0.7409999999999997,3.22003529,0.01528522067709659,"{38: 3, 20: 1, 26: 4, 8: 10}","[8, 20, 26, 38]",810201264383,Sr3Ca1Fe4O10
Sr4Ca(FeO2)5,mp-1218462,0.3503000000000003,4.06033456,0.03438995275000156,"{38: 4, 20: 1, 26: 5, 8: 10}","[8, 20, 26, 38]",810201265384,Sr4Ca1Fe5O10
Sr3CaCo3CuO10,mp-1099678,0.0,2.6712181,0.18346377995694318,"{38: 3, 20: 1, 27: 3, 29: 1, 8: 10}","[8, 20, 27, 29, 38]",810201273291383,Sr3Ca1Co3Cu1O10
Sr2CaCu2(BiO5)2,mp-1218932,0.0,3.9663544,0.24253663500001643,"{38: 2, 20: 1, 29: 2, 83: 2, 8: 10}","[8, 20, 29, 38, 83]",810201292382832,Sr2Ca1Cu2Bi2O10
Sr2Ca2TiMn3O10,mp-1076680,0.0,3.24516728,0.0681877208680568,"{38: 2, 20: 2, 22: 1, 25: 3, 8: 10}","[8, 20, 22, 25, 38]",810202221253382,Sr2Ca2Ti1Mn3O10
Sr2Ca2MnFe3O10,mp-1076444,0.0,3.14809873,0.051733075156245256,"{38: 2, 20: 2, 25: 1, 26: 3, 8: 10}","[8, 20, 25, 26, 38]",810202251263382,Sr2Ca2Mn1Fe3O10
Sr2Ca2Mn3FeO10,mp-1076197,0.0,3.15450051,0.06521096562498752,"{38: 2, 20: 2, 25: 3, 26: 1, 8: 10}","[8, 20, 25, 26, 38]",810202253261382,Sr2Ca2Mn3Fe1O10
Sr2Ca2FeCo3O10,mp-1099665,0.0,2.65850284,0.04072666747220666,"{38: 2, 20: 2, 26: 1, 27: 3, 8: 10}","[8, 20, 26, 27, 38]",810202261273382,Sr2Ca2Fe1Co3O10
Sr2Ca2Fe3CoO10,mp-1076147,0.0,2.66702381,0.03998282397570474,"{38: 2, 20: 2, 26: 3, 27: 1, 8: 10}","[8, 20, 26, 27, 38]",810202263271382,Sr2Ca2Fe3Co1O10
Sr2Ca2Co3CuO10,mp-1076273,0.0,2.93248577,0.2099953140477986,"{38: 2, 20: 2, 27: 3, 29: 1, 8: 10}","[8, 20, 27, 29, 38]",810202273291382,Sr2Ca2Co3Cu1O10
Sr2Ca2Cu3(BiO5)2,mp-1209015,0.0,4.66362603,0.07146120947367773,"{38: 2, 20: 2, 29: 3, 83: 2, 8: 10}","[8, 20, 29, 38, 83]",810202293382832,Sr2Ca2Cu3Bi2O10
SrCa3TiMn3O10,mp-1076776,0.0,3.33494429,0.0742224227083339,"{38: 1, 20: 3, 22: 1, 25: 3, 8: 10}","[8, 20, 22, 25, 38]",810203221253381,Sr1Ca3Ti1Mn3O10
SrCa3Mn4O10,mp-1076184,0.0,3.26092107,0.06863137736110847,"{38: 1, 20: 3, 25: 4, 8: 10}","[8, 20, 25, 38]",810203254381,Sr1Ca3Mn4O10
SrCa3(Co2O5)2,mp-1076675,0.016300000000000203,2.75369313,0.033900089212956175,"{38: 1, 20: 3, 27: 4, 8: 10}","[8, 20, 27, 38]",810203274381,Sr1Ca3Co4O10
SrCa4(FeO2)5,mp-1218122,0.03810000000000002,4.51370736,0.08041163099999693,"{38: 1, 20: 4, 26: 5, 8: 10}","[8, 20, 26, 38]",810204265381,Sr1Ca4Fe5O10
Sr2La3Ti2O10,mp-1208909,0.0,7.91074117,0.054864202849268295,"{38: 2, 57: 3, 22: 2, 8: 10}","[8, 22, 38, 57]",810222382573,Sr2La3Ti2O10
Sr4Ti3O10,mp-31213,1.7833,3.00328304,0.0,"{38: 4, 22: 3, 8: 10}","[8, 22, 38]",810223384,Sr4Ti3O10
SrV2(AsO5)2,mp-19513,1.3883999999999999,1.59506921,0.019272783999999987,"{38: 1, 23: 2, 33: 2, 8: 10}","[8, 23, 33, 38]",810232332381,Sr1V2As2O10
Sr4V3O10,mp-21303,0.0,4.30366629,0.04697741522706789,"{38: 4, 23: 3, 8: 10}","[8, 23, 38]",810233384,Sr4V3O10
SrV4O10,mp-772957,1.4358999999999997,3.0710807,0.011916913749992375,"{38: 1, 23: 4, 8: 10}","[8, 23, 38]",810234381,Sr1V4O10
SrCr2O10,mp-1200664,0.8811,-1.17226326,0.4958500739423011,"{38: 1, 24: 2, 8: 10}","[8, 24, 38]",810242381,Sr1Cr2O10
Sr4Cr3O10,mp-1208703,0.0,3.17886967,0.06295009650735839,"{38: 4, 24: 3, 8: 10}","[8, 24, 38]",810243384,Sr4Cr3O10
Sr5Mn(Fe2O5)2,mp-1315609,0.27,3.95176835,0.04470694424999788,"{38: 5, 25: 1, 26: 4, 8: 10}","[8, 25, 26, 38]",810251264385,Sr5Mn1Fe4O10
BaSr3Mn3O10,mp-1227783,1.3553000000000002,2.26248776,0.039854800392136625,"{56: 1, 38: 3, 25: 3, 8: 10}","[8, 25, 38, 56]",810253383561,Ba1Sr3Mn3O10
Sr4Mn3O10,mp-18998,0.4796,3.0916866,0.0033996247549170633,"{38: 4, 25: 3, 8: 10}","[8, 25, 38]",810253384,Sr4Mn3O10
SrLa3Mn4O10,mp-1218306,0.8902000000000001,5.46274058,0.08050600637566596,"{38: 1, 57: 3, 25: 4, 8: 10}","[8, 25, 38, 57]",810254381573,Sr1La3Mn4O10
Sr3LaMn4O10,mp-1218559,0.0,4.65122297,0.0618618922481442,"{38: 3, 57: 1, 25: 4, 8: 10}","[8, 25, 38, 57]",810254383571,Sr3La1Mn4O10
Sr10Mn5Zn9(AsO)10,mp-698622,0.03629999999999978,2.4356221,0.2349320888541664,"{38: 10, 25: 5, 30: 9, 33: 10, 8: 10}","[8, 25, 30, 33, 38]",81025530933103810,Sr10Mn5Zn9As10O10
Sr2La2FeCu3O10,mp-1173276,0.0,5.25731748,0.005823775000016518,"{38: 2, 57: 2, 26: 1, 29: 3, 8: 10}","[8, 26, 29, 38, 57]",810261293382572,Sr2La2Fe1Cu3O10
Sr4Fe3O10,mp-1173217,0.21629999999999994,1.79812595,0.06928451088235299,"{38: 4, 26: 3, 8: 10}","[8, 26, 38]",810263384,Sr4Fe3O10
Sr5Fe4CoO10,mp-1218452,0.0,3.99704795,0.081102733833335,"{38: 5, 26: 4, 27: 1, 8: 10}","[8, 26, 27, 38]",810264271385,Sr5Fe4Co1O10