formula,material_id,band_gap,efermi,energy_above_hull,comp_atoms,sorted_keys_comp_atoms,comp_number,new_formula
Sr6Fe5Ag3(Se2O5)2,mp-1218625,0.0,3.89191074,0.06545308418898799,"{38: 6, 26: 5, 47: 3, 34: 4, 8: 10}","[8, 26, 34, 38, 47]",810265344386473,Sr6Fe5Ag3Se4O10
BaSr4(FeO2)5,mp-1227721,0.005799999999999805,3.77452948,0.028781394642851232,"{56: 1, 38: 4, 26: 5, 8: 10}","[8, 26, 38, 56]",810265384561,Ba1Sr4Fe5O10
Ba3SrCoCu3O10,mp-1100085,0.0,2.48721739,0.10886583844906284,"{56: 3, 38: 1, 27: 1, 29: 3, 8: 10}","[8, 27, 29, 38, 56]",810271293381563,Ba3Sr1Co1Cu3O10
Ba2Sr2CoCu3O10,mp-1099812,0.0,2.39026114,0.1345061028626482,"{56: 2, 38: 2, 27: 1, 29: 3, 8: 10}","[8, 27, 29, 38, 56]",810271293382562,Ba2Sr2Co1Cu3O10
BaSr3Co2(CuO5)2,mp-1076898,0.0,2.59191422,0.09255394337962386,"{56: 1, 38: 3, 27: 2, 29: 2, 8: 10}","[8, 27, 29, 38, 56]",810272292383561,Ba1Sr3Co2Cu2O10
Ba2SrY2Cu2PtO10,mp-1214627,0.5853999999999995,3.48682792,0.005743350615084353,"{56: 2, 38: 1, 39: 2, 29: 2, 78: 1, 8: 10}","[8, 29, 38, 39, 56, 78]",810292381392562781,Ba2Sr1Y2Cu2Pt1O10
BaSrY4(CuO5)2,mp-1227594,0.0,3.8711454,0.05463854791666112,"{56: 1, 38: 1, 39: 4, 29: 2, 8: 10}","[8, 29, 38, 39, 56]",810292381394561,Ba1Sr1Y4Cu2O10
Ba3SrTl2Cu2HgO10,mp-1228298,0.0,3.62587597,0.020064754263159124,"{56: 3, 38: 1, 81: 2, 29: 2, 80: 1, 8: 10}","[8, 29, 38, 56, 80, 81]",810292381563801812,Ba3Sr1Tl2Cu2Hg1O10
Sr2CeYCu2RuO10,mp-1218854,0.0,4.51566673,0.04266097764705634,"{38: 2, 58: 1, 39: 1, 29: 2, 44: 1, 8: 10}","[8, 29, 38, 39, 44, 58]",810292382391441581,Sr2Ce1Y1Cu2Ru1O10
BaSr2Y2Cu2PtO10,mp-1227763,0.5624000000000002,3.51068648,0.021813352175142242,"{56: 1, 38: 2, 39: 2, 29: 2, 78: 1, 8: 10}","[8, 29, 38, 39, 56, 78]",810292382392561781,Ba1Sr2Y2Cu2Pt1O10
Sr2CeEuCu2RuO10,mp-1218883,0.0,4.2426979,0.07446502411764477,"{38: 2, 58: 1, 63: 1, 29: 2, 44: 1, 8: 10}","[8, 29, 38, 44, 58, 63]",810292382441581631,Sr2Ce1Eu1Cu2Ru1O10
Sr3LaCu2HgBiO10,mp-1173247,0.0,4.17832641,0.027181546666657397,"{38: 3, 57: 1, 29: 2, 80: 1, 83: 1, 8: 10}","[8, 29, 38, 57, 80, 83]",810292383571801831,Sr3La1Cu2Hg1Bi1O10
Sr4TlCu2BiO10,mp-1218439,0.0,3.54592368,0.03356823611110471,"{38: 4, 81: 1, 29: 2, 83: 1, 8: 10}","[8, 29, 38, 81, 83]",810292384811831,Sr4Tl1Cu2Bi1O10
Sr2La2Tl2Cu3O10,mp-1208833,0.0,6.11064638,0.08456623768797034,"{38: 2, 57: 2, 81: 2, 29: 3, 8: 10}","[8, 29, 38, 57, 81]",810293382572812,Sr2La2Tl2Cu3O10
Sr2CePrCu3(PbO5)2,mp-1218877,0.41140000000000043,4.6622771,0.017420616743420325,"{38: 2, 58: 1, 59: 1, 29: 3, 82: 2, 8: 10}","[8, 29, 38, 58, 59, 82]",810293382581591822,Sr2Ce1Pr1Cu3Pb2O10
Sr2Pr2Tl2Cu3O10,mp-1208789,0.0,5.01032274,0.08537817999060593,"{38: 2, 59: 2, 81: 2, 29: 3, 8: 10}","[8, 29, 38, 59, 81]",810293382592812,Sr2Pr2Tl2Cu3O10
Ba3Sr(Cu2O5)2,mp-1076189,0.0,2.16781528,0.1033468164235467,"{56: 3, 38: 1, 29: 4, 8: 10}","[8, 29, 38, 56]",810294381563,Ba3Sr1Cu4O10
SrLa3(Cu2O5)2,mp-1218269,0.0,6.48858256,0.025728194166624974,"{38: 1, 57: 3, 29: 4, 8: 10}","[8, 29, 38, 57]",810294381573,Sr1La3Cu4O10
Sr25Ti39O103,mp-1198567,1.9422,-0.46950407,0.041417853892218304,"{38: 25, 22: 39, 8: 103}","[8, 22, 38]",810322393825,Sr25Ti39O103
SrU(SeO5)2,mp-1193769,0.0,0.33590911,0.4545621719642865,"{38: 1, 92: 1, 34: 2, 8: 10}","[8, 34, 38, 92]",810342381921,Sr1U1Se2O10
RbSr2Nb3O10,mp-22720,1.4661000000000002,1.19518776,0.00783162687499761,"{37: 1, 38: 2, 41: 3, 8: 10}","[8, 37, 38, 41]",810371382413,Rb1Sr2Nb3O10
SrO10,mp-1179224,0.0,0.8375551,0.06209601363636352,"{38: 1, 8: 10}","[8, 38]",810381,Sr1O10
CsSr2Nb3O10,mp-22264,1.4423,1.39315993,0.0010900627343755076,"{55: 1, 38: 2, 41: 3, 8: 10}","[8, 38, 41, 55]",810382413551,Cs1Sr2Nb3O10
Sr2Ru3O10,mp-29683,0.0,2.56001135,0.03951931841666223,"{38: 2, 44: 3, 8: 10}","[8, 38, 44]",810382443,Sr2Ru3O10
CsSr2Ta3O10,mp-7181,2.0452000000000004,1.43231839,0.0,"{55: 1, 38: 2, 73: 3, 8: 10}","[8, 38, 55, 73]",810382551733,Cs1Sr2Ta3O10
Sr4Zr3O10,mp-1208748,3.6046000000000005,5.22849548,0.002721731911758951,"{38: 4, 40: 3, 8: 10}","[8, 38, 40]",810384403,Sr4Zr3O10
Sr4Ru3O10,mp-680680,0.0,4.41873295,0.0,"{38: 4, 44: 3, 8: 10}","[8, 38, 44]",810384443,Sr4Ru3O10
Sr4Hf3O10,mp-779001,4.0727,2.04034847,0.007250575882359556,"{38: 4, 72: 3, 8: 10}","[8, 38, 72]",810384723,Sr4Hf3O10
Sr4Ir3O10,mp-1208702,0.0,4.67136,0.08572160029411524,"{38: 4, 77: 3, 8: 10}","[8, 38, 77]",810384773,Sr4Ir3O10
Sr4MgMn2Ga2O11,mp-1234609,0.7239,2.61698925,0.1527106284999995,"{38: 4, 12: 1, 25: 2, 31: 2, 8: 11}","[8, 12, 25, 31, 38]",811121252312384,Sr4Mg1Mn2Ga2O11
Sr4MgFe4O11,mp-2231293,1.8344,2.7485291,0.15614729350000367,"{38: 4, 12: 1, 26: 4, 8: 11}","[8, 12, 26, 38]",811121264384,Sr4Mg1Fe4O11
Sr2MnP3O11,mp-559244,0.10349999999999993,2.03340551,0.0,"{38: 2, 25: 1, 15: 3, 8: 11}","[8, 15, 25, 38]",811153251382,Sr2Mn1P3O11
SrRe3S4O11,mp-1197376,0.04699999999999993,1.46573366,1.2311757040789502,"{38: 1, 75: 3, 16: 4, 8: 11}","[8, 16, 38, 75]",811164381753,Sr1Re3S4O11
Sr4CaMn2Ga2O11,mp-1233777,0.0,2.22015237,0.18548914200000155,"{38: 4, 20: 1, 25: 2, 31: 2, 8: 11}","[8, 20, 25, 31, 38]",811201252312384,Sr4Ca1Mn2Ga2O11
SrCa3Mn4O11,mp-1247640,0.0,3.09351075,0.07213683326440545,"{38: 1, 20: 3, 25: 4, 8: 11}","[8, 20, 25, 38]",811203254381,Sr1Ca3Mn4O11
SrV3O11,mp-1193514,0.0,-0.79129184,0.6035656940000047,"{38: 1, 23: 3, 8: 11}","[8, 23, 38]",811233381,Sr1V3O11
Sr2V3BiO11,mp-556533,2.781,1.222435,0.0007707295588277319,"{38: 2, 23: 3, 83: 1, 8: 11}","[8, 23, 38, 83]",811233382831,Sr2V3Bi1O11
SrV6O11,mp-16924,0.0,4.41791645,0.03322255482642511,"{38: 1, 23: 6, 8: 11}","[8, 23, 38]",811236381,Sr1V6O11
Sr4Mn2Ga2O11,mp-1218651,0.0,2.4733775,0.09590241192984283,"{38: 4, 25: 2, 31: 2, 8: 11}","[8, 25, 31, 38]",811252312384,Sr4Mn2Ga2O11
SrMn2O11,mp-1203901,0.42490000000000006,-1.19157471,0.5041878977976149,"{38: 1, 25: 2, 8: 11}","[8, 25, 38]",811252381,Sr1Mn2O11
Sr2La2Mn4O11,mp-1218776,0.0,6.29237277,0.16065889499649444,"{38: 2, 57: 2, 25: 4, 8: 11}","[8, 25, 38, 57]",811254382572,Sr2La2Mn4O11
Sr6Fe2Ru2O11,mp-1218553,0.0,3.99752605,0.1328303920000069,"{38: 6, 26: 2, 44: 2, 8: 11}","[8, 26, 38, 44]",811262386442,Sr6Fe2Ru2O11
Sr4Fe4O11,mp-21059,0.0,2.46040197,0.009928396315778798,"{38: 4, 26: 4, 8: 11}","[8, 26, 38]",811264384,Sr4Fe4O11
Sr2Ce2YCoCu2O11,mp-1218876,0.41840000000000055,3.98542205,0.02684731310311239,"{38: 2, 58: 2, 39: 1, 27: 1, 29: 2, 8: 11}","[8, 27, 29, 38, 39, 58]",811271292382391582,Sr2Ce2Y1Co1Cu2O11
SrCo6O11,mp-18381,0.0,3.26203264,0.0,"{38: 1, 27: 6, 8: 11}","[8, 27, 38]",811276381,Sr1Co6O11
SrZnRu5O11,mp-1197440,0.0,4.7957935,0.03269645187499215,"{38: 1, 30: 1, 44: 5, 8: 11}","[8, 30, 38, 44]",811301381445,Sr1Zn1Ru5O11
SrMo2Se2O11,mp-1200408,2.7115,0.42843474,0.0,"{38: 1, 42: 2, 34: 2, 8: 11}","[8, 34, 38, 42]",811342381422,Sr1Mo2Se2O11
SrRe3Se4O11,mp-1197587,0.0036000000000000476,0.5580446,1.1582358359841018,"{38: 1, 75: 3, 34: 4, 8: 11}","[8, 34, 38, 75]",811344381753,Sr1Re3Se4O11
Sr2Nb2Bi3BrO11,mp-1218780,0.24940000000000007,3.32952198,0.13454123263158557,"{38: 2, 41: 2, 83: 3, 35: 1, 8: 11}","[8, 35, 38, 41, 83]",811351382412833,Sr2Nb2Bi3Br1O11
SrTe5O11,mp-676528,0.16169999999999973,4.32842204,0.24202491549018124,"{38: 1, 52: 5, 8: 11}","[8, 38, 52]",811381525,Sr1Te5O11
SrTa4O11,mp-541462,3.5232,1.22187707,0.0,"{38: 1, 73: 4, 8: 11}","[8, 38, 73]",811381734,Sr1Ta4O11
Sr2LaTa3O11,mp-557028,3.0179,2.30598518,0.01981016720587725,"{38: 2, 57: 1, 73: 3, 8: 11}","[8, 38, 57, 73]",811382571733,Sr2La1Ta3O11
Sr2U4O11,mp-760440,0.0,7.31186749,0.08862077827732584,"{38: 2, 92: 4, 8: 11}","[8, 38, 92]",811382924,Sr2U4O11
Sr3Te4O11,mp-30026,3.1807999999999996,2.62939003,0.0,"{38: 3, 52: 4, 8: 11}","[8, 38, 52]",811383524,Sr3Te4O11
Sr4Pt4PbO11,mp-556331,0.5728999999999997,3.67715075,0.0,"{38: 4, 78: 4, 82: 1, 8: 11}","[8, 38, 78, 82]",811384784821,Sr4Pt4Pb1O11
Sr5Ir3O11,mp-1218480,0.0,4.36825951,0.0585903510526391,"{38: 5, 77: 3, 8: 11}","[8, 38, 77]",811385773,Sr5Ir3O11
Sr6Nb2O11,mp-686028,0.0,4.89696976,0.026465751578945707,"{38: 6, 41: 2, 8: 11}","[8, 38, 41]",811386412,Sr6Nb2O11
Sr6Ta2O11,mp-676378,2.3998999999999997,2.0696758,0.1460605094736831,"{38: 6, 73: 2, 8: 11}","[8, 38, 73]",811386732,Sr6Ta2O11
Sr6Bi2O11,mp-675103,0.7894000000000001,1.95533745,0.0819854047368418,"{38: 6, 83: 2, 8: 11}","[8, 38, 83]",811386832,Sr6Bi2O11
Sr4P2O,mp-8298,1.2134,2.6742856,0.0,"{38: 4, 15: 2, 8: 1}","[8, 15, 38]",81152384,Sr4P2O1
SrCuSO,mp-1393408,0.0,3.63689028,0.41729145796874967,"{38: 1, 29: 1, 16: 1, 8: 1}","[8, 16, 29, 38]",81161291381,Sr1Cu1S1O1
Sr2SO,mp-1018030,2.4582999999999995,1.86360916,0.22345567999999894,"{38: 2, 16: 1, 8: 1}","[8, 16, 38]",81161382,Sr2S1O1
SrFe2S2O,mp-1095280,2.0437,2.74753611,0.059039817916668014,"{38: 1, 26: 2, 16: 2, 8: 1}","[8, 16, 26, 38]",81162262381,Sr1Fe2S2O1
Sr4S3O,mp-1020578,2.1115000000000004,2.13187361,0.1439786474999991,"{38: 4, 16: 3, 8: 1}","[8, 16, 38]",81163384,Sr4S3O1
Sr2ZnGe2S6O,mp-1208502,2.3133,3.81587955,0.0,"{38: 2, 30: 1, 32: 2, 16: 6, 8: 1}","[8, 16, 30, 32, 38]",81166301322382,Sr2Zn1Ge2S6O1
SrClO,mp-1206531,0.7333,-0.58008277,0.26963636991228057,"{38: 1, 17: 1, 8: 1}","[8, 17, 38]",81171381,Sr1Cl1O1
SrCl2O,mp-732286,0.8784000000000001,-0.31205598,0.7481602220833334,"{38: 1, 17: 2, 8: 1}","[8, 17, 38]",81172381,Sr1Cl2O1
Sr4Cl6O,mp-23321,4.5588999999999995,0.88864859,0.0,"{38: 4, 17: 6, 8: 1}","[8, 17, 38]",81176384,Sr4Cl6O1
NaSr2LaTi4O12,mp-1220889,1.8638999999999997,3.75476803,0.008997889987499619,"{11: 1, 38: 2, 57: 1, 22: 4, 8: 12}","[8, 11, 22, 38, 57]",812111224382571,Na1Sr2La1Ti4O12
NaSr2NdTi4O12,mp-695514,1.8572000000000002,3.22416063,0.01580486238887069,"{11: 1, 38: 2, 60: 1, 22: 4, 8: 12}","[8, 11, 22, 38, 60]",812111224382601,Na1Sr2Nd1Ti4O12
Ba3NaSr(SbO4)3,mp-1228279,1.5696999999999997,4.95343258,0.027943829983343882,"{56: 3, 11: 1, 38: 1, 51: 3, 8: 12}","[8, 11, 38, 51, 56]",812111381513563,Ba3Na1Sr1Sb3O12
Ba2NaSr2(SbO4)3,mp-1228553,1.8582999999999998,5.17722979,0.03243338008334273,"{56: 2, 11: 1, 38: 2, 51: 3, 8: 12}","[8, 11, 38, 51, 56]",812111382513562,Ba2Na1Sr2Sb3O12
BaNaSr3(SbO4)3,mp-1227913,1.9361000000000002,5.26259153,0.03255942005952939,"{56: 1, 11: 1, 38: 3, 51: 3, 8: 12}","[8, 11, 38, 51, 56]",812111383513561,Ba1Na1Sr3Sb3O12
NaSr4(SbO4)3,mp-17433,2.3961000000000006,3.19805353,0.021927810535720127,"{11: 1, 38: 4, 51: 3, 8: 12}","[8, 11, 38, 51]",812111384513,Na1Sr4Sb3O12
Na2Sr(PO3)4,mp-540951,5.3329,0.76848887,0.0018896630701874528,"{11: 2, 38: 1, 15: 4, 8: 12}","[8, 11, 15, 38]",812112154381,Na2Sr1P4O12
Na2SrV4O12,mp-18975,2.8729999999999998,-0.66863497,0.0,"{11: 2, 38: 1, 23: 4, 8: 12}","[8, 11, 23, 38]",812112234381,Na2Sr1V4O12
Na3SrTiNb3O12,mp-677431,1.3636,2.04181082,0.031791751749999264,"{11: 3, 38: 1, 22: 1, 41: 3, 8: 12}","[8, 11, 22, 38, 41]",812113221381413,Na3Sr1Ti1Nb3O12
Na3SrTa4O12,mp-1221219,0.0,5.06284203,0.0,"{11: 3, 38: 1, 73: 4, 8: 12}","[8, 11, 38, 73]",812113381734,Na3Sr1Ta4O12
Na4SrU3O12,mp-1210252,2.0816,1.82776176,0.08990042162500167,"{11: 4, 38: 1, 92: 3, 8: 12}","[8, 11, 38, 92]",812114381923,Na4Sr1U3O12
Sr2La2MgTi3O12,mp-1218781,1.9500000000000002,4.38807207,0.02225634187499992,"{38: 2, 57: 2, 12: 1, 22: 3, 8: 12}","[8, 12, 22, 38, 57]",812121223382572,Sr2La2Mg1Ti3O12
Sr3MgMn4O12,mp-2230221,0.7939000000000003,2.02705222,0.2417829343749922,"{38: 3, 12: 1, 25: 4, 8: 12}","[8, 12, 25, 38]",812121254383,Sr3Mg1Mn4O12
SrMgFe2(SeO3)4,mp-2230288,3.1105,2.14854268,0.08238413618182783,"{38: 1, 12: 1, 26: 2, 34: 4, 8: 12}","[8, 12, 26, 34, 38]",812121262344381,Sr1Mg1Fe2Se4O12
Sr2Pr2MgFe2(RuO6)2,mp-1233527,0.0,4.17304191,0.1849407470089286,"{38: 2, 59: 2, 12: 1, 26: 2, 44: 2, 8: 12}","[8, 12, 26, 38, 44, 59]",812121262382442592,Sr2Pr2Mg1Fe2Ru2O12
SrMg(CoO3)4,mp-1522326,0.0,1.65377735,0.3644114978897788,"{38: 1, 12: 1, 27: 4, 8: 12}","[8, 12, 27, 38]",812121274381,Sr1Mg1Co4O12
Sr2La2Mg(RuO4)3,mp-1218729,0.0,5.97961013,0.0071555317499987225,"{38: 2, 57: 2, 12: 1, 44: 3, 8: 12}","[8, 12, 38, 44, 57]",812121382443572,Sr2La2Mg1Ru3O12
Sr4Y2Mg(RuO6)2,mp-1234008,0.0,3.90712217,0.15998313994047741,"{38: 4, 39: 2, 12: 1, 44: 2, 8: 12}","[8, 12, 38, 39, 44]",812121384392442,Sr4Y2Mg1Ru2O12
Sr4La2Mg(RuO6)2,mp-1173214,0.0,4.90760431,0.03963173488095251,"{38: 4, 57: 2, 12: 1, 44: 2, 8: 12}","[8, 12, 38, 44, 57]",812121384442572,Sr4La2Mg1Ru2O12
Sr4Tb2Mg(RuO6)2,mp-1233668,0.0,3.86754617,0.1600914970833358,"{38: 4, 65: 2, 12: 1, 44: 2, 8: 12}","[8, 12, 38, 44, 65]",812121384442652,Sr4Tb2Mg1Ru2O12
Sr4MgIn2(SbO6)2,mp-2220769,2.1995,2.88354666,0.09942072532737978,"{38: 4, 12: 1, 49: 2, 51: 2, 8: 12}","[8, 12, 38, 49, 51]",812121384492512,Sr4Mg1In2Sb2O12
Sr4Sm2MgTa2O12,mp-1233834,0.6167000000000007,4.75112985,0.18360296253889352,"{38: 4, 62: 2, 12: 1, 73: 2, 8: 12}","[8, 12, 38, 62, 73]",812121384622732,Sr4Sm2Mg1Ta2O12
Ba3SrMg2(TeO6)2,mp-1228054,1.9849999999999994,5.59225068,0.0,"{56: 3, 38: 1, 12: 2, 52: 2, 8: 12}","[8, 12, 38, 52, 56]",812122381522563,Ba3Sr1Mg2Te2O12
Sr2La4Mg2RuO12,mp-1173268,0.0,5.83602749,0.06850358119047417,"{38: 2, 57: 4, 12: 2, 44: 1, 8: 12}","[8, 12, 38, 44, 57]",812122382441574,Sr2La4Mg2Ru1O12
Sr5P3ClO12,mp-23121,5.0783,1.55013812,0.0,"{38: 5, 15: 3, 17: 1, 8: 12}","[8, 15, 17, 38]",812153171385,Sr5P3Cl1O12
SrTiFe(PO4)3,mp-695093,2.2525,1.36420626,0.0049259598611204325,"{38: 1, 22: 1, 26: 1, 15: 3, 8: 12}","[8, 15, 22, 26, 38]",812153221261381,Sr1Ti1Fe1P3O12
Sr2V(PO4)3,mp-727920,0.9960999999999998,1.24091016,0.08462375541666045,"{38: 2, 23: 1, 15: 3, 8: 12}","[8, 15, 23, 38]",812153231382,Sr2V1P3O12
SrCrSn(PO4)3,mp-560855,3.0852999999999993,1.75425906,0.0,"{38: 1, 24: 1, 50: 1, 15: 3, 8: 12}","[8, 15, 24, 38, 50]",812153241381501,Sr1Cr1Sn1P3O12
SrMn3(PO4)3,mp-1201132,0.0,3.5285064,0.0,"{38: 1, 25: 3, 15: 3, 8: 12}","[8, 15, 25, 38]",812153253381,Sr1Mn3P3O12
SrFeSn(PO4)3,mp-704950,0.0,2.00241292,0.007350387638906497,"{38: 1, 26: 1, 50: 1, 15: 3, 8: 12}","[8, 15, 26, 38, 50]",812153261381501,Sr1Fe1Sn1P3O12
Sr2Fe(PO4)3,mp-1203060,0.0,1.23524716,0.09518532291666393,"{38: 2, 26: 1, 15: 3, 8: 12}","[8, 15, 26, 38]",812153261382,Sr2Fe1P3O12
SrFe3(PO4)3,mp-555399,0.0,3.06446952,0.0,"{38: 1, 26: 3, 15: 3, 8: 12}","[8, 15, 26, 38]",812153263381,Sr1Fe3P3O12
Sr5P3BrO12,mp-23141,4.9315,1.600056,0.0,"{38: 5, 15: 3, 35: 1, 8: 12}","[8, 15, 35, 38]",812153351385,Sr5P3Br1O12
K2Sr(PO3)4,mp-558990,5.6094,-0.27345956,0.0,"{19: 2, 38: 1, 15: 4, 8: 12}","[8, 15, 19, 38]",812154192381,K2Sr1P4O12
Rb2Sr(PO3)4,mp-1209338,5.4618,-0.22643374,0.0,"{37: 2, 38: 1, 15: 4, 8: 12}","[8, 15, 37, 38]",812154372381,Rb2Sr1P4O12
SrCd(PO3)4,mp-541367,4.4041,0.70621531,0.0020975649305556843,"{38: 1, 48: 1, 15: 4, 8: 12}","[8, 15, 38, 48]",812154381481,Sr1Cd1P4O12
SrTl2(PO3)4,mp-1208595,4.453600000000001,5.48064561,0.0,"{38: 1, 81: 2, 15: 4, 8: 12}","[8, 15, 38, 81]",812154381812,Sr1Tl2P4O12
Sr5V3ClO12,mp-556224,3.9446,0.50460226,0.0,"{38: 5, 23: 3, 17: 1, 8: 12}","[8, 17, 23, 38]",812171233385,Sr5V3Cl1O12
Sr5Cr3ClO12,mp-1179227,1.1425,3.07635136,0.0,"{38: 5, 24: 3, 17: 1, 8: 12}","[8, 17, 24, 38]",812171243385,Sr5Cr3Cl1O12
Ba3Sr2As3ClO12,mp-1214567,3.9384000000000006,0.71355944,0.000740384523808757,"{56: 3, 38: 2, 33: 3, 17: 1, 8: 12}","[8, 17, 33, 38, 56]",812171333382563,Ba3Sr2As3Cl1O12
Sr5As3ClO12,mp-559965,3.8285000000000005,0.94728095,0.0,"{38: 5, 33: 3, 17: 1, 8: 12}","[8, 17, 33, 38]",812171333385,Sr5As3Cl1O12
K2SrV4O12,mp-19075,3.0368,-1.21805112,0.0,"{19: 2, 38: 1, 23: 4, 8: 12}","[8, 19, 23, 38]",812192234381,K2Sr1V4O12
K4SrU3O12,mp-22634,2.0683,1.9729372,0.0,"{19: 4, 38: 1, 92: 3, 8: 12}","[8, 19, 38, 92]",812194381923,K4Sr1U3O12
Sr3CaTiMn3O12,mp-1099855,0.0,3.06518661,0.051829877416651904,"{38: 3, 20: 1, 22: 1, 25: 3, 8: 12}","[8, 20, 22, 25, 38]",812201221253383,Sr3Ca1Ti1Mn3O12
Sr3CaTi2Mn2O12,mp-1076138,0.0,3.15329029,0.034261241476182036,"{38: 3, 20: 1, 22: 2, 25: 2, 8: 12}","[8, 20, 22, 25, 38]",812201222252383,Sr3Ca1Ti2Mn2O12
Sr3CaTi3MnO12,mp-1099703,0.7617000000000003,3.22409988,0.02755110408333472,"{38: 3, 20: 1, 22: 3, 25: 1, 8: 12}","[8, 20, 22, 25, 38]",812201223251383,Sr3Ca1Ti3Mn1O12
SrCaTi4O12,mp-1518238,0.0,1.13851832,0.17321394819444613,"{38: 1, 20: 1, 22: 4, 8: 12}","[8, 20, 22, 38]",812201224381,Sr1Ca1Ti4O12
Sr3CaTi4O12,mp-1218577,1.9214000000000002,3.17572518,0.009910778874999693,"{38: 3, 20: 1, 22: 4, 8: 12}","[8, 20, 22, 38]",812201224383,Sr3Ca1Ti4O12
SrCaV4O12,mp-1523281,0.15329999999999977,2.23447662,0.17445881395833318,"{38: 1, 20: 1, 23: 4, 8: 12}","[8, 20, 23, 38]",812201234381,Sr1Ca1V4O12
Sr3CaV4O12,mp-1644003,0.40090000000000003,4.09388497,0.033747393875003695,"{38: 3, 20: 1, 23: 4, 8: 12}","[8, 20, 23, 38]",812201234383,Sr3Ca1V4O12
SrCaCr4O12,mp-1521869,0.0,1.96538262,0.3679511723611144,"{38: 1, 20: 1, 24: 4, 8: 12}","[8, 20, 24, 38]",812201244381,Sr1Ca1Cr4O12
Sr2CaPr2Fe2(RuO6)2,mp-1234301,0.002200000000000202,4.2666401,0.20357627683123258,"{38: 2, 20: 1, 59: 2, 26: 2, 44: 2, 8: 12}","[8, 20, 26, 38, 44, 59]",812201262382442592,Sr2Ca1Pr2Fe2Ru2O12
SrCa(FeO3)4,mp-1517238,0.0,0.84384011,0.23862566805555474,"{38: 1, 20: 1, 26: 4, 8: 12}","[8, 20, 26, 38]",812201264381,Sr1Ca1Fe4O12
Sr3Ca(FeO3)4,mp-1094055,0.0,2.71997366,0.01321300537500214,"{38: 3, 20: 1, 26: 4, 8: 12}","[8, 20, 26, 38]",812201264383,Sr3Ca1Fe4O12
Sr3CaCo3CuO12,mp-1076688,0.0,2.95395627,0.07606800078125087,"{38: 3, 20: 1, 27: 3, 29: 1, 8: 12}","[8, 20, 27, 29, 38]",812201273291383,Sr3Ca1Co3Cu1O12
SrCa(CoO3)4,mp-1517017,0.0,1.55455396,0.26464437820564246,"{38: 1, 20: 1, 27: 4, 8: 12}","[8, 20, 27, 38]",812201274381,Sr1Ca1Co4O12
Sr2CaPr3(CuO3)4,mp-1218853,0.0,3.82027519,0.05430499539771638,"{38: 2, 20: 1, 59: 3, 29: 4, 8: 12}","[8, 20, 29, 38, 59]",812201294382593,Sr2Ca1Pr3Cu4O12
SrCa(GeO3)4,mp-1520361,0.0,1.49698879,0.32407289601851286,"{38: 1, 20: 1, 32: 4, 8: 12}","[8, 20, 32, 38]",812201324381,Sr1Ca1Ge4O12
SrCaZr4O12,mp-1519495,0.0,0.16410999,0.21219651825000696,"{38: 1, 20: 1, 40: 4, 8: 12}","[8, 20, 38, 40]",812201381404,Sr1Ca1Zr4O12
SrCaNb4O12,mp-1519971,1.6939999999999997,1.10692417,0.08049075708332687,"{38: 1, 20: 1, 41: 4, 8: 12}","[8, 20, 38, 41]",812201381414,Sr1Ca1Nb4O12
SrCa(SnO3)4,mp-1518901,0.0,2.33969782,0.26906910194444755,"{38: 1, 20: 1, 50: 4, 8: 12}","[8, 20, 38, 50]",812201381504,Sr1Ca1Sn4O12
SrCaHf4O12,mp-1519143,0.0,0.34413823,0.20106545402776632,"{38: 1, 20: 1, 72: 4, 8: 12}","[8, 20, 38, 72]",812201381724,Sr1Ca1Hf4O12
Sr2CaO12,mp-1233779,0.0,0.50157869,0.12874023916666388,"{38: 2, 20: 1, 8: 12}","[8, 20, 38]",812201382,Sr2Ca1O12
Sr3Ca(SnO3)4,mp-1218522,1.8808999999999996,5.78695371,0.01400782475000284,"{38: 3, 20: 1, 50: 4, 8: 12}","[8, 20, 38, 50]",812201383504,Sr3Ca1Sn4O12
Sr3CaHf4O12,mp-1218494,4.1782,2.07227271,0.007612675749999909,"{38: 3, 20: 1, 72: 4, 8: 12}","[8, 20, 38, 72]",812201383724,Sr3Ca1Hf4O12
Sr4CaY2(RuO6)2,mp-1234402,0.0,3.79204626,0.18214109232142484,"{38: 4, 20: 1, 39: 2, 44: 2, 8: 12}","[8, 20, 38, 39, 44]",812201384392442,Sr4Ca1Y2Ru2O12
Sr4CaTb2(RuO6)2,mp-1234335,0.0,3.7869766,0.1780983408928538,"{38: 4, 20: 1, 65: 2, 44: 2, 8: 12}","[8, 20, 38, 44, 65]",812201384442652,Sr4Ca1Tb2Ru2O12
Sr4CaSm2Ta2O12,mp-1233600,0.3796999999999997,4.63439652,0.18452331634841102,"{38: 4, 20: 1, 62: 2, 73: 2, 8: 12}","[8, 20, 38, 62, 73]",812201384622732,Sr4Ca1Sm2Ta2O12
Sr7Ca(IrO6)2,mp-1218468,0.0,3.74333503,0.0019227981818161766,"{38: 7, 20: 1, 77: 2, 8: 12}","[8, 20, 38, 77]",812201387772,Sr7Ca1Ir2O12
SrCa2Sc6O12,mp-1218492,2.8621000000000003,2.7957244,0.027815411547626567,"{38: 1, 20: 2, 21: 6, 8: 12}","[8, 20, 21, 38]",812202216381,Sr1Ca2Sc6O12
Sr2Ca2TiMn3O12,mp-1077669,0.0,3.17294722,0.06919215630952369,"{38: 2, 20: 2, 22: 1, 25: 3, 8: 12}","[8, 20, 22, 25, 38]",812202221253382,Sr2Ca2Ti1Mn3O12
Sr2Ca2Mn(FeO4)3,mp-1076410,0.0,2.93968694,0.044140814708320875,"{38: 2, 20: 2, 25: 1, 26: 3, 8: 12}","[8, 20, 25, 26, 38]",812202251263382,Sr2Ca2Mn1Fe3O12
Sr2Ca2Mn3FeO12,mp-1099674,0.0,2.99336188,0.07252156690476586,"{38: 2, 20: 2, 25: 3, 26: 1, 8: 12}","[8, 20, 25, 26, 38]",812202253261382,Sr2Ca2Mn3Fe1O12
Sr2Ca2Fe(CoO4)3,mp-1099605,0.0,3.02713541,0.06539476808333067,"{38: 2, 20: 2, 26: 1, 27: 3, 8: 12}","[8, 20, 26, 27, 38]",812202261273382,Sr2Ca2Fe1Co3O12