formula,material_id,band_gap,efermi,energy_above_hull,comp_atoms,sorted_keys_comp_atoms,comp_number,new_formula
Sr2Ca2Fe3CoO12,mp-1075966,0.0,3.03517899,0.04683369454166453,"{38: 2, 20: 2, 26: 3, 27: 1, 8: 12}","[8, 20, 26, 27, 38]",812202263271382,Sr2Ca2Fe3Co1O12
Sr2Ca2Co3CuO12,mp-1099844,0.0,2.99619731,0.09712015370535543,"{38: 2, 20: 2, 27: 3, 29: 1, 8: 12}","[8, 20, 27, 29, 38]",812202273291382,Sr2Ca2Co3Cu1O12
Ba3SrCa2(MoO6)2,mp-1228050,2.2648,4.56791232,0.019968269124986726,"{56: 3, 38: 1, 20: 2, 42: 2, 8: 12}","[8, 20, 38, 42, 56]",812202381422563,Ba3Sr1Ca2Mo2O12
Ba3SrCa2(WO6)2,mp-1228115,3.3280000000000003,5.30258046,0.012511488999998654,"{56: 3, 38: 1, 20: 2, 74: 2, 8: 12}","[8, 20, 38, 56, 74]",812202381563742,Ba3Sr1Ca2W2O12
BaSr3Ca2(MoO6)2,mp-1227697,2.3031,4.62402871,0.05662537337498641,"{56: 1, 38: 3, 20: 2, 42: 2, 8: 12}","[8, 20, 38, 42, 56]",812202383422561,Ba1Sr3Ca2Mo2O12
SrCa3TiMn3O12,mp-1076074,0.0,3.30852089,0.08057487650000272,"{38: 1, 20: 3, 22: 1, 25: 3, 8: 12}","[8, 20, 22, 25, 38]",812203221253381,Sr1Ca3Ti1Mn3O12
SrCa3Ti4O12,mp-1218476,2.1700000000000004,3.06588691,0.009579183125000057,"{38: 1, 20: 3, 22: 4, 8: 12}","[8, 20, 22, 38]",812203224381,Sr1Ca3Ti4O12
SrCa3V4O12,mp-1218581,0.8810000000000002,4.44810993,0.014819245148803617,"{38: 1, 20: 3, 23: 4, 8: 12}","[8, 20, 23, 38]",812203234381,Sr1Ca3V4O12
SrCa3Mn4O12,mp-1094044,0.0,3.3835451,0.04891738514285304,"{38: 1, 20: 3, 25: 4, 8: 12}","[8, 20, 25, 38]",812203254381,Sr1Ca3Mn4O12
SrCa3(CoO3)4,mp-1076096,0.0,3.42749588,0.10765469533333594,"{38: 1, 20: 3, 27: 4, 8: 12}","[8, 20, 27, 38]",812203274381,Sr1Ca3Co4O12
Sr2Ca3Cu4(BiO6)2,mp-1191679,0.0,4.42686472,0.06376916594202076,"{38: 2, 20: 3, 29: 4, 83: 2, 8: 12}","[8, 20, 29, 38, 83]",812203294382832,Sr2Ca3Cu4Bi2O12
SrCa3(RuO3)4,mp-1218465,0.0,4.70884512,0.0069296636249998045,"{38: 1, 20: 3, 44: 4, 8: 12}","[8, 20, 38, 44]",812203381444,Sr1Ca3Ru4O12
SrCa3(SnO3)4,mp-1218487,2.1647,6.17514152,0.028500247250004662,"{38: 1, 20: 3, 50: 4, 8: 12}","[8, 20, 38, 50]",812203381504,Sr1Ca3Sn4O12
SrCa3La2(SbO6)2,mp-1218515,3.6827000000000005,4.02557294,0.002455766500000678,"{38: 1, 20: 3, 57: 2, 51: 2, 8: 12}","[8, 20, 38, 51, 57]",812203381512572,Sr1Ca3La2Sb2O12
SrCa3Hf4O12,mp-1218454,4.44,6.5084863,0.007486108750004661,"{38: 1, 20: 3, 72: 4, 8: 12}","[8, 20, 38, 72]",812203381724,Sr1Ca3Hf4O12
Sr3Sc2(GeO4)3,mp-1208829,3.7912,1.28311647,0.0,"{38: 3, 21: 2, 32: 3, 8: 12}","[8, 21, 32, 38]",812212323383,Sr3Sc2Ge3O12
SrTiFe3(BiO4)3,mp-1217793,2.0819,6.26662583,0.03060700525000115,"{38: 1, 22: 1, 26: 3, 83: 3, 8: 12}","[8, 22, 26, 38, 83]",812221263381833,Sr1Ti1Fe3Bi3O12
SrTiNb2Bi2PbO12,mp-1217801,0.9508000000000001,5.27009892,0.03851938236841512,"{38: 1, 22: 1, 41: 2, 83: 2, 82: 1, 8: 12}","[8, 22, 38, 41, 82, 83]",812221381412821832,Sr1Ti1Nb2Bi2Pb1O12
Sr4Zr3TiO12,mp-1218572,2.604,2.16922913,0.01540256962499953,"{38: 4, 40: 3, 22: 1, 8: 12}","[8, 22, 38, 40]",812221384403,Sr4Zr3Ti1O12
Sr4Hf3TiO12,mp-1218574,2.5782,5.0098502,0.015858196250004397,"{38: 4, 72: 3, 22: 1, 8: 12}","[8, 22, 38, 72]",812221384723,Sr4Hf3Ti1O12
Sr3LaTi2Mn2O12,mp-1573704,1.4462000000000002,4.38201583,0.06316086783332153,"{38: 3, 57: 1, 22: 2, 25: 2, 8: 12}","[8, 22, 25, 38, 57]",812222252383571,Sr3La1Ti2Mn2O12
Sr3Ti2Mn2BiO12,mp-1218519,0.0,4.46167025,0.05173350377499286,"{38: 3, 22: 2, 25: 2, 83: 1, 8: 12}","[8, 22, 25, 38, 83]",812222252383831,Sr3Ti2Mn2Bi1O12
SrLa3Ti2(CoO6)2,mp-1218234,0.0,6.594093,0.08949847575001257,"{38: 1, 57: 3, 22: 2, 27: 2, 8: 12}","[8, 22, 27, 38, 57]",812222272381573,Sr1La3Ti2Co2O12
BaSr3Zr2Ti2O12,mp-1227746,2.2119999999999997,4.86169926,0.03864440437499894,"{56: 1, 38: 3, 40: 2, 22: 2, 8: 12}","[8, 22, 38, 40, 56]",812222383402561,Ba1Sr3Zr2Ti2O12
Sr4ZrTi3O12,mp-1218479,1.9809999999999999,4.89182943,0.02816766437499929,"{38: 4, 40: 1, 22: 3, 8: 12}","[8, 22, 38, 40]",812223384401,Sr4Zr1Ti3O12
Sr4HfTi3O12,mp-1218423,1.8067999999999995,4.77535265,0.01896128625000948,"{38: 4, 72: 1, 22: 3, 8: 12}","[8, 22, 38, 72]",812223384721,Sr4Hf1Ti3O12
SrTi4(CuO4)3,mp-1208604,0.0,4.50487895,0.05530254700000192,"{38: 1, 22: 4, 29: 3, 8: 12}","[8, 22, 29, 38]",812224293381,Sr1Ti4Cu3O12
SrTi4SnO12,mp-1516251,0.0,1.87489206,0.35153414118057036,"{38: 1, 22: 4, 50: 1, 8: 12}","[8, 22, 38, 50]",812224381501,Sr1Ti4Sn1O12
BaSrTi4O12,mp-1520689,0.0,1.01871767,0.173444965333303,"{56: 1, 38: 1, 22: 4, 8: 12}","[8, 22, 38, 56]",812224381561,Ba1Sr1Ti4O12
SrNdTi4O12,mp-1519398,0.0,1.50835703,0.14101189510415857,"{38: 1, 60: 1, 22: 4, 8: 12}","[8, 22, 38, 60]",812224381601,Sr1Nd1Ti4O12
SrNd2Ti4O12,mp-1218162,1.7245,3.04150332,0.09835000592107157,"{38: 1, 60: 2, 22: 4, 8: 12}","[8, 22, 38, 60]",812224381602,Sr1Nd2Ti4O12
SrSmTi4O12,mp-1522156,0.0,1.53926443,0.14604392156251222,"{38: 1, 62: 1, 22: 4, 8: 12}","[8, 22, 38, 62]",812224381621,Sr1Sm1Ti4O12
SrEuTi4O12,mp-1519071,0.0,1.44236821,0.17296813479167206,"{38: 1, 63: 1, 22: 4, 8: 12}","[8, 22, 38, 63]",812224381631,Sr1Eu1Ti4O12
BaSr3Ti4O12,mp-1227688,1.7434000000000003,4.88622448,0.0037099404999914043,"{56: 1, 38: 3, 22: 4, 8: 12}","[8, 22, 38, 56]",812224383561,Ba1Sr3Ti4O12
Sr5V3BrO12,mp-1195674,3.7925000000000004,4.31229637,0.0,"{38: 5, 23: 3, 35: 1, 8: 12}","[8, 23, 35, 38]",812233351385,Sr5V3Br1O12
Sr3LaV3O12,mp-1218724,3.2467000000000006,4.76613192,0.039073381052620704,"{38: 3, 57: 1, 23: 3, 8: 12}","[8, 23, 38, 57]",812233383571,Sr3La1V3O12
Sr3V3BiO12,mp-1218701,2.9198000000000004,4.09628023,0.07454140149125976,"{38: 3, 23: 3, 83: 1, 8: 12}","[8, 23, 38, 83]",812233383831,Sr3V3Bi1O12
Rb2SrV4O12,mp-510558,2.7935999999999996,-0.95836488,0.0,"{37: 2, 38: 1, 23: 4, 8: 12}","[8, 23, 37, 38]",812234372381,Rb2Sr1V4O12
SrV4(AgO6)2,mp-555885,2.0861,0.2617136,0.0,"{38: 1, 23: 4, 47: 2, 8: 12}","[8, 23, 38, 47]",812234381472,Sr1V4Ag2O12
SrV4SnO12,mp-1519181,0.0,2.89836572,0.2858213895833561,"{38: 1, 23: 4, 50: 1, 8: 12}","[8, 23, 38, 50]",812234381501,Sr1V4Sn1O12
Cs2SrV4O12,mp-18160,2.6812,-0.56023566,0.0,"{55: 2, 38: 1, 23: 4, 8: 12}","[8, 23, 38, 55]",812234381552,Cs2Sr1V4O12
BaSrV4O12,mp-1522965,0.14939999999999998,1.95959614,0.21060778025462135,"{56: 1, 38: 1, 23: 4, 8: 12}","[8, 23, 38, 56]",812234381561,Ba1Sr1V4O12
SrNdV4O12,mp-1520627,0.0,3.05361469,0.17822914006942803,"{38: 1, 60: 1, 23: 4, 8: 12}","[8, 23, 38, 60]",812234381601,Sr1Nd1V4O12
SrSmV4O12,mp-1522304,0.0,3.03587426,0.18591070118054276,"{38: 1, 62: 1, 23: 4, 8: 12}","[8, 23, 38, 62]",812234381621,Sr1Sm1V4O12
SrDyV4O12,mp-1519466,0.0924999999999998,3.20597773,0.1724868417360952,"{38: 1, 66: 1, 23: 4, 8: 12}","[8, 23, 38, 66]",812234381661,Sr1Dy1V4O12
SrLa3Mn3CrO12,mp-1218266,0.3421000000000003,6.37336724,0.14105045082737533,"{38: 1, 57: 3, 25: 3, 24: 1, 8: 12}","[8, 24, 25, 38, 57]",812241253381573,Sr1La3Mn3Cr1O12
SrLa2CeMn2Cr2O12,mp-1218309,0.16410000000000036,6.05211447,0.12351576613717086,"{38: 1, 57: 2, 58: 1, 25: 2, 24: 2, 8: 12}","[8, 24, 25, 38, 57, 58]",812242252381572581,Sr1La2Ce1Mn2Cr2O12
SrLa3Mn2Cr2O12,mp-1218286,0.42740000000000045,6.58211236,0.10524380030418179,"{38: 1, 57: 3, 25: 2, 24: 2, 8: 12}","[8, 24, 25, 38, 57]",812242252381573,Sr1La3Mn2Cr2O12
Sr3LaCr2(MoO6)2,mp-1218627,0.0,5.15510023,0.020833691750011596,"{38: 3, 57: 1, 24: 2, 42: 2, 8: 12}","[8, 24, 38, 42, 57]",812242383422571,Sr3La1Cr2Mo2O12
Sr2La2Cr3MoO12,mp-1218810,1.4779999999999998,5.24684348,0.0006351056250011311,"{38: 2, 57: 2, 24: 3, 42: 1, 8: 12}","[8, 24, 38, 42, 57]",812243382421572,Sr2La2Cr3Mo1O12
BaSrCr4O12,mp-1517417,0.0,1.74422174,0.41709351541666795,"{56: 1, 38: 1, 24: 4, 8: 12}","[8, 24, 38, 56]",812244381561,Ba1Sr1Cr4O12
SrLa3Cr4O12,mp-1647269,0.7477,6.30854038,0.019052041859378477,"{38: 1, 57: 3, 24: 4, 8: 12}","[8, 24, 38, 57]",812244381573,Sr1La3Cr4O12
SrNdCr4O12,mp-1521039,0.0,2.1404373,0.3015306829166686,"{38: 1, 60: 1, 24: 4, 8: 12}","[8, 24, 38, 60]",812244381601,Sr1Nd1Cr4O12
SrSmCr4O12,mp-1521525,0.0,2.24600459,0.3224249051388961,"{38: 1, 62: 1, 24: 4, 8: 12}","[8, 24, 38, 62]",812244381621,Sr1Sm1Cr4O12
SrDyCr4O12,mp-1519508,0.0,2.10167834,0.3097237259722281,"{38: 1, 66: 1, 24: 4, 8: 12}","[8, 24, 38, 66]",812244381661,Sr1Dy1Cr4O12
SrMn(SeO3)4,mp-1522521,0.0,2.1361243,0.4000099897222338,"{38: 1, 25: 1, 34: 4, 8: 12}","[8, 25, 34, 38]",812251344381,Sr1Mn1Se4O12
SrLa3MnO12,mp-1218274,0.0,4.14083326,0.3748764295686273,"{38: 1, 57: 3, 25: 1, 8: 12}","[8, 25, 38, 57]",812251381573,Sr1La3Mn1O12
Sr3Mn2O12,mp-1208580,0.0,-0.34301187,0.4585829302941198,"{38: 3, 25: 2, 8: 12}","[8, 25, 38]",812252383,Sr3Mn2O12
Sr3LaMn2(WO6)2,mp-1218657,1.8650000000000002,6.15814714,0.001032524733332707,"{38: 3, 57: 1, 25: 2, 74: 2, 8: 12}","[8, 25, 38, 57, 74]",812252383571742,Sr3La1Mn2W2O12
BaSrMn4O12,mp-1521375,0.0,0.82849344,0.32990780713624446,"{56: 1, 38: 1, 25: 4, 8: 12}","[8, 25, 38, 56]",812254381561,Ba1Sr1Mn4O12
SrLa3Mn4O12,mp-1218257,0.0,6.20522584,0.14223479199162092,"{38: 1, 57: 3, 25: 4, 8: 12}","[8, 25, 38, 57]",812254381573,Sr1La3Mn4O12
SrNdMn4O12,mp-1517226,0.0,1.43823106,0.24426979745370758,"{38: 1, 60: 1, 25: 4, 8: 12}","[8, 25, 38, 60]",812254381601,Sr1Nd1Mn4O12
SrSmMn4O12,mp-1522852,0.0,1.45010823,0.2524166080092618,"{38: 1, 62: 1, 25: 4, 8: 12}","[8, 25, 38, 62]",812254381621,Sr1Sm1Mn4O12
SrSm3Mn4O12,mp-1218118,0.0,3.76613193,0.0036847446964447528,"{38: 1, 62: 3, 25: 4, 8: 12}","[8, 25, 38, 62]",812254381623,Sr1Sm3Mn4O12
SrEuMn4O12,mp-1520433,0.0,-0.28835938,1.1788413829861106,"{38: 1, 63: 1, 25: 4, 8: 12}","[8, 25, 38, 63]",812254381631,Sr1Eu1Mn4O12
SrDyMn4O12,mp-1519263,0.0,1.4853104,0.2782615192824034,"{38: 1, 66: 1, 25: 4, 8: 12}","[8, 25, 38, 66]",812254381661,Sr1Dy1Mn4O12
Sr2NdSmMn4O12,mp-1218770,0.0,4.32035668,0.012028517232110403,"{38: 2, 60: 1, 62: 1, 25: 4, 8: 12}","[8, 25, 38, 60, 62]",812254382601621,Sr2Nd1Sm1Mn4O12
Sr3Mn4O12,mp-705675,0.0,1.46105633,0.09877160653509076,"{38: 3, 25: 4, 8: 12}","[8, 25, 38]",812254383,Sr3Mn4O12
BaSr3Mn4O12,mp-1227712,0.8782000000000001,3.51357768,0.02887239729164026,"{56: 1, 38: 3, 25: 4, 8: 12}","[8, 25, 38, 56]",812254383561,Ba1Sr3Mn4O12
Sr3LaMn4O12,mp-1218500,0.0,3.97638851,0.05620347272084736,"{38: 3, 57: 1, 25: 4, 8: 12}","[8, 25, 38, 57]",812254383571,Sr3La1Mn4O12
Sr3CeMn4O12,mp-1218514,0.0,4.20778075,0.036634292895810994,"{38: 3, 58: 1, 25: 4, 8: 12}","[8, 25, 38, 58]",812254383581,Sr3Ce1Mn4O12
Sr3PrMn4O12,mp-1218481,0.0,3.36848223,0.009333615062499412,"{38: 3, 59: 1, 25: 4, 8: 12}","[8, 25, 38, 59]",812254383591,Sr3Pr1Mn4O12
SrMn7O12,mp-1105343,0.0,3.88334353,0.0017103371562185998,"{38: 1, 25: 7, 8: 12}","[8, 25, 38]",812257381,Sr1Mn7O12
Sr3Y2FeCu3BiO12,mp-1218551,0.0,4.39855791,0.05811719485793976,"{38: 3, 39: 2, 26: 1, 29: 3, 83: 1, 8: 12}","[8, 26, 29, 38, 39, 83]",812261293383392831,Sr3Y2Fe1Cu3Bi1O12
SrFe2(SeO3)4,mp-560149,2.3146000000000004,0.98026338,0.0,"{38: 1, 26: 2, 34: 4, 8: 12}","[8, 26, 34, 38]",812262344381,Sr1Fe2Se4O12
Sr3LaTa2(FeO6)2,mp-1218631,1.3790000000000004,4.35909954,0.004389908125016717,"{38: 3, 57: 1, 73: 2, 26: 2, 8: 12}","[8, 26, 38, 57, 73]",812262383571732,Sr3La1Ta2Fe2O12
Sr4Fe2MoWO12,mp-1218626,1.0308000000000002,3.11703322,0.02213512350000091,"{38: 4, 26: 2, 42: 1, 74: 1, 8: 12}","[8, 26, 38, 42, 74]",812262384421741,Sr4Fe2Mo1W1O12
Sr4Fe3MoO12,mp-1218549,0.02939999999999987,3.41743922,0.002199593809377731,"{38: 4, 26: 3, 42: 1, 8: 12}","[8, 26, 38, 42]",812263384421,Sr4Fe3Mo1O12
Sr4Fe3ReO12,mp-1218429,0.0,4.03054926,0.017035706177091825,"{38: 4, 26: 3, 75: 1, 8: 12}","[8, 26, 38, 75]",812263384751,Sr4Fe3Re1O12
SrFe4(CuO4)3,mp-1105138,0.0,3.53109387,0.004005050468749438,"{38: 1, 26: 4, 29: 3, 8: 12}","[8, 26, 29, 38]",812264293381,Sr1Fe4Cu3O12
BaSr(FeO3)4,mp-1518522,0.0,0.67227909,0.2389158881597213,"{56: 1, 38: 1, 26: 4, 8: 12}","[8, 26, 38, 56]",812264381561,Ba1Sr1Fe4O12
SrPr3(FeO3)4,mp-1218104,0.0,3.66624684,0.0,"{38: 1, 59: 3, 26: 4, 8: 12}","[8, 26, 38, 59]",812264381593,Sr1Pr3Fe4O12
SrSm(FeO3)4,mp-1521076,0.0,1.21649106,0.20990541583333044,"{38: 1, 62: 1, 26: 4, 8: 12}","[8, 26, 38, 62]",812264381621,Sr1Sm1Fe4O12
SrDy(FeO3)4,mp-1522927,0.0,1.32722636,0.23573730680555371,"{38: 1, 66: 1, 26: 4, 8: 12}","[8, 26, 38, 66]",812264381661,Sr1Dy1Fe4O12
Ba3SrCo(CuO4)3,mp-1099886,0.0,2.38181339,0.0955345166250039,"{56: 3, 38: 1, 27: 1, 29: 3, 8: 12}","[8, 27, 29, 38, 56]",812271293381563,Ba3Sr1Co1Cu3O12
Ba2Sr2Co(CuO4)3,mp-1099763,0.0,2.53822576,0.07857502240625003,"{56: 2, 38: 2, 27: 1, 29: 3, 8: 12}","[8, 27, 29, 38, 56]",812271293382562,Ba2Sr2Co1Cu3O12
SrCo(GeO3)4,mp-1519959,0.0,1.66949501,0.5105308666975272,"{38: 1, 27: 1, 32: 4, 8: 12}","[8, 27, 32, 38]",812271324381,Sr1Co1Ge4O12
Sr4Co(IrO4)3,mp-1218568,0.0,4.19704111,0.0,"{38: 4, 27: 1, 77: 3, 8: 12}","[8, 27, 38, 77]",812271384773,Sr4Co1Ir3O12
BaSr3Co2(CuO6)2,mp-1076528,0.0,2.74859514,0.0731700672083262,"{56: 1, 38: 3, 27: 2, 29: 2, 8: 12}","[8, 27, 29, 38, 56]",812272292383561,Ba1Sr3Co2Cu2O12
Sr3LaTa2(CoO6)2,mp-1173242,0.0,4.74644991,0.037856047041659124,"{38: 3, 57: 1, 73: 2, 27: 2, 8: 12}","[8, 27, 38, 57, 73]",812272383571732,Sr3La1Ta2Co2O12
Sr4Co3ReO12,mp-1218565,0.24180000000000001,3.25995199,0.04300966430208675,"{38: 4, 27: 3, 75: 1, 8: 12}","[8, 27, 38, 75]",812273384751,Sr4Co3Re1O12
BaSr(CoO3)4,mp-1517422,0.0,1.27124916,0.29610571116666407,"{56: 1, 38: 1, 27: 4, 8: 12}","[8, 27, 38, 56]",812274381561,Ba1Sr1Co4O12
Ba3Sr(CoO3)4,mp-1642439,1.0621999999999998,2.29061471,0.005482456333336216,"{56: 3, 38: 1, 27: 4, 8: 12}","[8, 27, 38, 56]",812274381563,Ba3Sr1Co4O12
SrNd(CoO3)4,mp-1521245,0.0,1.85232695,0.23410014193100182,"{38: 1, 60: 1, 27: 4, 8: 12}","[8, 27, 38, 60]",812274381601,Sr1Nd1Co4O12
SrSm(CoO3)4,mp-1521847,0.0,1.87688087,0.24473677120183357,"{38: 1, 62: 1, 27: 4, 8: 12}","[8, 27, 38, 62]",812274381621,Sr1Sm1Co4O12
SrEu(CoO3)4,mp-1517297,0.0,1.36912124,0.5848069208893287,"{38: 1, 63: 1, 27: 4, 8: 12}","[8, 27, 38, 63]",812274381631,Sr1Eu1Co4O12
SrDy(CoO3)4,mp-1523033,0.0,1.94334636,0.2705054131115565,"{38: 1, 66: 1, 27: 4, 8: 12}","[8, 27, 38, 66]",812274381661,Sr1Dy1Co4O12
BaSr3(CoO3)4,mp-1227831,0.043700000000000294,2.45493636,0.0,"{56: 1, 38: 3, 27: 4, 8: 12}","[8, 27, 38, 56]",812274383561,Ba1Sr3Co4O12
Sr5(CoO3)4,mp-704141,0.01100000000000012,2.77793719,0.01679766626983792,"{38: 5, 27: 4, 8: 12}","[8, 27, 38]",812274385,Sr5Co4O12
Sr4ZnCu(WO6)2,mp-1218483,0.0,3.498151,0.031184589499999582,"{38: 4, 30: 1, 29: 1, 74: 2, 8: 12}","[8, 29, 30, 38, 74]",812291301384742,Sr4Zn1Cu1W2O12
SrCu(SeO3)4,mp-1516806,0.0,2.04758017,0.38978049152777317,"{38: 1, 29: 1, 34: 4, 8: 12}","[8, 29, 34, 38]",812291344381,Sr1Cu1Se4O12
Sr3LaCu2(BiO3)4,mp-1173233,0.0,6.08477335,0.3380056054545477,"{38: 3, 57: 1, 29: 2, 83: 4, 8: 12}","[8, 29, 38, 57, 83]",812292383571834,Sr3La1Cu2Bi4O12
Sr4Cu2MoWO12,mp-1218348,0.0,3.61734832,0.07751600650000068,"{38: 4, 29: 2, 42: 1, 74: 1, 8: 12}","[8, 29, 38, 42, 74]",812292384421741,Sr4Cu2Mo1W1O12
SrCu3(RuO3)4,mp-636476,0.0,5.19107524,0.019112992250008176,"{38: 1, 29: 3, 44: 4, 8: 12}","[8, 29, 38, 44]",812293381444,Sr1Cu3Ru4O12
SrCu3(SnO3)4,mp-17119,0.45310000000000006,6.02022517,0.04668920887499617,"{38: 1, 29: 3, 50: 4, 8: 12}","[8, 29, 38, 50]",812293381504,Sr1Cu3Sn4O12
Ba3Sr(CuO3)4,mp-1099602,0.0,2.27574026,0.07122566908333461,"{56: 3, 38: 1, 29: 4, 8: 12}","[8, 29, 38, 56]",812294381563,Ba3Sr1Cu4O12
Ba3SrSm2(CuO2)6,mp-1228212,0.0,3.35225088,0.015088441348956039,"{56: 3, 38: 1, 62: 2, 29: 6, 8: 12}","[8, 29, 38, 56, 62]",812296381563622,Ba3Sr1Sm2Cu6O12
SrZn(SeO3)4,mp-1516822,0.0,1.97344484,0.40328312222222884,"{38: 1, 30: 1, 34: 4, 8: 12}","[8, 30, 34, 38]",812301344381,Sr1Zn1Se4O12
Sr4Zn(IrO4)3,mp-1218538,0.0,3.98237199,0.0,"{38: 4, 30: 1, 77: 3, 8: 12}","[8, 30, 38, 77]",812301384773,Sr4Zn1Ir3O12
Sr4U3ZnO12,mp-1218588,0.0,6.36856741,0.09412656450000512,"{38: 4, 92: 3, 30: 1, 8: 12}","[8, 30, 38, 92]",812301384923,Sr4U3Zn1O12
Sr5Zn(PbO4)3,mp-1218569,1.197,3.5448633,0.007215639166666676,"{38: 5, 30: 1, 82: 3, 8: 12}","[8, 30, 38, 82]",812301385823,Sr5Zn1Pb3O12
Sr6Zn(RuO6)2,mp-1218524,0.06499999999999995,3.20684393,0.002323705476196203,"{38: 6, 30: 1, 44: 2, 8: 12}","[8, 30, 38, 44]",812301386442,Sr6Zn1Ru2O12
Ba3SrZn2(WO6)2,mp-1228089,3.3892,5.59494089,0.010267436999994217,"{56: 3, 38: 1, 30: 2, 74: 2, 8: 12}","[8, 30, 38, 56, 74]",812302381563742,Ba3Sr1Zn2W2O12
Sr3La3Zn2RuO12,mp-1173238,0.4832000000000001,5.26092326,0.04534064779761682,"{38: 3, 57: 3, 30: 2, 44: 1, 8: 12}","[8, 30, 38, 44, 57]",812302383441573,Sr3La3Zn2Ru1O12
Sr3(GaO6)2,mp-1201384,0.3299000000000001,-1.19596989,0.4625891022794111,"{38: 3, 31: 2, 8: 12}","[8, 31, 38]",812312383,Sr3Ga2O12
Sr3Y2(GeO4)3,mp-15103,3.1359,1.10761043,0.0,"{38: 3, 39: 2, 32: 3, 8: 12}","[8, 32, 38, 39]",812323383392,Sr3Y2Ge3O12
Sr3Er2(GeO4)3,mp-1209197,3.6933999999999996,0.97904326,0.0,"{38: 3, 68: 2, 32: 3, 8: 12}","[8, 32, 38, 68]",812323383682,Sr3Er2Ge3O12
Sr3Tm2(GeO4)3,mp-1209021,3.1627,1.8565408,0.0,"{38: 3, 69: 2, 32: 3, 8: 12}","[8, 32, 38, 69]",812323383692,Sr3Tm2Ge3O12
BaSr(GeO3)4,mp-1518925,0.0,1.32007859,0.3587039568364263,"{56: 1, 38: 1, 32: 4, 8: 12}","[8, 32, 38, 56]",812324381561,Ba1Sr1Ge4O12
SrEu(GeO3)4,mp-1521537,0.0,1.59655554,0.3137981655787021,"{38: 1, 63: 1, 32: 4, 8: 12}","[8, 32, 38, 63]",812324381631,Sr1Eu1Ge4O12
SrMo2(AsO6)2,mp-541910,2.6928,0.47919033,0.035013598970588866,"{38: 1, 42: 2, 33: 2, 8: 12}","[8, 33, 38, 42]",812332381422,Sr1Mo2As2O12
Ba3SrY2(SbO6)2,mp-1228178,3.5883,6.53573577,0.01135867300000104,"{56: 3, 38: 1, 39: 2, 51: 2, 8: 12}","[8, 38, 39, 51, 56]",812381392512563,Ba3Sr1Y2Sb2O12
SrZr4SnO12,mp-1519570,0.0,1.13204266,0.22486210798611594,"{38: 1, 40: 4, 50: 1, 8: 12}","[8, 38, 40, 50]",812381404501,Sr1Zr4Sn1O12
BaSrZr4O12,mp-1521222,0.0,0.04140269,0.21324064602777248,"{56: 1, 38: 1, 40: 4, 8: 12}","[8, 38, 40, 56]",812381404561,Ba1Sr1Zr4O12
SrEuZr4O12,mp-1516719,0.0,0.34261483,0.2532692750694494,"{38: 1, 63: 1, 40: 4, 8: 12}","[8, 38, 40, 63]",812381404631,Sr1Eu1Zr4O12
BaSrNb4O12,mp-1519357,1.336,1.10776836,0.0729256756944423,"{56: 1, 38: 1, 41: 4, 8: 12}","[8, 38, 41, 56]",812381414561,Ba1Sr1Nb4O12
SrEuNb4O12,mp-1516448,0.0,2.80618464,0.03119424633548462,"{38: 1, 63: 1, 41: 4, 8: 12}","[8, 38, 41, 63]",812381414631,Sr1Eu1Nb4O12
Ba3SrEr2(MoO6)2,mp-1228234,0.9889000000000001,4.50163175,0.0,"{56: 3, 38: 1, 68: 2, 42: 2, 8: 12}","[8, 38, 42, 56, 68]",812381422563682,Ba3Sr1Er2Mo2O12
SrHf4SnO12,mp-1522741,0.0,1.42921372,0.28662518465275966,"{38: 1, 72: 4, 50: 1, 8: 12}","[8, 38, 50, 72]",812381501724,Sr1Hf4Sn1O12
Ba3Sr(SnO3)4,mp-1228079,0.5954999999999995,4.10827397,0.013409117375000612,"{56: 3, 38: 1, 50: 4, 8: 12}","[8, 38, 50, 56]",812381504563,Ba3Sr1Sn4O12
BaSrCe4O12,mp-1519519,0.0,1.00077299,0.3017505544444443,"{56: 1, 38: 1, 58: 4, 8: 12}","[8, 38, 56, 58]",812381561584,Ba1Sr1Ce4O12
BaSrHf4O12,mp-1516483,0.0,0.28093817,0.1879233747222191,"{56: 1, 38: 1, 72: 4, 8: 12}","[8, 38, 56, 72]",812381561724,Ba1Sr1Hf4O12
BaSr(WO3)4,mp-1521444,0.0,3.36013394,0.11192619888888089,"{56: 1, 38: 1, 74: 4, 8: 12}","[8, 38, 56, 74]",812381561744,Ba1Sr1W4O12
Ba2SrTm6O12,mp-1228529,2.4154,4.16697475,0.03538959119047114,"{56: 2, 38: 1, 69: 6, 8: 12}","[8, 38, 56, 69]",812381562696,Ba2Sr1Tm6O12
Ba3SrNd2(IrO6)2,mp-1228090,0.0,3.49578232,0.007765301875049424,"{56: 3, 38: 1, 60: 2, 77: 2, 8: 12}","[8, 38, 56, 60, 77]",812381563602772,Ba3Sr1Nd2Ir2O12
Ba3SrLu2(BiO6)2,mp-1228053,1.5910000000000002,2.48967095,0.02235005987501193,"{56: 3, 38: 1, 71: 2, 83: 2, 8: 12}","[8, 38, 56, 71, 83]",812381563712832,Ba3Sr1Lu2Bi2O12
SrNdHf4O12,mp-1521073,0.0,0.6200944,0.17950685024305102,"{38: 1, 60: 1, 72: 4, 8: 12}","[8, 38, 60, 72]",812381601724,Sr1Nd1Hf4O12
SrEuHf4O12,mp-1522408,0.0,0.57358041,0.23881924284721912,"{38: 1, 63: 1, 72: 4, 8: 12}","[8, 38, 63, 72]",812381631724,Sr1Eu1Hf4O12
SrEu(WO3)4,mp-1516593,0.0,3.55771529,0.07883844017360175,"{38: 1, 63: 1, 74: 4, 8: 12}","[8, 38, 63, 74]",812381631744,Sr1Eu1W4O12
BaSr2Y6O12,mp-1227790,2.6259,4.50570505,0.018449475833339335,"{56: 1, 38: 2, 39: 6, 8: 12}","[8, 38, 39, 56]",812382396561,Ba1Sr2Y6O12
BaSr2In6O12,mp-1227894,1.8143000000000002,4.18793981,0.01720144797618328,"{56: 1, 38: 2, 49: 6, 8: 12}","[8, 38, 49, 56]",812382496561,Ba1Sr2In6O12