formula,material_id,band_gap,efermi,energy_above_hull,comp_atoms,sorted_keys_comp_atoms,comp_number,new_formula
Sr9La5Br33,mp-851109,2.8755999999999995,1.39920865,0.04253614446808385,"{38: 9, 57: 5, 35: 33}","[35, 38, 57]",3533389575,Sr9La5Br33
SrBr3,mp-980667,0.0,1.55869342,0.16697057500000057,"{38: 1, 35: 3}","[35, 38]",353381,Sr1Br3
CsSrBr3,mp-1213104,4.5563,3.19147035,0.0,"{55: 1, 38: 1, 35: 3}","[35, 38, 55]",353381551,Cs1Sr1Br3
RbSr2Br5,mp-1209189,4.3033,-0.36363246,0.0,"{37: 1, 38: 2, 35: 5}","[35, 37, 38]",355371382,Rb1Sr2Br5
SrLaBr5,mp-756437,2.8542,-0.3812673,0.04356986285714015,"{38: 1, 57: 1, 35: 5}","[35, 38, 57]",355381571,Sr1La1Br5
Sr2InBr5,mp-1208825,3.3752999999999997,0.66189837,0.007002452750001886,"{38: 2, 49: 1, 35: 5}","[35, 38, 49]",355382491,Sr2In1Br5
Sr2TlBr5,mp-1208773,3.9046000000000003,0.24263963,0.0,"{38: 2, 81: 1, 35: 5}","[35, 38, 81]",355382811,Sr2Tl1Br5
SrThBr6,mp-29016,2.1387,1.0016965,0.04465383812500079,"{38: 1, 90: 1, 35: 6}","[35, 38, 90]",356381901,Sr1Th1Br6
Sr3LaBr9,mp-771955,2.9062,0.64568863,0.015068526346151856,"{38: 3, 57: 1, 35: 9}","[35, 38, 57]",359383571,Sr3La1Br9
RbSrI3,mp-1205862,4.0221,4.13196998,0.0,"{37: 1, 38: 1, 53: 3}","[37, 38, 53]",371381533,Rb1Sr1I3
RbSr2I5,mp-1209221,3.6702,1.25966406,0.010332374687494372,"{37: 1, 38: 2, 53: 5}","[37, 38, 53]",371382535,Rb1Sr2I5
RbSr3,mp-975199,0.0,1.07081957,0.1387018256250001,"{37: 1, 38: 3}","[37, 38]",371383,Rb1Sr3
Rb3Sr,mp-1186873,0.0,0.3178704,0.1359423393749999,"{37: 3, 38: 1}","[37, 38]",373381,Rb3Sr1
Sr2Li7CuN4,mp-1218762,0.5680000000000001,1.60728313,0.0,"{38: 2, 3: 7, 29: 1, 7: 4}","[3, 7, 29, 38]",3774291382,Sr2Li7Cu1N4
Sr,mp-139,0.0,1.5660871,0.0,{38: 1},[38],381,Sr1
Sr10In17Au27,mp-1219336,0.0,5.23390164,0.0,"{38: 10, 49: 17, 79: 27}","[38, 49, 79]",381049177927,Sr10In17Au27
Sr11(CdSb2)6,mp-3195,0.3131999999999997,3.78433295,0.021255776781607505,"{38: 11, 48: 6, 51: 12}","[38, 48, 51]",38114865112,Sr11Cd6Sb12
Sr11InSb9,mp-578752,0.8611,3.93987228,0.0,"{38: 11, 49: 1, 51: 9}","[38, 49, 51]",3811491519,Sr11In1Sb9
Sr11In7,mp-642322,0.0,3.17652845,0.008803466245913771,"{38: 11, 49: 7}","[38, 49]",3811497,Sr11In7
Sr11Sb10,mp-16475,0.0,4.00284764,0.0,"{38: 11, 51: 10}","[38, 51]",38115110,Sr11Sb10
Ba6Sr11I34,mp-772883,3.3618,0.75151018,0.07932031397058603,"{56: 6, 38: 11, 53: 34}","[38, 53, 56]",38115334566,Ba6Sr11I34
Sr11Hg54,mp-1209515,0.0,2.58970799,0.028206061005016658,"{38: 11, 80: 54}","[38, 80]",38118054,Sr11Hg54
Sr11Bi10,mp-30305,0.0,3.63910266,0.0,"{38: 11, 83: 10}","[38, 83]",38118310,Sr11Bi10
Sr13Hg58,mp-1199288,0.0032000000000000917,2.60244501,0.03186516314298826,"{38: 13, 80: 58}","[38, 80]",38138058,Sr13Hg58
SrY,mp-1186769,0.0,2.32029747,0.22853245833333347,"{38: 1, 39: 1}","[38, 39]",381391,Sr1Y1
SrYPd2,mp-1097161,0.0,-2.19552564,1.8864538512500002,"{38: 1, 39: 1, 46: 2}","[38, 39, 46]",381391462,Sr1Y1Pd2
SrYPt2,mp-1097403,0.0,-2.07795004,2.0026944334374974,"{38: 1, 39: 1, 78: 2}","[38, 39, 78]",381391782,Sr1Y1Pt2
SrYPb2,mp-1096045,0.0,-2.62294666,1.9701839064285736,"{38: 1, 39: 1, 82: 2}","[38, 39, 82]",381391822,Sr1Y1Pb2
SrZr2Nb,mp-631361,0.0,3.67990996,0.7261369308333308,"{38: 1, 40: 2, 41: 1}","[38, 40, 41]",381402411,Sr1Zr2Nb1
SrLaZr2,mp-631340,0.0,4.75831667,0.6045300720833318,"{38: 1, 57: 1, 40: 2}","[38, 40, 57]",381402571,Sr1La1Zr2
SrHf2Mo,mp-631313,0.0,4.54702253,0.9219946095833293,"{38: 1, 72: 2, 42: 1}","[38, 42, 72]",381421722,Sr1Hf2Mo1
Sr(SbRu)2,mp-1070613,0.0,6.73165611,0.022318209636361885,"{38: 1, 51: 2, 44: 2}","[38, 44, 51]",381442512,Sr1Sb2Ru2
Sr(Sb3Ru)4,mp-22775,0.0,7.12747544,0.0,"{38: 1, 51: 12, 44: 4}","[38, 44, 51]",3814445112,Sr1Sb12Ru4
SrIn2Rh,mp-542537,0.0,5.79137362,0.0,"{38: 1, 49: 2, 45: 1}","[38, 45, 49]",381451492,Sr1In2Rh1
SrRh2,mp-1328,0.0,4.31676066,0.0,"{38: 1, 45: 2}","[38, 45]",381452,Sr1Rh2
Sr(In4Rh)2,mp-21756,0.0,7.47949884,0.0,"{38: 1, 49: 8, 45: 2}","[38, 45, 49]",381452498,Sr1In8Rh2
SrPd,mp-999143,0.0,2.62245052,0.0,"{38: 1, 46: 1}","[38, 46]",381461,Sr1Pd1
SrCd2Pd,mp-1078825,0.0,2.80799347,0.0,"{38: 1, 48: 2, 46: 1}","[38, 46, 48]",381461482,Sr1Cd2Pd1
SrInPd,mp-1095684,0.0,4.89727336,0.0,"{38: 1, 49: 1, 46: 1}","[38, 46, 49]",381461491,Sr1In1Pd1
SrIn2Pd,mp-21024,0.0,5.82225734,0.0,"{38: 1, 49: 2, 46: 1}","[38, 46, 49]",381461492,Sr1In2Pd1
SrIn4Pd,mp-19991,0.0,6.29809255,0.0,"{38: 1, 49: 4, 46: 1}","[38, 46, 49]",381461494,Sr1In4Pd1
SrSn3Pd,mp-30834,0.0,6.45431985,0.0,"{38: 1, 50: 3, 46: 1}","[38, 46, 50]",381461503,Sr1Sn3Pd1
SrTePd,mp-961663,0.6743000000000006,4.27009771,0.26013688333333373,"{38: 1, 52: 1, 46: 1}","[38, 46, 52]",381461521,Sr1Te1Pd1
SrTl2Pd,mp-1079862,0.0,5.48077074,0.0,"{38: 1, 81: 2, 46: 1}","[38, 46, 81]",381461812,Sr1Tl2Pd1
SrPd2,mp-1558,0.0,3.90786896,0.0,"{38: 1, 46: 2}","[38, 46]",381462,Sr1Pd2
SrAg3Pd2,mp-1218349,0.0,3.0685871,0.0,"{38: 1, 47: 3, 46: 2}","[38, 46, 47]",381462473,Sr1Ag3Pd2
Sr(SbPd)2,mp-8468,0.0,5.67705149,0.0,"{38: 1, 51: 2, 46: 2}","[38, 46, 51]",381462512,Sr1Sb2Pd2
Sr(BiPd)2,mp-567114,0.0,4.67098934,0.0,"{38: 1, 83: 2, 46: 2}","[38, 46, 83]",381462832,Sr1Bi2Pd2
SrPd3,mp-1187228,0.0,2.97583241,0.1504978974999993,"{38: 1, 46: 3}","[38, 46]",381463,Sr1Pd3
SrPd5,mp-1260,0.0,2.98979878,0.0,"{38: 1, 46: 5}","[38, 46]",381465,Sr1Pd5
SrAg,mp-568716,0.0,2.35791093,0.0,"{38: 1, 47: 1}","[38, 47]",381471,Sr1Ag1
SrAgSb,mp-11217,0.0,3.7662618,0.21696482941239337,"{38: 1, 47: 1, 51: 1}","[38, 47, 51]",381471511,Sr1Ag1Sb1
SrAgBi,mp-31018,0.0,3.89658833,0.0,"{38: 1, 47: 1, 83: 1}","[38, 47, 83]",381471831,Sr1Ag1Bi1
SrAg2,mp-30356,0.0,2.52688846,0.0,"{38: 1, 47: 2}","[38, 47]",381472,Sr1Ag2
Sr(AgSn)2,mp-7366,0.0,4.89973012,0.0,"{38: 1, 47: 2, 50: 2}","[38, 47, 50]",381472502,Sr1Ag2Sn2
BaSrAg2,mp-1093927,0.16989999999999994,-1.91534251,1.319214461687499,"{56: 1, 38: 1, 47: 2}","[38, 47, 56]",381472561,Ba1Sr1Ag2
SrLaAg2,mp-1093948,0.0,-1.89215905,1.7856999248124987,"{38: 1, 57: 1, 47: 2}","[38, 47, 57]",381472571,Sr1La1Ag2
Sr(Ag2Sb)2,mp-1077980,0.0,4.73963929,0.0,"{38: 1, 47: 4, 51: 2}","[38, 47, 51]",381474512,Sr1Ag4Sb2
Ba3SrAg4,mp-1228028,0.0,2.36256917,0.004892858968747582,"{56: 3, 38: 1, 47: 4}","[38, 47, 56]",381474563,Ba3Sr1Ag4
SrAg5,mp-2410,0.0,2.95681065,0.0,"{38: 1, 47: 5}","[38, 47]",381475,Sr1Ag5
Sr14Hg51,mp-1218949,0.0,2.77135261,0.014437364881270676,"{38: 14, 80: 51}","[38, 80]",38148051,Sr14Hg51
SrCd,mp-30496,0.0,2.00063278,0.0,"{38: 1, 48: 1}","[38, 48]",381481,Sr1Cd1
SrCd11,mp-569954,0.0,2.57573158,0.0029835499305534974,"{38: 1, 48: 11}","[38, 48]",3814811,Sr1Cd11
SrCdSn,mp-1218342,0.0,4.23816442,0.0,"{38: 1, 48: 1, 50: 1}","[38, 48, 50]",381481501,Sr1Cd1Sn1
SrCdPt,mp-1102073,0.0,3.30026529,0.0,"{38: 1, 48: 1, 78: 1}","[38, 48, 78]",381481781,Sr1Cd1Pt1
SrCdAu,mp-1095513,0.0,2.96629191,0.0,"{38: 1, 48: 1, 79: 1}","[38, 48, 79]",381481791,Sr1Cd1Au1
SrCdAu2,mp-1097215,0.9464999999999999,-3.09108082,1.076175882500002,"{38: 1, 48: 1, 79: 2}","[38, 48, 79]",381481792,Sr1Cd1Au2
SrCdHg2,mp-867179,0.0,2.65018839,0.008872362465274897,"{38: 1, 48: 1, 80: 2}","[38, 48, 80]",381481802,Sr1Cd1Hg2
SrTl2Cd,mp-1186765,0.30989999999999984,4.4130135,0.010923391840278462,"{38: 1, 81: 2, 48: 1}","[38, 48, 81]",381481812,Sr1Tl2Cd1
SrCdPb,mp-1218620,0.0,3.89563562,0.0,"{38: 1, 48: 1, 82: 1}","[38, 48, 82]",381481821,Sr1Cd1Pb1
SrCdBi2,mp-568501,0.0,4.07851056,0.0,"{38: 1, 48: 1, 83: 2}","[38, 48, 83]",381481832,Sr1Cd1Bi2
SrCd2,mp-677,0.0,2.23229174,0.0,"{38: 1, 48: 2}","[38, 48]",381482,Sr1Cd2
Sr(CdSb)2,mp-7432,0.0,3.65520341,0.0,"{38: 1, 48: 2, 51: 2}","[38, 48, 51]",381482512,Sr1Cd2Sb2
BaSrCd2,mp-1095881,0.025599999999999845,-1.76860121,1.3737260150000004,"{56: 1, 38: 1, 48: 2}","[38, 48, 56]",381482561,Ba1Sr1Cd2
SrLaCd2,mp-1097482,0.0,-2.69116339,1.7660793550000005,"{38: 1, 57: 1, 48: 2}","[38, 48, 57]",381482571,Sr1La1Cd2
SrAcCd2,mp-1187153,0.0,3.62876681,0.0,"{38: 1, 89: 1, 48: 2}","[38, 48, 89]",381482891,Sr1Ac1Cd2
SrCd3,mp-1187152,0.0,2.4779916,0.04993003838541621,"{38: 1, 48: 3}","[38, 48]",381483,Sr1Cd3
Sr(Cd2Pt)2,mp-1104117,0.0,3.13655803,0.0,"{38: 1, 48: 4, 78: 2}","[38, 48, 78]",381484782,Sr1Cd4Pt2
SrCd6,mp-1219283,0.0,2.34605064,0.0,"{38: 1, 48: 6}","[38, 48]",381486,Sr1Cd6
SrIn,mp-608072,0.0,3.85114132,0.0,"{38: 1, 49: 1}","[38, 49]",381491,Sr1In1
SrInPt,mp-22284,0.0,5.30770479,0.0,"{38: 1, 49: 1, 78: 1}","[38, 49, 78]",381491781,Sr1In1Pt1
SrInAu,mp-22529,0.0,4.88199333,0.0,"{38: 1, 49: 1, 79: 1}","[38, 49, 79]",381491791,Sr1In1Au1
SrInAu5,mp-1218230,0.0,4.97785821,0.0,"{38: 1, 49: 1, 79: 5}","[38, 49, 79]",381491795,Sr1In1Au5
SrInHg2,mp-867173,0.0,3.91201452,0.0,"{38: 1, 49: 1, 80: 2}","[38, 49, 80]",381491802,Sr1In1Hg2
SrTl2In,mp-1097330,0.0,-2.37642876,1.376306402708332,"{38: 1, 81: 2, 49: 1}","[38, 49, 81]",381491812,Sr1Tl2In1
SrIn2,mp-20074,0.0,5.4941907,0.0,"{38: 1, 49: 2}","[38, 49]",381492,Sr1In2
Sr(InTe2)2,mp-20397,0.8837999999999999,3.67016217,0.0,"{38: 1, 49: 2, 52: 4}","[38, 49, 52]",381492524,Sr1In2Te4
BaSrIn2,mp-1096037,0.0,-2.09804885,1.6030768784375005,"{56: 1, 38: 1, 49: 2}","[38, 49, 56]",381492561,Ba1Sr1In2
SrEuIn2,mp-1100785,0.0,4.5572308,0.0,"{38: 1, 63: 1, 49: 2}","[38, 49, 63]",381492631,Sr1Eu1In2
SrIn2Ir,mp-20497,0.0,6.12212421,0.0,"{38: 1, 49: 2, 77: 1}","[38, 49, 77]",381492771,Sr1In2Ir1
SrIn2Pt,mp-20533,0.0,6.18401937,0.0,"{38: 1, 49: 2, 78: 1}","[38, 49, 78]",381492781,Sr1In2Pt1
Sr(InAu)2,mp-570556,0.0,5.1466779,0.0,"{38: 1, 49: 2, 79: 2}","[38, 49, 79]",381492792,Sr1In2Au2
Sr(InHg)2,mp-1068325,0.0,4.40897817,0.006605706666666489,"{38: 1, 49: 2, 80: 2}","[38, 49, 80]",381492802,Sr1In2Hg2
SrAcIn2,mp-1187374,0.0,5.355122,0.0,"{38: 1, 89: 1, 49: 2}","[38, 49, 89]",381492891,Sr1Ac1In2
SrIn3,mp-1080608,0.0,5.70191136,0.03182187300000061,"{38: 1, 49: 3}","[38, 49]",381493,Sr1In3
SrIn3Au,mp-1218236,0.0,5.64360593,0.0,"{38: 1, 49: 3, 79: 1}","[38, 49, 79]",381493791,Sr1In3Au1
Sr(InAu)3,mp-581716,0.0,5.6910188,0.0,"{38: 1, 49: 3, 79: 3}","[38, 49, 79]",381493793,Sr1In3Au3
SrIn3Hg,mp-1218256,0.0,5.2797796,0.0001848974444444984,"{38: 1, 49: 3, 80: 1}","[38, 49, 80]",381493801,Sr1In3Hg1
SrIn4,mp-567207,0.0,5.97330261,0.007084296222223063,"{38: 1, 49: 4}","[38, 49]",381494,Sr1In4
SrIn4Ir,mp-21901,0.0,6.81316343,0.0,"{38: 1, 49: 4, 77: 1}","[38, 49, 77]",381494771,Sr1In4Ir1
SrIn4Pt,mp-21124,0.0,6.65619903,0.0,"{38: 1, 49: 4, 78: 1}","[38, 49, 78]",381494781,Sr1In4Pt1
SrIn5,mp-1206486,0.0,5.70380828,0.08723946740740729,"{38: 1, 49: 5}","[38, 49]",381495,Sr1In5
SrIn5Au3,mp-1209007,0.0,6.23882066,0.02848219342592584,"{38: 1, 49: 5, 79: 3}","[38, 49, 79]",381495793,Sr1In5Au3
Sr(In4Ir)2,mp-1194987,0.0,7.81958703,0.0,"{38: 1, 49: 8, 77: 2}","[38, 49, 77]",381498772,Sr1In8Ir2
SrSn,mp-1698,0.0,4.35311311,0.0,"{38: 1, 50: 1}","[38, 50]",381501,Sr1Sn1
Ba3SrSn12,mp-1228128,0.0,6.11736596,0.02163531531250129,"{56: 3, 38: 1, 50: 12}","[38, 50, 56]",3815012563,Ba3Sr1Sn12
BaSrSn,mp-962062,0.0028000000000001357,2.84073479,0.41453405000000076,"{56: 1, 38: 1, 50: 1}","[38, 50, 56]",381501561,Ba1Sr1Sn1
SrSnPt,mp-20001,0.0,5.80476881,0.0,"{38: 1, 50: 1, 78: 1}","[38, 50, 78]",381501781,Sr1Sn1Pt1
SrSnAu,mp-31281,0.0,5.04338148,0.0,"{38: 1, 50: 1, 79: 1}","[38, 50, 79]",381501791,Sr1Sn1Au1
SrSnHg,mp-1019259,0.0,4.43616223,0.0,"{38: 1, 50: 1, 80: 1}","[38, 50, 80]",381501801,Sr1Sn1Hg1
SrSnHg2,mp-1097383,0.20359999999999978,-2.63666147,1.2880872754166641,"{38: 1, 50: 1, 80: 2}","[38, 50, 80]",381501802,Sr1Sn1Hg2
Sr(SnAu)2,mp-1078411,0.0,5.4684819,0.0,"{38: 1, 50: 2, 79: 2}","[38, 50, 79]",381502792,Sr1Sn2Au2
Sr(SnHg)2,mp-1078257,0.0,4.57055649,0.0,"{38: 1, 50: 2, 80: 2}","[38, 50, 80]",381502802,Sr1Sn2Hg2
SrSn3,mp-18063,0.0,6.36258674,0.027413276041663437,"{38: 1, 50: 3}","[38, 50]",381503,Sr1Sn3
SrSn3Sb4,mp-866805,0.0,5.68896099,0.0,"{38: 1, 50: 3, 51: 4}","[38, 50, 51]",381503514,Sr1Sn3Sb4
SrSn4,mp-714,0.0,6.43113916,0.04333420733333426,"{38: 1, 50: 4}","[38, 50]",381504,Sr1Sn4
SrSbPt,mp-8605,0.0,5.42224349,0.0,"{38: 1, 51: 1, 78: 1}","[38, 51, 78]",381511781,Sr1Sb1Pt1
SrSbAu,mp-11815,0.0,4.1743505,0.3209102283796299,"{38: 1, 51: 1, 79: 1}","[38, 51, 79]",381511791,Sr1Sb1Au1
SrSb2,mp-10636,0.0,5.576487,0.0,"{38: 1, 51: 2}","[38, 51]",381512,Sr1Sb2
SrTe,mp-1958,1.7616,2.74147484,0.0,"{38: 1, 52: 1}","[38, 52]",381521,Sr1Te1
SrEuTe2,mp-1218275,0.07150000000000034,4.14569897,0.010616307499997646,"{38: 1, 63: 1, 52: 2}","[38, 52, 63]",381522631,Sr1Eu1Te2
SrLa6OsI12,mp-567419,0.0,4.62671463,0.0,"{38: 1, 57: 6, 76: 1, 53: 12}","[38, 53, 57, 76]",3815312576761,Sr1La6Os1I12
Ba6SrI14,mp-768732,2.8926,0.68442892,0.08236505749999967,"{56: 6, 38: 1, 53: 14}","[38, 53, 56]",3815314566,Ba6Sr1I14
SrI2,mp-568284,3.8019999999999996,1.2094033,0.0,"{38: 1, 53: 2}","[38, 53]",381532,Sr1I2
CsSrI3,mp-1080232,3.959,4.23009361,0.0,"{55: 1, 38: 1, 53: 3}","[38, 53, 55]",381533551,Cs1Sr1I3
BaSrI4,mp-754852,3.3457,1.45411252,0.02185229666666455,"{56: 1, 38: 1, 53: 4}","[38, 53, 56]",381534561,Ba1Sr1I4
SrLaI4,mp-30110,0.0,6.07449581,0.01601017541666483,"{38: 1, 57: 1, 53: 4}","[38, 53, 57]",381534571,Sr1La1I4
SrCeI4,mp-570853,0.0,5.99467234,0.0,"{38: 1, 58: 1, 53: 4}","[38, 53, 58]",381534581,Sr1Ce1I4
SrLaI5,mp-755705,2.0815,1.42784239,0.027695112499997787,"{38: 1, 57: 1, 53: 5}","[38, 53, 57]",381535571,Sr1La1I5
Ba2SrI6,mp-772875,3.4322000000000004,1.22290806,0.01413976749999879,"{56: 2, 38: 1, 53: 6}","[38, 53, 56]",381536562,Ba2Sr1I6
SrUI6,mp-1208662,0.3156000000000001,1.43033112,0.0,"{38: 1, 92: 1, 53: 6}","[38, 53, 92]",381536921,Sr1U1I6
Ba3SrI8,mp-756235,3.2338000000000005,1.22739758,0.0077654804166669145,"{56: 3, 38: 1, 53: 8}","[38, 53, 56]",381538563,Ba3Sr1I8
Cs3Sr,mp-1183952,0.0,0.74826103,0.17151061238505605,"{55: 3, 38: 1}","[38, 55]",381553,Cs3Sr1
BaSr,mp-1227725,0.0,1.55905717,0.0063887549999988025,"{56: 1, 38: 1}","[38, 56]",381561,Ba1Sr1
BaSrEu2,mp-1183344,0.0,1.96047684,0.06354564749999803,"{56: 1, 38: 1, 63: 2}","[38, 56, 63]",381561632,Ba1Sr1Eu2
BaSrHg2,mp-1183305,0.0,2.68366413,0.016307632499998448,"{56: 1, 38: 1, 80: 2}","[38, 56, 80]",381561802,Ba1Sr1Hg2
BaSrTl2,mp-1183386,0.0,3.93588905,0.0,"{56: 1, 38: 1, 81: 2}","[38, 56, 81]",381561812,Ba1Sr1Tl2
BaSrPb6,mp-1227928,0.0,5.65903553,0.0006735720833357384,"{56: 1, 38: 1, 82: 6}","[38, 56, 82]",381561826,Ba1Sr1Pb6
BaSrBi3,mp-1214332,0.0,3.93334222,0.0,"{56: 1, 38: 1, 83: 3}","[38, 56, 83]",381561833,Ba1Sr1Bi3
Ba2SrNp,mp-1064865,0.0,2.94069648,0.6650889953124994,"{56: 2, 38: 1, 93: 1}","[38, 56, 93]",381562931,Ba2Sr1Np1
Ba3Sr,mp-1183330,0.0,1.67924905,0.0035189374999995415,"{56: 3, 38: 1}","[38, 56]",381563,Ba3Sr1
SrLaPt2,mp-1187188,0.0,5.76380205,0.04875910093750235,"{38: 1, 57: 1, 78: 2}","[38, 57, 78]",381571782,Sr1La1Pt2
SrLaAu2,mp-1093848,0.0,-2.115375,1.8208591883749996,"{38: 1, 57: 1, 79: 2}","[38, 57, 79]",381571792,Sr1La1Au2
SrLaHg2,mp-1187186,0.0,4.53887577,0.0,"{38: 1, 57: 1, 80: 2}","[38, 57, 80]",381571802,Sr1La1Hg2
SrLaTl2,mp-1096712,0.0,-1.97050945,1.865661079999999,"{38: 1, 57: 1, 81: 2}","[38, 57, 81]",381571812,Sr1La1Tl2
SrLa3,mp-1187229,0.0,6.01124554,0.139018337083332,"{38: 1, 57: 3}","[38, 57]",381573,Sr1La3
SrCeHg2,mp-1187193,0.0,4.43035189,0.020102647500000792,"{38: 1, 58: 1, 80: 2}","[38, 58, 80]",381581802,Sr1Ce1Hg2
SrCe3,mp-972286,0.0,6.02179991,0.36016088458332973,"{38: 1, 58: 3}","[38, 58]",381583,Sr1Ce3
SrPr3,mp-1187207,0.0,3.16629782,0.12885485708333277,"{38: 1, 59: 3}","[38, 59]",381593,Sr1Pr3
SrNd3,mp-1187221,0.0,2.86430854,0.14278758145833237,"{38: 1, 60: 3}","[38, 60]",381603,Sr1Nd3
SrPmPt2,mp-1187217,0.0,4.08323268,0.0,"{38: 1, 61: 1, 78: 2}","[38, 61, 78]",381611782,Sr1Pm1Pt2
SrPm3,mp-1187235,0.0,2.81039299,0.16021835645833704,"{38: 1, 61: 3}","[38, 61]",381613,Sr1Pm3
SrSm3,mp-1187230,0.0,2.81057493,0.16410188208333665,"{38: 1, 62: 3}","[38, 62]",381623,Sr1Sm3
SrEu,mp-1187259,0.0,1.7572205,0.02003227750000036,"{38: 1, 63: 1}","[38, 63]",381631,Sr1Eu1
SrEuPt2,mp-1187171,0.0,3.69713571,0.06596155118055691,"{38: 1, 63: 1, 78: 2}","[38, 63, 78]",381631782,Sr1Eu1Pt2
SrEuHg2,mp-1100769,0.0,2.76601739,0.003566762500000209,"{38: 1, 63: 1, 80: 2}","[38, 63, 80]",381631802,Sr1Eu1Hg2
SrEuTl2,mp-1187174,0.0,4.20767874,0.0,"{38: 1, 63: 1, 81: 2}","[38, 63, 81]",381631812,Sr1Eu1Tl2
SrEu3,mp-1187290,0.0,1.89718037,0.04755801124999692,"{38: 1, 63: 3}","[38, 63]",381633,Sr1Eu3
SrGd3,mp-1187239,0.0,2.68959887,0.1703393558333346,"{38: 1, 64: 3}","[38, 64]",381643,Sr1Gd3
SrTb,mp-1186770,0.0,2.4283599,0.2430162616666678,"{38: 1, 65: 1}","[38, 65]",381651,Sr1Tb1
SrTb3,mp-1186777,0.0,2.99632684,0.20095879583333343,"{38: 1, 65: 3}","[38, 65]",381653,Sr1Tb3
SrDy3,mp-978967,0.0,2.94013973,0.21214723583333495,"{38: 1, 66: 3}","[38, 66]",381663,Sr1Dy3
SrLu,mp-1187187,0.0,2.24633343,0.2966395516666651,"{38: 1, 71: 1}","[38, 71]",381711,Sr1Lu1
SrHfRe2,mp-631392,0.0,5.42376226,1.1262601093750053,"{38: 1, 72: 1, 75: 2}","[38, 72, 75]",381721752,Sr1Hf1Re2
SrIr2,mp-318,0.0,5.859562,0.0,"{38: 1, 77: 2}","[38, 77]",381772,Sr1Ir2
SrTl2Pt,mp-1206544,0.0,5.78662767,0.0,"{38: 1, 81: 2, 78: 1}","[38, 78, 81]",381781812,Sr1Tl2Pt1
SrPt2,mp-1349,0.0,5.61984581,0.0,"{38: 1, 78: 2}","[38, 78]",381782,Sr1Pt2
SrPt5,mp-570832,0.0,5.55856763,0.0,"{38: 1, 78: 5}","[38, 78]",381785,Sr1Pt5
SrAu,mp-30420,0.0,3.20389037,0.0,"{38: 1, 79: 1}","[38, 79]",381791,Sr1Au1
SrBiAu,mp-31141,0.0,3.85854462,0.3325310479166683,"{38: 1, 83: 1, 79: 1}","[38, 79, 83]",381791831,Sr1Bi1Au1
SrAu2,mp-434,0.0,3.41069649,0.0,"{38: 1, 79: 2}","[38, 79]",381792,Sr1Au2
SrPbAu2,mp-1095778,0.0,-2.70982125,1.3309431099999998,"{38: 1, 82: 1, 79: 2}","[38, 79, 82]",381792821,Sr1Pb1Au2
SrBiAu2,mp-1095770,0.0,-2.89779729,1.3100705061111122,"{38: 1, 83: 1, 79: 2}","[38, 79, 83]",381792831,Sr1Bi1Au2
SrAcAu2,mp-1187150,0.0,4.88346572,0.0,"{38: 1, 89: 1, 79: 2}","[38, 79, 89]",381792891,Sr1Ac1Au2
SrAu5,mp-1831,0.0,4.37720784,0.0,"{38: 1, 79: 5}","[38, 79]",381795,Sr1Au5
SrHg,mp-542,0.0,2.50683011,0.0,"{38: 1, 80: 1}","[38, 80]",381801,Sr1Hg1
SrHg11,mp-1197367,0.0,2.04607578,0.05080219021825072,"{38: 1, 80: 11}","[38, 80]",3818011,Sr1Hg11
SrHgPb,mp-1019277,0.0,4.22963631,0.0,"{38: 1, 80: 1, 82: 1}","[38, 80, 82]",381801821,Sr1Hg1Pb1
SrHg2,mp-568526,0.0,2.76528161,0.0,"{38: 1, 80: 2}","[38, 80]",381802,Sr1Hg2
SrTlHg2,mp-981311,0.0,3.61713947,0.0,"{38: 1, 81: 1, 80: 2}","[38, 80, 81]",381802811,Sr1Tl1Hg2
Sr(TlHg)2,mp-1208923,0.0,4.08103317,0.03848041883333231,"{38: 1, 81: 2, 80: 2}","[38, 80, 81]",381802812,Sr1Tl2Hg2
SrHg2Pb,mp-1187216,0.0,3.98237958,0.0,"{38: 1, 80: 2, 82: 1}","[38, 80, 82]",381802821,Sr1Hg2Pb1
SrHg2Bi,mp-1096378,0.0,-2.52958236,1.2078962570238099,"{38: 1, 80: 2, 83: 1}","[38, 80, 83]",381802831,Sr1Hg2Bi1
SrAcHg2,mp-867925,0.0,4.2321947,0.0,"{38: 1, 89: 1, 80: 2}","[38, 80, 89]",381802891,Sr1Ac1Hg2
SrHg3,mp-1080552,0.0,2.59077067,0.0,"{38: 1, 80: 3}","[38, 80]",381803,Sr1Hg3
SrHg8,mp-1203966,0.0,2.32698817,0.028153434920633047,"{38: 1, 80: 8}","[38, 80]",381808,Sr1Hg8
SrTl,mp-2434,0.0,4.01961592,0.0,"{38: 1, 81: 1}","[38, 81]",381811,Sr1Tl1
SrTl2,mp-30877,0.0,4.87646766,0.0,"{38: 1, 81: 2}","[38, 81]",381812,Sr1Tl2
SrAcTl2,mp-978953,0.0,5.43095732,0.0,"{38: 1, 89: 1, 81: 2}","[38, 81, 89]",381812891,Sr1Ac1Tl2
SrTl3,mp-1186776,0.0,5.07699877,0.021081438750002235,"{38: 1, 81: 3}","[38, 81]",381813,Sr1Tl3
SrPb,mp-21093,0.0,4.07404422,0.0,"{38: 1, 82: 1}","[38, 82]",381821,Sr1Pb1
SrPb3,mp-21162,0.0,6.04707914,0.0,"{38: 1, 82: 3}","[38, 82]",381823,Sr1Pb3
SrBi3,mp-23159,0.0,5.7021578,0.0,"{38: 1, 83: 3}","[38, 83]",381833,Sr1Bi3
SrAc3,mp-979014,0.0,4.93887116,0.07353506395833875,"{38: 1, 89: 3}","[38, 89]",381893,Sr1Ac3
SrTh3,mp-1186782,0.0,5.9047428,0.32642652958332974,"{38: 1, 90: 3}","[38, 90]",381903,Sr1Th3
SrPa3,mp-1187236,0.0,9.75549816,0.6304628558333292,"{38: 1, 91: 3}","[38, 91]",381913,Sr1Pa3
SrU,mp-1060143,0.0,2.28154123,1.4958015466666694,"{38: 1, 92: 1}","[38, 92]",381921,Sr1U1
Sr21(Cd2Bi9)2,mp-582108,0.17779999999999996,3.38983406,0.0,"{38: 21, 48: 4, 83: 18}","[38, 48, 83]",38214848318,Sr21Cd4Bi18
Sr21In8Pb7,mp-642281,0.0,3.22806933,0.004865456319443684,"{38: 21, 49: 8, 82: 7}","[38, 49, 82]",3821498827,Sr21In8Pb7
Sr21Hg109,mp-1219820,0.0,2.54155213,0.0,"{38: 21, 80: 109}","[38, 80]",382180109,Sr21Hg109