formula,material_id,band_gap,efermi,energy_above_hull,comp_atoms,sorted_keys_comp_atoms,comp_number,new_formula
Sr4Ca4FeCo7O24,mp-1075997,0.0,3.00700423,0.07971338904167435,"{38: 4, 20: 4, 26: 1, 27: 7, 8: 24}","[8, 20, 26, 27, 38]",824204261277384,Sr4Ca4Fe1Co7O24
Sr4Ca4Fe3Co5O24,mp-1076674,0.0,2.9674864,0.05991887166667009,"{38: 4, 20: 4, 26: 3, 27: 5, 8: 24}","[8, 20, 26, 27, 38]",824204263275384,Sr4Ca4Fe3Co5O24
Sr4Ca4Co7CuO24,mp-1099611,0.0,2.92587452,0.08899514915624707,"{38: 4, 20: 4, 27: 7, 29: 1, 8: 24}","[8, 20, 27, 29, 38]",824204277291384,Sr4Ca4Co7Cu1O24
Sr3Ca5TiMn7O24,mp-1076217,0.0,3.23455526,0.08356916297619144,"{38: 3, 20: 5, 22: 1, 25: 7, 8: 24}","[8, 20, 22, 25, 38]",824205221257383,Sr3Ca5Ti1Mn7O24
Sr3Ca5Ti3Mn5O24,mp-1076628,0.0,3.26482146,0.06895234483333024,"{38: 3, 20: 5, 22: 3, 25: 5, 8: 24}","[8, 20, 22, 25, 38]",824205223255383,Sr3Ca5Ti3Mn5O24
Sr3Ca5Mn3Fe5O24,mp-1076854,0.0,2.98487596,0.05717095525000371,"{38: 3, 20: 5, 25: 3, 26: 5, 8: 24}","[8, 20, 25, 26, 38]",824205253265383,Sr3Ca5Mn3Fe5O24
Sr3Ca5Mn4(FeO6)4,mp-1075968,0.0,2.96996021,0.06441964916667242,"{38: 3, 20: 5, 25: 4, 26: 4, 8: 24}","[8, 20, 25, 26, 38]",824205254264383,Sr3Ca5Mn4Fe4O24
Sr3Ca5Mn7FeO24,mp-1120829,0.0,3.0823317,0.088996359273807,"{38: 3, 20: 5, 25: 7, 26: 1, 8: 24}","[8, 20, 25, 26, 38]",824205257261383,Sr3Ca5Mn7Fe1O24
Sr3Ca5Mn8O24,mp-1247636,0.1762999999999999,2.6965737,0.06620482117261428,"{38: 3, 20: 5, 25: 8, 8: 24}","[8, 20, 25, 38]",824205258383,Sr3Ca5Mn8O24
Sr3Ca5FeCo7O24,mp-1099827,0.0,3.28428056,0.09492912320833824,"{38: 3, 20: 5, 26: 1, 27: 7, 8: 24}","[8, 20, 26, 27, 38]",824205261277383,Sr3Ca5Fe1Co7O24
Sr3Ca5Fe4(CoO6)4,mp-1076602,0.0,3.03224268,0.063060850583323,"{38: 3, 20: 5, 26: 4, 27: 4, 8: 24}","[8, 20, 26, 27, 38]",824205264274383,Sr3Ca5Fe4Co4O24
Sr3Ca5Fe5(CoO8)3,mp-1076802,0.0,3.09734734,0.05981646775000282,"{38: 3, 20: 5, 26: 5, 27: 3, 8: 24}","[8, 20, 26, 27, 38]",824205265273383,Sr3Ca5Fe5Co3O24
Sr2Ca6TiMn7O24,mp-1099702,0.0,3.31465028,0.09140921557143145,"{38: 2, 20: 6, 22: 1, 25: 7, 8: 24}","[8, 20, 22, 25, 38]",824206221257382,Sr2Ca6Ti1Mn7O24
Sr2Ca6Mn5(FeO8)3,mp-1076268,0.0,3.06671625,0.08014411833333845,"{38: 2, 20: 6, 25: 5, 26: 3, 8: 24}","[8, 20, 25, 26, 38]",824206255263382,Sr2Ca6Mn5Fe3O24
Sr2Ca6Mn7FeO24,mp-1099788,0.0,3.1497494,0.09584768411904765,"{38: 2, 20: 6, 25: 7, 26: 1, 8: 24}","[8, 20, 25, 26, 38]",824206257261382,Sr2Ca6Mn7Fe1O24
Sr2Ca6FeCo7O24,mp-1076626,0.0,3.26725418,0.09156991112499924,"{38: 2, 20: 6, 26: 1, 27: 7, 8: 24}","[8, 20, 26, 27, 38]",824206261277382,Sr2Ca6Fe1Co7O24
Sr2Ca6Fe3Co5O24,mp-1099890,0.0,3.16764617,0.07834633891665632,"{38: 2, 20: 6, 26: 3, 27: 5, 8: 24}","[8, 20, 26, 27, 38]",824206263275382,Sr2Ca6Fe3Co5O24
Sr2Ca6Co7CuO24,mp-1099600,0.0,3.21136838,0.10503134223958188,"{38: 2, 20: 6, 27: 7, 29: 1, 8: 24}","[8, 20, 27, 29, 38]",824206277291382,Sr2Ca6Co7Cu1O24
SrCa7TiMn7O24,mp-1247602,0.3636999999999997,2.83307333,0.04889477341666382,"{38: 1, 20: 7, 22: 1, 25: 7, 8: 24}","[8, 20, 22, 25, 38]",824207221257381,Sr1Ca7Ti1Mn7O24
SrCa7Ti2Mn6O24,mp-1247687,0.3421000000000003,2.8307879,0.04140849006250136,"{38: 1, 20: 7, 22: 2, 25: 6, 8: 24}","[8, 20, 22, 25, 38]",824207222256381,Sr1Ca7Ti2Mn6O24
SrCa7Ti3Mn5O24,mp-1247714,0.5068000000000001,2.9031451,0.03488118270833862,"{38: 1, 20: 7, 22: 3, 25: 5, 8: 24}","[8, 20, 22, 25, 38]",824207223255381,Sr1Ca7Ti3Mn5O24
SrCa7Mn7CrO24,mp-1247623,0.23980000000000024,3.04519441,0.060312629603175516,"{38: 1, 20: 7, 25: 7, 24: 1, 8: 24}","[8, 20, 24, 25, 38]",824207241257381,Sr1Ca7Mn7Cr1O24
SrCa7Mn6Cr2O24,mp-1247710,0.19350000000000023,2.96663162,0.06583419471825813,"{38: 1, 20: 7, 25: 6, 24: 2, 8: 24}","[8, 20, 24, 25, 38]",824207242256381,Sr1Ca7Mn6Cr2O24
SrCa7Mn6(FeO12)2,mp-1077667,0.0,3.181882,0.09459107250000542,"{38: 1, 20: 7, 25: 6, 26: 2, 8: 24}","[8, 20, 25, 26, 38]",824207256262381,Sr1Ca7Mn6Fe2O24
SrCa7Mn7FeO24,mp-1099696,0.0,3.23880475,0.10338856291666865,"{38: 1, 20: 7, 25: 7, 26: 1, 8: 24}","[8, 20, 25, 26, 38]",824207257261381,Sr1Ca7Mn7Fe1O24
SrCa7Mn8O24,mp-1247638,0.3178000000000001,2.83740281,0.054378547800599364,"{38: 1, 20: 7, 25: 8, 8: 24}","[8, 20, 25, 38]",824207258381,Sr1Ca7Mn8O24
SrCa7FeCo7O24,mp-1076861,0.0,3.32773649,0.10662059633332976,"{38: 1, 20: 7, 26: 1, 27: 7, 8: 24}","[8, 20, 26, 27, 38]",824207261277381,Sr1Ca7Fe1Co7O24
SrCa7Fe2(CoO4)6,mp-1076829,0.0,3.29113417,0.09783144374999608,"{38: 1, 20: 7, 26: 2, 27: 6, 8: 24}","[8, 20, 26, 27, 38]",824207262276381,Sr1Ca7Fe2Co6O24
SrLa7TiGa7O24,mp-720505,2.5077,7.94367469,0.014532951883933443,"{38: 1, 57: 7, 22: 1, 31: 7, 8: 24}","[8, 22, 31, 38, 57]",824221317381577,Sr1La7Ti1Ga7O24
BaSr7Ti5Mn3O24,mp-1099624,0.0,3.05062338,0.020617565208333133,"{56: 1, 38: 7, 22: 5, 25: 3, 8: 24}","[8, 22, 25, 38, 56]",824225253387561,Ba1Sr7Ti5Mn3O24
BaSr7Ti6Mn2O24,mp-1075988,0.6989999999999998,3.08822846,0.015654374458334175,"{56: 1, 38: 7, 22: 6, 25: 2, 8: 24}","[8, 22, 25, 38, 56]",824226252387561,Ba1Sr7Ti6Mn2O24
Ba3Sr5Ti7MnO24,mp-1075974,0.9051,3.11549914,0.01678511220833201,"{56: 3, 38: 5, 22: 7, 25: 1, 8: 24}","[8, 22, 25, 38, 56]",824227251385563,Ba3Sr5Ti7Mn1O24
Ba2Sr6Ti7MnO24,mp-1076337,1.0421,4.21690285,0.01581401095833357,"{56: 2, 38: 6, 22: 7, 25: 1, 8: 24}","[8, 22, 25, 38, 56]",824227251386562,Ba2Sr6Ti7Mn1O24
BaSr7Ti7MnO24,mp-1076377,0.9921999999999995,3.19938089,0.011394852208333361,"{56: 1, 38: 7, 22: 7, 25: 1, 8: 24}","[8, 22, 25, 38, 56]",824227251387561,Ba1Sr7Ti7Mn1O24
Ba3Sr5Ti8O24,mp-1075943,1.7229999999999999,4.86942908,0.007813589499972906,"{56: 3, 38: 5, 22: 8, 8: 24}","[8, 22, 38, 56]",824228385563,Ba3Sr5Ti8O24
BaSr7Ti8O24,mp-1099778,1.7462,3.19345722,0.004088018499995627,"{56: 1, 38: 7, 22: 8, 8: 24}","[8, 22, 38, 56]",824228387561,Ba1Sr7Ti8O24
BaSr7MnFe7O24,mp-1076592,0.0,2.67050336,0.014084806208332523,"{56: 1, 38: 7, 25: 1, 26: 7, 8: 24}","[8, 25, 26, 38, 56]",824251267387561,Ba1Sr7Mn1Fe7O24
Sr8MnFe7O24,mp-1076445,0.0,2.72074221,0.002760529562499947,"{38: 8, 25: 1, 26: 7, 8: 24}","[8, 25, 26, 38]",824251267388,Sr8Mn1Fe7O24
BaSr7Mn2(FeO4)6,mp-1076408,0.0,2.65459106,0.01992088302083239,"{56: 1, 38: 7, 25: 2, 26: 6, 8: 24}","[8, 25, 26, 38, 56]",824252266387561,Ba1Sr7Mn2Fe6O24
Sr5La3Mn4(WO6)4,mp-694898,2.1071999999999997,4.78196124,0.02033988035000256,"{38: 5, 57: 3, 25: 4, 74: 4, 8: 24}","[8, 25, 38, 57, 74]",824254385573744,Sr5La3Mn4W4O24
Sr2La6Mn7CuO24,mp-738741,0.0,6.04782323,0.1603529566916695,"{38: 2, 57: 6, 25: 7, 29: 1, 8: 24}","[8, 25, 29, 38, 57]",824257291382576,Sr2La6Mn7Cu1O24
Sr4La4Mn7CuO24,mp-698710,0.0,5.16140088,0.11339089099166344,"{38: 4, 57: 4, 25: 7, 29: 1, 8: 24}","[8, 25, 29, 38, 57]",824257291384574,Sr4La4Mn7Cu1O24
Sr3La5Mn8O24,mp-691121,0.0,5.72623408,0.11753460329164866,"{38: 3, 57: 5, 25: 8, 8: 24}","[8, 25, 38, 57]",824258383575,Sr3La5Mn8O24
Sr6Ce2Y4Fe3(CuO8)3,mp-1218662,0.0,3.66371998,0.028655118511902167,"{38: 6, 58: 2, 39: 4, 26: 3, 29: 3, 8: 24}","[8, 26, 29, 38, 39, 58]",824263293386394582,Sr6Ce2Y4Fe3Cu3O24
Sr7PrFe4(MoO6)4,mp-698609,0.9784999999999999,4.95456062,0.006050454093752933,"{38: 7, 59: 1, 26: 4, 42: 4, 8: 24}","[8, 26, 38, 42, 59]",824264387424591,Sr7Pr1Fe4Mo4O24
Sr7SmFe4(MoO6)4,mp-694963,0.0,3.91550374,0.014755956703123907,"{38: 7, 62: 1, 26: 4, 42: 4, 8: 24}","[8, 26, 38, 42, 62]",824264387424621,Sr7Sm1Fe4Mo4O24
BaSr7Fe6(CoO12)2,mp-1099936,0.0,2.72640549,0.03254864416667225,"{56: 1, 38: 7, 26: 6, 27: 2, 8: 24}","[8, 26, 27, 38, 56]",824266272387561,Ba1Sr7Fe6Co2O24
Sr4Fe6Bi7PbO24,mp-1218820,0.0,5.34088958,0.18897767148066702,"{38: 4, 26: 6, 83: 7, 82: 1, 8: 24}","[8, 26, 38, 82, 83]",824266384821837,Sr4Fe6Bi7Pb1O24
BaSr7Fe7CoO24,mp-1075935,0.0,2.72831786,0.03235991937499971,"{56: 1, 38: 7, 26: 7, 27: 1, 8: 24}","[8, 26, 27, 38, 56]",824267271387561,Ba1Sr7Fe7Co1O24
Sr8Fe7CoO24,mp-1077660,0.0,2.81173761,0.014548109453634162,"{38: 8, 26: 7, 27: 1, 8: 24}","[8, 26, 27, 38]",824267271388,Sr8Fe7Co1O24
BaSr7(FeO3)8,mp-1099685,0.0,2.66976485,0.004474747166664628,"{56: 1, 38: 7, 26: 8, 8: 24}","[8, 26, 38, 56]",824268387561,Ba1Sr7Fe8O24
Ba7SrCoCu7O24,mp-1076342,0.0,2.45749526,0.09130319626041672,"{56: 7, 38: 1, 27: 1, 29: 7, 8: 24}","[8, 27, 29, 38, 56]",824271297381567,Ba7Sr1Co1Cu7O24
Ba6Sr2CoCu7O24,mp-1076247,0.0,2.44570105,0.08341674626041495,"{56: 6, 38: 2, 27: 1, 29: 7, 8: 24}","[8, 27, 29, 38, 56]",824271297382566,Ba6Sr2Co1Cu7O24
Ba4Sr4CoCu7O24,mp-1099676,0.0,2.53813254,0.06628493504687238,"{56: 4, 38: 4, 27: 1, 29: 7, 8: 24}","[8, 27, 29, 38, 56]",824271297384564,Ba4Sr4Co1Cu7O24
Ba3Sr5Co2(CuO4)6,mp-1076137,0.0,2.58852316,0.0645165735468769,"{56: 3, 38: 5, 27: 2, 29: 6, 8: 24}","[8, 27, 29, 38, 56]",824272296385563,Ba3Sr5Co2Cu6O24
Ba4Sr4Co3Cu5O24,mp-1076491,0.0,2.70397325,0.08458880926562262,"{56: 4, 38: 4, 27: 3, 29: 5, 8: 24}","[8, 27, 29, 38, 56]",824273295384564,Ba4Sr4Co3Cu5O24
Ba3Sr5Co3Cu5O24,mp-1076600,0.0,2.63314364,0.07310496265625055,"{56: 3, 38: 5, 27: 3, 29: 5, 8: 24}","[8, 27, 29, 38, 56]",824273295385563,Ba3Sr5Co3Cu5O24
Ba2Sr6Co3Cu5O24,mp-1076264,0.0,2.8133297,0.061733518822915556,"{56: 2, 38: 6, 27: 3, 29: 5, 8: 24}","[8, 27, 29, 38, 56]",824273295386562,Ba2Sr6Co3Cu5O24
Ba3Sr5Co4(CuO6)4,mp-1075989,0.0,2.62100203,0.07881074679166566,"{56: 3, 38: 5, 27: 4, 29: 4, 8: 24}","[8, 27, 29, 38, 56]",824274294385563,Ba3Sr5Co4Cu4O24
BaSr7Co4(CuO6)4,mp-1076054,0.0,2.88516836,0.060815799624998945,"{56: 1, 38: 7, 27: 4, 29: 4, 8: 24}","[8, 27, 29, 38, 56]",824274294387561,Ba1Sr7Co4Cu4O24
Ba2Sr6Co5(CuO8)3,mp-1076429,0.0,2.89283569,0.06738418209374952,"{56: 2, 38: 6, 27: 5, 29: 3, 8: 24}","[8, 27, 29, 38, 56]",824275293386562,Ba2Sr6Co5Cu3O24
BaSr7Co5(CuO8)3,mp-1075982,0.0,2.72291313,0.057749882871870106,"{56: 1, 38: 7, 27: 5, 29: 3, 8: 24}","[8, 27, 29, 38, 56]",824275293387561,Ba1Sr7Co5Cu3O24
BaSr7Co6(CuO12)2,mp-1076681,0.0,2.80833674,0.05524363511876906,"{56: 1, 38: 7, 27: 6, 29: 2, 8: 24}","[8, 27, 29, 38, 56]",824276292387561,Ba1Sr7Co6Cu2O24
Sr8Ce5Nd3(CuO12)2,mp-1173197,0.23550000000000004,2.8070043,0.3692266074702406,"{38: 8, 58: 5, 60: 3, 29: 2, 8: 24}","[8, 29, 38, 58, 60]",824292388585603,Sr8Ce5Nd3Cu2O24
SrLa7Cu4(SnO6)4,mp-694970,0.0,6.76951966,0.04834115074998291,"{38: 1, 57: 7, 29: 4, 50: 4, 8: 24}","[8, 29, 38, 50, 57]",824294381504577,Sr1La7Cu4Sn4O24
Sr7LaCu4(BiO3)8,mp-686833,0.6090000000000004,4.04216111,0.30755638704544985,"{38: 7, 57: 1, 29: 4, 83: 8, 8: 24}","[8, 29, 38, 57, 83]",824294387571838,Sr7La1Cu4Bi8O24
Ba7Sr(CuO3)8,mp-1099824,0.0,2.36228481,0.08063336883333516,"{56: 7, 38: 1, 29: 8, 8: 24}","[8, 29, 38, 56]",824298381567,Ba7Sr1Cu8O24
Sr8Pr4Cu9(HgO8)3,mp-1218674,0.0,3.93246115,0.08046608645832709,"{38: 8, 59: 4, 29: 9, 80: 3, 8: 24}","[8, 29, 38, 59, 80]",824299388594803,Sr8Pr4Cu9Hg3O24
SrZr4(AsO4)6,mp-1202083,4.0082,-0.77578108,0.0,"{38: 1, 40: 4, 33: 6, 8: 24}","[8, 33, 38, 40]",824336381404,Sr1Zr4As6O24
Sr11(ReO6)4,mp-29908,0.0,3.76605932,0.0,"{38: 11, 75: 4, 8: 24}","[8, 38, 75]",8243811754,Sr11Re4O24
Sr11(OsO6)4,mp-556809,0.0,3.41201224,0.0,"{38: 11, 76: 4, 8: 24}","[8, 38, 76]",8243811764,Sr11Os4O24
Sr15Pd5O24,mp-1218885,0.6840999999999999,3.11780924,0.014603639924240852,"{38: 15, 46: 5, 8: 24}","[8, 38, 46]",8243815465,Sr15Pd5O24
Sr5La6Nb4O24,mp-1218796,2.9525000000000006,3.72656015,0.024264250144248933,"{38: 5, 57: 6, 41: 4, 8: 24}","[8, 38, 41, 57]",824385414576,Sr5La6Nb4O24
Sr8Ru7O24,mp-685386,0.0,3.96511213,0.0419670901282192,"{38: 8, 44: 7, 8: 24}","[8, 38, 44]",824388447,Sr8Ru7O24
Sr10P6ClO24F,mp-705932,5.1204,1.49458807,0.0008729057142584651,"{38: 10, 15: 6, 17: 1, 8: 24, 9: 1}","[8, 9, 15, 17, 38]",824911561713810,Sr10P6Cl1O24F1
Sr10P6BrO24F,mp-534901,4.953,1.59368135,0.0005685241666668617,"{38: 10, 15: 6, 35: 1, 8: 24, 9: 1}","[8, 9, 15, 35, 38]",824911563513810,Sr10P6Br1O24F1
Sr5Cd5P6(O12F)2,mp-1218628,2.8690999999999995,4.08015105,0.023449273908733304,"{38: 5, 48: 5, 15: 6, 8: 24, 9: 2}","[8, 9, 15, 38, 48]",82492156385485,Sr5Cd5P6O24F2
Sr10P6O25,mp-1218894,2.6772000000000005,5.28036756,0.01469676463415226,"{38: 10, 15: 6, 8: 25}","[8, 15, 38]",8251563810,Sr10P6O25
Sr12Zn2Co6O25,mp-1218902,0.03600000000000003,2.37606644,0.015032083888913306,"{38: 12, 30: 2, 27: 6, 8: 25}","[8, 27, 30, 38]",8252763023812,Sr12Zn2Co6O25
Ba5Sr2Nd8(CuO5)5,mp-532816,0.0,3.7749802,0.005707941333320754,"{56: 5, 38: 2, 60: 8, 29: 5, 8: 25}","[8, 29, 38, 56, 60]",825295382565608,Ba5Sr2Nd8Cu5O25
Sr4Bi14O25,mp-675248,0.0,3.98589862,0.8305563462790833,"{38: 4, 83: 14, 8: 25}","[8, 38, 83]",8253848314,Sr4Bi14O25
Sr10Fe10O27,mp-1094099,0.0,2.76436272,0.030154163244709764,"{38: 10, 26: 10, 8: 27}","[8, 26, 38]",82726103810,Sr10Fe10O27
SrZn2Fe16O27,mp-1208968,0.9205999999999999,3.91582873,0.05522328383155273,"{38: 1, 30: 2, 26: 16, 8: 27}","[8, 26, 30, 38]",8272616302381,Sr1Zn2Fe16O27
Sr12Fe8O27,mp-758049,0.0,2.47921897,0.0,"{38: 12, 26: 8, 8: 27}","[8, 26, 38]",8272683812,Sr12Fe8O27
Sr12Co10O27,mp-698692,0.0,2.81180498,0.025017855510201414,"{38: 12, 27: 10, 8: 27}","[8, 27, 38]",82727103812,Sr12Co10O27
SrGe12Pb2O27,mp-1218292,3.4858,2.33721684,0.04460785456349381,"{38: 1, 32: 12, 82: 2, 8: 27}","[8, 32, 38, 82]",8273212381822,Sr1Ge12Pb2O27
Ba2SrTa6(Bi2O9)3,mp-1229255,1.5936,3.88324657,0.042830463988099865,"{56: 2, 38: 1, 73: 6, 83: 6, 8: 27}","[8, 38, 56, 73, 83]",827381562736836,Ba2Sr1Ta6Bi6O27
SrLa9Mg2Ga6(FeO14)2,mp-684845,0.9001999999999999,6.3263295,0.11586515569566469,"{38: 1, 57: 9, 12: 2, 31: 6, 26: 2, 8: 28}","[8, 12, 26, 31, 38, 57]",828122262316381579,Sr1La9Mg2Ga6Fe2O28
Sr9Fe(PO4)7,mp-1218733,1.4627,1.55576524,0.022469487027799495,"{38: 9, 26: 1, 15: 7, 8: 28}","[8, 15, 26, 38]",828157261389,Sr9Fe1P7O28
Sr9In(PO4)7,mp-1218791,4.0448,1.51026146,0.0,"{38: 9, 49: 1, 15: 7, 8: 28}","[8, 15, 38, 49]",828157389491,Sr9In1P7O28
Sr2Ge(S2O7)4,mp-1020704,3.9265,-0.15574697,0.0,"{38: 2, 32: 1, 16: 8, 8: 28}","[8, 16, 32, 38]",828168321382,Sr2Ge1S8O28
Sr8Ca3NdTl2Cu8(PbO14)2,mp-1218785,0.0,3.96801276,0.021801121971163795,"{38: 8, 20: 3, 60: 1, 81: 2, 29: 8, 82: 2, 8: 28}","[8, 20, 29, 38, 60, 81, 82]",828203298388601812822,Sr8Ca3Nd1Tl2Cu8Pb2O28
Sr3Ca6V7BiO28,mp-532540,3.6043999999999996,0.54176138,0.0,"{38: 3, 20: 6, 23: 7, 83: 1, 8: 28}","[8, 20, 23, 38, 83]",828206237383831,Sr3Ca6V7Bi1O28
Sr9TmV7O28,mp-555221,3.5778,-0.03988697,0.0,"{38: 9, 69: 1, 23: 7, 8: 28}","[8, 23, 38, 69]",828237389691,Sr9Tm1V7O28
Sr9LuV7O28,mp-555068,3.6781,0.0692983,0.0,"{38: 9, 71: 1, 23: 7, 8: 28}","[8, 23, 38, 71]",828237389711,Sr9Lu1V7O28
Sr8Fe5Re5O28,mp-1199146,0.0,2.38863135,0.11289714543478002,"{38: 8, 26: 5, 75: 5, 8: 28}","[8, 26, 38, 75]",828265388755,Sr8Fe5Re5O28
Sr3U6O28,mp-1218901,0.03210000000000024,1.97863033,0.5401473455996602,"{38: 3, 92: 6, 8: 28}","[8, 38, 92]",828383926,Sr3U6O28
SrLa9MgGa9O29,mp-677649,1.0121000000000002,5.91563616,0.0838581120408346,"{38: 1, 57: 9, 12: 1, 31: 9, 8: 29}","[8, 12, 31, 38, 57]",829121319381579,Sr1La9Mg1Ga9O29
SrFeO2F,mp-1218297,0.6625999999999999,3.6325965,0.15505357262499775,"{38: 1, 26: 1, 8: 2, 9: 1}","[8, 9, 26, 38]",8291261381,Sr1Fe1O2F1
Sr6Ca4Cu17O29,mp-1218738,0.0,3.43427365,0.02572222428571358,"{38: 6, 20: 4, 29: 17, 8: 29}","[8, 20, 29, 38]",8292042917386,Sr6Ca4Cu17O29
Sr2MgCu(OF)2,mp-2228288,0.0,3.76042904,0.7421685350000002,"{38: 2, 12: 1, 29: 1, 8: 2, 9: 2}","[8, 9, 12, 29, 38]",8292121291382,Sr2Mg1Cu1O2F2
Sr2Cu(OF)2,mp-1025280,0.0,1.95712789,0.027429504999988197,"{38: 2, 29: 1, 8: 2, 9: 2}","[8, 9, 29, 38]",8292291382,Sr2Cu1O2F2
BaSrPd(OF)2,mp-1227333,0.0,1.62239788,0.07764480428571119,"{56: 1, 38: 1, 46: 1, 8: 2, 9: 2}","[8, 9, 38, 46, 56]",8292381461561,Ba1Sr1Pd1O2F2
Sr16Mn8O29,mp-767781,0.38050000000000006,2.57113289,0.0,"{38: 16, 25: 8, 8: 29}","[8, 25, 38]",8292583816,Sr16Mn8O29
Sr10Fe10O29,mp-1094087,0.0,2.73108127,0.004818709387741649,"{38: 10, 26: 10, 8: 29}","[8, 26, 38]",82926103810,Sr10Fe10O29
Sr10Cu5Bi10O29,mp-667638,0.0,4.07890546,0.07443057074074044,"{38: 10, 29: 5, 83: 10, 8: 29}","[8, 29, 38, 83]",82929538108310,Sr10Cu5Bi10O29
BaNa2Sr6Al6(OF16)2,mp-1227953,0.8469000000000001,1.38457571,0.07167836992116072,"{56: 1, 11: 2, 38: 6, 13: 6, 8: 2, 9: 32}","[8, 9, 11, 13, 38, 56]",82932112136386561,Ba1Na2Sr6Al6O2F32
Sr14Nb6O29,mp-1173595,3.0694,4.51405032,0.05508567408163145,"{38: 14, 41: 6, 8: 29}","[8, 38, 41]",8293814416,Sr14Nb6O29
SrTi(OF3)2,mp-1196423,0.48660000000000014,-2.8446553,0.4056306255000015,"{38: 1, 22: 1, 8: 2, 9: 6}","[8, 9, 22, 38]",8296221381,Sr1Ti1O2F6
NaSr8LaTi10O30,mp-695476,1.8021999999999996,3.61697341,0.007029822394962082,"{11: 1, 38: 8, 57: 1, 22: 10, 8: 30}","[8, 11, 22, 38, 57]",8301112210388571,Na1Sr8La1Ti10O30
NaSr8NdTi10O30,mp-695470,1.7506999999999997,3.27839476,0.009508529622213047,"{11: 1, 38: 8, 60: 1, 22: 10, 8: 30}","[8, 11, 22, 38, 60]",8301112210388601,Na1Sr8Nd1Ti10O30
NaSr9Fe5(MoO6)5,mp-706231,0.5036,3.82945349,0.01979787523333343,"{11: 1, 38: 9, 26: 5, 42: 5, 8: 30}","[8, 11, 26, 38, 42]",830111265389425,Na1Sr9Fe5Mo5O30
Na3Sr4La3Ti10O30,mp-695582,1.9423999999999997,3.89999741,0.009433641584983832,"{11: 3, 38: 4, 57: 3, 22: 10, 8: 30}","[8, 11, 22, 38, 57]",8301132210384573,Na3Sr4La3Ti10O30
Na3Sr4Nd3Ti10O30,mp-686697,1.964,3.13379968,0.01402520206667468,"{11: 3, 38: 4, 60: 3, 22: 10, 8: 30}","[8, 11, 22, 38, 60]",8301132210384603,Na3Sr4Nd3Ti10O30
Na3Sr7Ti7Nb3O30,mp-677709,1.7047000000000003,2.70463457,0.025071037899998316,"{11: 3, 38: 7, 22: 7, 41: 3, 8: 30}","[8, 11, 22, 38, 41]",830113227387413,Na3Sr7Ti7Nb3O30
Na3Sr7Ta3Ti7O30,mp-40519,1.7944000000000004,2.90544632,0.008319992450003255,"{11: 3, 38: 7, 73: 3, 22: 7, 8: 30}","[8, 11, 22, 38, 73]",830113227387733,Na3Sr7Ta3Ti7O30
Sr10Mg2Fe3(MoO6)5,mp-1218944,1.3907999999999996,3.2739568,0.001199191049997772,"{38: 10, 12: 2, 26: 3, 42: 5, 8: 30}","[8, 12, 26, 38, 42]",8301222633810425,Sr10Mg2Fe3Mo5O30
Sr10Mg3Fe2(MoO6)5,mp-1173625,0.3395999999999999,4.71909162,0.002677906166669075,"{38: 10, 12: 3, 26: 2, 42: 5, 8: 30}","[8, 12, 26, 38, 42]",8301232623810425,Sr10Mg3Fe2Mo5O30
Sr10Mg4Fe(MoO6)5,mp-1218897,1.8798,3.07734277,0.0025281942833421667,"{38: 10, 12: 4, 26: 1, 42: 5, 8: 30}","[8, 12, 26, 38, 42]",8301242613810425,Sr10Mg4Fe1Mo5O30
Sr10Mg5Mo(W2O15)2,mp-1218935,2.626,2.58088484,0.0005403994666588474,"{38: 10, 12: 5, 42: 1, 74: 4, 8: 30}","[8, 12, 38, 42, 74]",8301253810421744,Sr10Mg5Mo1W4O30
Sr10Mg5Mo2(WO10)3,mp-1218914,2.4223,2.52338757,0.0004159699333134981,"{38: 10, 12: 5, 42: 2, 74: 3, 8: 30}","[8, 12, 38, 42, 74]",8301253810422743,Sr10Mg5Mo2W3O30
Sr10Mg5Mo3(WO15)2,mp-1218906,2.3303000000000003,2.61619367,0.0,"{38: 10, 12: 5, 42: 3, 74: 2, 8: 30}","[8, 12, 38, 42, 74]",8301253810423742,Sr10Mg5Mo3W2O30
Sr10Mg5Mo4WO30,mp-1218905,2.3794999999999997,2.62685607,0.0,"{38: 10, 12: 5, 42: 4, 74: 1, 8: 30}","[8, 12, 38, 42, 74]",8301253810424741,Sr10Mg5Mo4W1O30
Sr10CaY4(CoO3)10,mp-1218919,0.0,3.83467951,0.1488040919545428,"{38: 10, 20: 1, 39: 4, 27: 10, 8: 30}","[8, 20, 27, 38, 39]",83020127103810394,Sr10Ca1Y4Co10O30
Sr9LaTi10O30,mp-695042,0.0,5.64280076,0.0,"{38: 9, 57: 1, 22: 10, 8: 30}","[8, 22, 38, 57]",8302210389571,Sr9La1Ti10O30
Sr3La7Ti2Mn8O30,mp-694976,0.0,6.22954805,0.1324564890571498,"{38: 3, 57: 7, 22: 2, 25: 8, 8: 30}","[8, 22, 25, 38, 57]",830222258383577,Sr3La7Ti2Mn8O30
Sr3La7Ti3Mn7O30,mp-694908,0.0,6.35210249,0.11079514241666111,"{38: 3, 57: 7, 22: 3, 25: 7, 8: 30}","[8, 22, 25, 38, 57]",830223257383577,Sr3La7Ti3Mn7O30
SrV12O30,mp-1179552,0.36149999999999993,1.30227106,0.508083661308147,"{38: 1, 23: 12, 8: 30}","[8, 23, 38]",8302312381,Sr1V12O30
Sr3La7Mn7(FeO10)3,mp-706341,0.0,5.98804279,0.13442003425306837,"{38: 3, 57: 7, 25: 7, 26: 3, 8: 30}","[8, 25, 26, 38, 57]",830257263383577,Sr3La7Mn7Fe3O30
Sr3La7Mn8(FeO15)2,mp-705096,0.0,6.02877901,0.13548824339582133,"{38: 3, 57: 7, 25: 8, 26: 2, 8: 30}","[8, 25, 26, 38, 57]",830258262383577,Sr3La7Mn8Fe2O30
Sr13Mn8O30,mp-1173350,0.0,1.66884446,0.024681863202617116,"{38: 13, 25: 8, 8: 30}","[8, 25, 38]",8302583813,Sr13Mn8O30
Sr3La7Mn9FeO30,mp-1173239,0.0,5.9550723,0.14690706152350685,"{38: 3, 57: 7, 25: 9, 26: 1, 8: 30}","[8, 25, 26, 38, 57]",830259261383577,Sr3La7Mn9Fe1O30
Sr5La5Mn9CuO30,mp-698602,0.0,5.09912742,0.11414315205000314,"{38: 5, 57: 5, 25: 9, 29: 1, 8: 30}","[8, 25, 29, 38, 57]",830259291385575,Sr5La5Mn9Cu1O30