formula,material_id,band_gap,efermi,energy_above_hull,comp_atoms,sorted_keys_comp_atoms,comp_number,new_formula
SrV3O7,mp-510725,2.0297,1.36549607,0.011445053579553388,"{38: 1, 23: 3, 8: 7}","[8, 23, 38]",87233381,Sr1V3O7
Sr2GdMnCrO7,mp-1218815,0.0,3.36475985,0.06844610677084795,"{38: 2, 64: 1, 25: 1, 24: 1, 8: 7}","[8, 24, 25, 38, 64]",87241251382641,Sr2Gd1Mn1Cr1O7
Sr2CrCu2O7,mp-1043413,0.0,1.76934846,0.4858719050520861,"{38: 2, 24: 1, 29: 2, 8: 7}","[8, 24, 29, 38]",87241292382,Sr2Cr1Cu2O7
Sr2YCrCu2O7,mp-1043147,0.0,4.06662543,0.4525600039903859,"{38: 2, 39: 1, 24: 1, 29: 2, 8: 7}","[8, 24, 29, 38, 39]",87241292382391,Sr2Y1Cr1Cu2O7
Sr2Cr2GaO7,mp-1046770,0.0,1.5964143,0.3400586428580601,"{38: 2, 24: 2, 31: 1, 8: 7}","[8, 24, 31, 38]",87242311382,Sr2Cr2Ga1O7
Sr2YCr2GaO7,mp-1046077,1.0365000000000002,3.82998627,0.07376060942628015,"{38: 2, 39: 1, 24: 2, 31: 1, 8: 7}","[8, 24, 31, 38, 39]",87242311382391,Sr2Y1Cr2Ga1O7
SrCr2O7,mp-557093,2.1955,-1.06978963,0.0,"{38: 1, 24: 2, 8: 7}","[8, 24, 38]",87242381,Sr1Cr2O7
Sr2Cr2O7,mp-886160,0.9242999999999999,1.54962076,0.06905516088069152,"{38: 2, 24: 2, 8: 7}","[8, 24, 38]",87242382,Sr2Cr2O7
Sr2YCr2O7,mp-1045011,0.0,2.86367628,0.26283377727864377,"{38: 2, 39: 1, 24: 2, 8: 7}","[8, 24, 38, 39]",87242382391,Sr2Y1Cr2O7
Sr2YTlCr2O7,mp-1045989,0.0,4.33531087,0.16472440322115478,"{38: 2, 39: 1, 81: 1, 24: 2, 8: 7}","[8, 24, 38, 39, 81]",87242382391811,Sr2Y1Tl1Cr2O7
Sr2Y2Cr2O7,mp-1047092,0.0,4.75502869,0.12998691849358934,"{38: 2, 39: 2, 24: 2, 8: 7}","[8, 24, 38, 39]",87242382392,Sr2Y2Cr2O7
Sr3Cr2O7,mp-675423,0.0,1.13501445,1.7427279917447915,"{38: 3, 24: 2, 8: 7}","[8, 24, 38]",87242383,Sr3Cr2O7
Sr3MnFeO7,mp-1218478,0.0,2.62504084,0.014656669583324344,"{38: 3, 25: 1, 26: 1, 8: 7}","[8, 25, 26, 38]",87251261383,Sr3Mn1Fe1O7
Sr2LaMnCoO7,mp-1297726,0.5363999999999995,4.30413781,0.17738469208335683,"{38: 2, 57: 1, 25: 1, 27: 1, 8: 7}","[8, 25, 27, 38, 57]",87251271382571,Sr2La1Mn1Co1O7
Sr2YMnCu2O7,mp-1043039,0.0,3.5014643,0.050690532772435404,"{38: 2, 39: 1, 25: 1, 29: 2, 8: 7}","[8, 25, 29, 38, 39]",87251292382391,Sr2Y1Mn1Cu2O7
Sr2MnGe2O7,mp-22458,0.002300000000000413,3.68399615,8.11873611032965e-05,"{38: 2, 25: 1, 32: 2, 8: 7}","[8, 25, 32, 38]",87251322382,Sr2Mn1Ge2O7
Sr3MnRuO7,mp-1218426,0.0,3.70195073,0.011782262499974827,"{38: 3, 25: 1, 44: 1, 8: 7}","[8, 25, 38, 44]",87251383441,Sr3Mn1Ru1O7
Sr2Mn2GaO7,mp-1047085,0.0,0.73042675,0.21971610692709387,"{38: 2, 25: 2, 31: 1, 8: 7}","[8, 25, 31, 38]",87252311382,Sr2Mn2Ga1O7
Sr2YMn2GaO7,mp-1047071,0.0,5.07833518,0.09727957129807674,"{38: 2, 39: 1, 25: 2, 31: 1, 8: 7}","[8, 25, 31, 38, 39]",87252311382391,Sr2Y1Mn2Ga1O7
SrLa2Mn2O7,mp-1218243,0.0,6.01351145,0.1262835882936475,"{38: 1, 57: 2, 25: 2, 8: 7}","[8, 25, 38, 57]",87252381572,Sr1La2Mn2O7
Sr2YMn2O7,mp-1218597,0.0,3.43902415,0.02201607093264535,"{38: 2, 39: 1, 25: 2, 8: 7}","[8, 25, 38, 39]",87252382391,Sr2Y1Mn2O7
Sr2Y2Mn2O7,mp-1048669,0.006700000000000372,4.2764407,0.12830362913461535,"{38: 2, 39: 2, 25: 2, 8: 7}","[8, 25, 38, 39]",87252382392,Sr2Y2Mn2O7
Sr2LaMn2O7,mp-1218756,0.0,4.83733348,0.0681917975972377,"{38: 2, 57: 1, 25: 2, 8: 7}","[8, 25, 38, 57]",87252382571,Sr2La1Mn2O7
Sr2NdMn2O7,mp-1218717,0.0,3.93640443,0.007476411410255679,"{38: 2, 60: 1, 25: 2, 8: 7}","[8, 25, 38, 60]",87252382601,Sr2Nd1Mn2O7
Sr3Mn2O7,mp-19070,0.0,2.59478808,0.028049522361125234,"{38: 3, 25: 2, 8: 7}","[8, 25, 38]",87252383,Sr3Mn2O7
Sr2FeCu2O7,mp-1043304,0.0,1.55365747,0.13423227026042994,"{38: 2, 26: 1, 29: 2, 8: 7}","[8, 26, 29, 38]",87261292382,Sr2Fe1Cu2O7
Sr2YFeCu2O7,mp-1042547,0.0,3.36328561,0.020245176730772307,"{38: 2, 39: 1, 26: 1, 29: 2, 8: 7}","[8, 26, 29, 38, 39]",87261292382391,Sr2Y1Fe1Cu2O7
Sr3FeMoO7,mp-1218421,0.0,4.16222134,0.023595540173611873,"{38: 3, 26: 1, 42: 1, 8: 7}","[8, 26, 38, 42]",87261383421,Sr3Fe1Mo1O7
Sr3FeRuO7,mp-1218461,0.0,3.25655395,0.04127810374999985,"{38: 3, 26: 1, 44: 1, 8: 7}","[8, 26, 38, 44]",87261383441,Sr3Fe1Ru1O7
Sr3TaFeO7,mp-1218521,0.0,3.83055903,0.03719529416667555,"{38: 3, 73: 1, 26: 1, 8: 7}","[8, 26, 38, 73]",87261383731,Sr3Ta1Fe1O7
Sr2GaFe2O7,mp-1371485,0.0,0.98131004,0.27031816104165163,"{38: 2, 31: 1, 26: 2, 8: 7}","[8, 26, 31, 38]",87262311382,Sr2Ga1Fe2O7
Sr2YGaFe2O7,mp-1042559,1.7429999999999999,4.31063397,0.06229404322115961,"{38: 2, 39: 1, 31: 1, 26: 2, 8: 7}","[8, 26, 31, 38, 39]",87262311382391,Sr2Y1Ga1Fe2O7
SrLa2Fe2O7,mp-1217886,0.0,5.32088426,0.05870556062500043,"{38: 1, 57: 2, 26: 2, 8: 7}","[8, 26, 38, 57]",87262381572,Sr1La2Fe2O7
SrNd2Fe2O7,mp-1218180,0.0,3.54719077,0.07549240638887422,"{38: 1, 60: 2, 26: 2, 8: 7}","[8, 26, 38, 60]",87262381602,Sr1Nd2Fe2O7
SrEu2Fe2O7,mp-603128,0.0,2.79079544,0.12924581947916103,"{38: 1, 63: 2, 26: 2, 8: 7}","[8, 26, 38, 63]",87262381632,Sr1Eu2Fe2O7
SrTb2Fe2O7,mp-540740,1.1701000000000001,4.7773479,0.014154409166662774,"{38: 1, 65: 2, 26: 2, 8: 7}","[8, 26, 38, 65]",87262381652,Sr1Tb2Fe2O7
SrDy2Fe2O7,mp-1218289,0.0,3.54220688,0.2122944755208307,"{38: 1, 66: 2, 26: 2, 8: 7}","[8, 26, 38, 66]",87262381662,Sr1Dy2Fe2O7
Sr2YFe2O7,mp-1047245,0.0,2.40230103,0.15522190203072395,"{38: 2, 39: 1, 26: 2, 8: 7}","[8, 26, 38, 39]",87262382391,Sr2Y1Fe2O7
Sr2YTlFe2O7,mp-1387378,0.0,4.3594009,0.09636578192307788,"{38: 2, 39: 1, 81: 1, 26: 2, 8: 7}","[8, 26, 38, 39, 81]",87262382391811,Sr2Y1Tl1Fe2O7
Sr2Y2Fe2O7,mp-1047054,1.0278,3.65703661,0.10920564490384521,"{38: 2, 39: 2, 26: 2, 8: 7}","[8, 26, 38, 39]",87262382392,Sr2Y2Fe2O7
Sr3Fe2O7,mp-18820,0.0,2.47239051,0.0,"{38: 3, 26: 2, 8: 7}","[8, 26, 38]",87262383,Sr3Fe2O7
Sr2CoCu2O7,mp-1335753,0.0,1.8327356,0.09614796618749999,"{38: 2, 27: 1, 29: 2, 8: 7}","[8, 27, 29, 38]",87271292382,Sr2Co1Cu2O7
Sr2YCoCu2O7,mp-542434,0.0,3.39073532,0.011280079919922414,"{38: 2, 39: 1, 27: 1, 29: 2, 8: 7}","[8, 27, 29, 38, 39]",87271292382391,Sr2Y1Co1Cu2O7
Sr2GdCoCu2O7,mp-560285,0.0,3.19400632,0.4195494709536529,"{38: 2, 64: 1, 27: 1, 29: 2, 8: 7}","[8, 27, 29, 38, 64]",87271292382641,Sr2Gd1Co1Cu2O7
Sr2CoGe2O7,mp-1191317,2.1500000000000004,2.21458914,0.0,"{38: 2, 27: 1, 32: 2, 8: 7}","[8, 27, 32, 38]",87271322382,Sr2Co1Ge2O7
SrCoAs2O7,mp-18086,2.4789,1.27219192,0.0020002688636431287,"{38: 1, 27: 1, 33: 2, 8: 7}","[8, 27, 33, 38]",87271332381,Sr1Co1As2O7
Sr3NbCoO7,mp-1284693,0.0,3.28207251,0.022102242499951963,"{38: 3, 41: 1, 27: 1, 8: 7}","[8, 27, 38, 41]",87271383411,Sr3Nb1Co1O7
Sr3CoRuO7,mp-1218485,0.0,3.39416969,0.03867925708328546,"{38: 3, 27: 1, 44: 1, 8: 7}","[8, 27, 38, 44]",87271383441,Sr3Co1Ru1O7
Sr3TaCoO7,mp-1298696,1.0652000000000004,3.09134569,0.012477592291617157,"{38: 3, 73: 1, 27: 1, 8: 7}","[8, 27, 38, 73]",87271383731,Sr3Ta1Co1O7
Sr2GaCo2O7,mp-1046936,0.0,1.39842931,0.22882769112735346,"{38: 2, 31: 1, 27: 2, 8: 7}","[8, 27, 31, 38]",87272311382,Sr2Ga1Co2O7
Sr2YGaCo2O7,mp-1046565,0.1203000000000003,4.34186078,0.06595277783653763,"{38: 2, 39: 1, 31: 1, 27: 2, 8: 7}","[8, 27, 31, 38, 39]",87272311382391,Sr2Y1Ga1Co2O7
SrGd2Co2O7,mp-573240,0.0,3.38996214,0.06167756107637956,"{38: 1, 64: 2, 27: 2, 8: 7}","[8, 27, 38, 64]",87272381642,Sr1Gd2Co2O7
Sr2YCo2O7,mp-1047167,0.0,2.52160186,0.24440874434445092,"{38: 2, 39: 1, 27: 2, 8: 7}","[8, 27, 38, 39]",87272382391,Sr2Y1Co2O7
Sr2YTlCo2O7,mp-1048300,0.0,4.27538445,0.06164029379807623,"{38: 2, 39: 1, 81: 1, 27: 2, 8: 7}","[8, 27, 38, 39, 81]",87272382391811,Sr2Y1Tl1Co2O7
Sr2Y2Co2O7,mp-1047119,0.19070000000000054,4.54982231,0.17652742451922965,"{38: 2, 39: 2, 27: 2, 8: 7}","[8, 27, 38, 39]",87272382392,Sr2Y2Co2O7
Sr2CuGe2O7,mp-17265,0.0,2.42560332,0.05176208444443553,"{38: 2, 29: 1, 32: 2, 8: 7}","[8, 29, 32, 38]",87291322382,Sr2Cu1Ge2O7
SrCuAs2O7,mp-560187,0.0,2.45173451,0.028099375681833294,"{38: 1, 29: 1, 33: 2, 8: 7}","[8, 29, 33, 38]",87291332381,Sr1Cu1As2O7
SrNb2CuO7,mp-1147552,0.0,2.15188773,0.12144733363635041,"{38: 1, 41: 2, 29: 1, 8: 7}","[8, 29, 38, 41]",87291381412,Sr1Nb2Cu1O7
SrCuTe2O7,mp-1196110,0.23489999999999966,4.66373837,0.014192828636358179,"{38: 1, 29: 1, 52: 2, 8: 7}","[8, 29, 38, 52]",87291381522,Sr1Cu1Te2O7
Sr2YGaCu2O7,mp-556575,0.0,3.26325299,0.020295433413458852,"{38: 2, 39: 1, 31: 1, 29: 2, 8: 7}","[8, 29, 31, 38, 39]",87292311382391,Sr2Y1Ga1Cu2O7
Sr2LaGaCu2O7,mp-541332,0.0,4.10352557,0.013804739855768133,"{38: 2, 57: 1, 31: 1, 29: 2, 8: 7}","[8, 29, 31, 38, 57]",87292311382571,Sr2La1Ga1Cu2O7
Sr2PrGaCu2O7,mp-541331,0.0,3.31701982,0.010485854999999766,"{38: 2, 59: 1, 31: 1, 29: 2, 8: 7}","[8, 29, 31, 38, 59]",87292311382591,Sr2Pr1Ga1Cu2O7
Sr2NdGaCu2O7,mp-541323,0.0,3.34234425,0.009541872435898213,"{38: 2, 60: 1, 31: 1, 29: 2, 8: 7}","[8, 29, 31, 38, 60]",87292311382601,Sr2Nd1Ga1Cu2O7
Sr2SmGaCu2O7,mp-541330,0.0,3.32149726,0.009396030144236178,"{38: 2, 62: 1, 31: 1, 29: 2, 8: 7}","[8, 29, 31, 38, 62]",87292311382621,Sr2Sm1Ga1Cu2O7
Sr2EuGaCu2O7,mp-662575,0.0,2.89309625,0.05647066192308792,"{38: 2, 63: 1, 31: 1, 29: 2, 8: 7}","[8, 29, 31, 38, 63]",87292311382631,Sr2Eu1Ga1Cu2O7
Sr2TbGaCu2O7,mp-541327,0.0,3.43917893,0.01535474504808576,"{38: 2, 65: 1, 31: 1, 29: 2, 8: 7}","[8, 29, 31, 38, 65]",87292311382651,Sr2Tb1Ga1Cu2O7
Sr2DyGaCu2O7,mp-653925,0.0,3.50215211,0.0185575112500036,"{38: 2, 66: 1, 31: 1, 29: 2, 8: 7}","[8, 29, 31, 38, 66]",87292311382661,Sr2Dy1Ga1Cu2O7
Sr2HoGaCu2O7,mp-541325,0.0,3.50415442,0.021285654567305023,"{38: 2, 67: 1, 31: 1, 29: 2, 8: 7}","[8, 29, 31, 38, 67]",87292311382671,Sr2Ho1Ga1Cu2O7
Sr2ErGaCu2O7,mp-541324,0.0,3.52919784,0.023988310096155985,"{38: 2, 68: 1, 31: 1, 29: 2, 8: 7}","[8, 29, 31, 38, 68]",87292311382681,Sr2Er1Ga1Cu2O7
Sr2TmGaCu2O7,mp-1208765,0.0,3.45472983,0.027838646250001986,"{38: 2, 69: 1, 31: 1, 29: 2, 8: 7}","[8, 29, 31, 38, 69]",87292311382691,Sr2Tm1Ga1Cu2O7
BaSrYTlCu2O7,mp-1227606,0.0,3.91459382,0.014276210456742433,"{56: 1, 38: 1, 39: 1, 81: 1, 29: 2, 8: 7}","[8, 29, 38, 39, 56, 81]",87292381391561811,Ba1Sr1Y1Tl1Cu2O7
BaSrNdTlCu2O7,mp-1227445,0.0,3.64450982,0.0031950687500161834,"{56: 1, 38: 1, 60: 1, 81: 1, 29: 2, 8: 7}","[8, 29, 38, 56, 60, 81]",87292381561601811,Ba1Sr1Nd1Tl1Cu2O7
Sr2YCu2MoO7,mp-1043436,0.0,4.5902406,0.2429563768750036,"{38: 2, 39: 1, 29: 2, 42: 1, 8: 7}","[8, 29, 38, 39, 42]",87292382391421,Sr2Y1Cu2Mo1O7
Sr2YCu2AgO7,mp-1046311,0.0,3.0808127,0.05995984089742912,"{38: 2, 39: 1, 29: 2, 47: 1, 8: 7}","[8, 29, 38, 39, 47]",87292382391471,Sr2Y1Cu2Ag1O7
Sr2YCu2SnO7,mp-1046186,0.0,5.16435447,0.11337473629807615,"{38: 2, 39: 1, 29: 2, 50: 1, 8: 7}","[8, 29, 38, 39, 50]",87292382391501,Sr2Y1Cu2Sn1O7
Sr2YCu2SbO7,mp-1046275,0.0,4.5806098,0.17511012846153928,"{38: 2, 39: 1, 29: 2, 51: 1, 8: 7}","[8, 29, 38, 39, 51]",87292382391511,Sr2Y1Cu2Sb1O7
Sr2YTaCu2O7,mp-1046305,0.0,4.91755529,0.29255375115383586,"{38: 2, 39: 1, 73: 1, 29: 2, 8: 7}","[8, 29, 38, 39, 73]",87292382391731,Sr2Y1Ta1Cu2O7
Sr2YTlCu2O7,mp-1218486,0.0,4.15074017,0.01022063149038921,"{38: 2, 39: 1, 81: 1, 29: 2, 8: 7}","[8, 29, 38, 39, 81]",87292382391811,Sr2Y1Tl1Cu2O7
Sr2YCu2PbO7,mp-1208525,0.0,4.51113434,0.05286253876604441,"{38: 2, 39: 1, 29: 2, 82: 1, 8: 7}","[8, 29, 38, 39, 82]",87292382391821,Sr2Y1Cu2Pb1O7
Sr2YCu2BiO7,mp-1046226,0.0,4.38157302,0.04318351687499433,"{38: 2, 39: 1, 29: 2, 83: 1, 8: 7}","[8, 29, 38, 39, 83]",87292382391831,Sr2Y1Cu2Bi1O7
Sr2Y2Cu2O7,mp-1048239,0.0,3.83144075,0.09263685182691539,"{38: 2, 39: 2, 29: 2, 8: 7}","[8, 29, 38, 39]",87292382392,Sr2Y2Cu2O7
Sr2Cu2MoO7,mp-1043112,0.0,2.25615756,0.37026433458334207,"{38: 2, 29: 2, 42: 1, 8: 7}","[8, 29, 38, 42]",87292382421,Sr2Cu2Mo1O7
Sr2Cu2SnO7,mp-1046211,0.0,2.74967415,0.16383546088541667,"{38: 2, 29: 2, 50: 1, 8: 7}","[8, 29, 38, 50]",87292382501,Sr2Cu2Sn1O7
Sr2Cu2SbO7,mp-1046176,0.0,2.72093879,0.2870912675000019,"{38: 2, 29: 2, 51: 1, 8: 7}","[8, 29, 38, 51]",87292382511,Sr2Cu2Sb1O7
Sr2Cu2TeO7,mp-1046197,0.0,2.79544826,0.30754114406250377,"{38: 2, 29: 2, 52: 1, 8: 7}","[8, 29, 38, 52]",87292382521,Sr2Cu2Te1O7
Sr2PrTlCu2O7,mp-1208792,0.0,3.98498299,0.011396976953982119,"{38: 2, 59: 1, 81: 1, 29: 2, 8: 7}","[8, 29, 38, 59, 81]",87292382591811,Sr2Pr1Tl1Cu2O7
Sr2NdTlCu2O7,mp-1218759,0.0,3.87458542,0.004386282877745451,"{38: 2, 60: 1, 81: 1, 29: 2, 8: 7}","[8, 29, 38, 60, 81]",87292382601811,Sr2Nd1Tl1Cu2O7
Sr2GdCu2HgO7,mp-1209074,0.0,3.02377586,0.0809360194871811,"{38: 2, 64: 1, 29: 2, 80: 1, 8: 7}","[8, 29, 38, 64, 80]",87292382641801,Sr2Gd1Cu2Hg1O7
Sr2TaCu2O7,mp-1345328,0.0,2.0894121,0.31289866437499736,"{38: 2, 73: 1, 29: 2, 8: 7}","[8, 29, 38, 73]",87292382731,Sr2Ta1Cu2O7
Sr2Cu2WO7,mp-1043567,0.0,2.06390174,0.44004022958333433,"{38: 2, 29: 2, 74: 1, 8: 7}","[8, 29, 38, 74]",87292382741,Sr2Cu2W1O7
Sr2Cu2BiO7,mp-1046272,0.0,2.24387116,0.15112117942708458,"{38: 2, 29: 2, 83: 1, 8: 7}","[8, 29, 38, 83]",87292382831,Sr2Cu2Bi1O7
Sr4Cu2O7,mp-766217,1.2379000000000002,2.47863839,0.0,"{38: 4, 29: 2, 8: 7}","[8, 29, 38]",87292384,Sr4Cu2O7
BaSrYCu3PbO7,mp-1227647,0.0,4.02338125,0.029473121325894525,"{56: 1, 38: 1, 39: 1, 29: 3, 82: 1, 8: 7}","[8, 29, 38, 39, 56, 82]",87293381391561821,Ba1Sr1Y1Cu3Pb1O7
BaSrPrCu3O7,mp-1227458,0.0,3.41110761,0.03623222748398103,"{56: 1, 38: 1, 59: 1, 29: 3, 8: 7}","[8, 29, 38, 56, 59]",87293381561591,Ba1Sr1Pr1Cu3O7
BaSrNdCu3O7,mp-1227498,0.0,3.4053386,0.02995673253204867,"{56: 1, 38: 1, 60: 1, 29: 3, 8: 7}","[8, 29, 38, 56, 60]",87293381561601,Ba1Sr1Nd1Cu3O7
BaSrSmCu3O7,mp-1227474,0.0,3.34561255,0.03243922149039147,"{56: 1, 38: 1, 62: 1, 29: 3, 8: 7}","[8, 29, 38, 56, 62]",87293381561621,Ba1Sr1Sm1Cu3O7
BaSrEuCu3O7,mp-1227782,0.0,3.03964751,0.07727402403846462,"{56: 1, 38: 1, 63: 1, 29: 3, 8: 7}","[8, 29, 38, 56, 63]",87293381561631,Ba1Sr1Eu1Cu3O7
BaSrErCu3O7,mp-1227765,0.0,3.39336624,0.03688484057692509,"{56: 1, 38: 1, 68: 1, 29: 3, 8: 7}","[8, 29, 38, 56, 68]",87293381561681,Ba1Sr1Er1Cu3O7
Sr2YCu3O7,mp-985569,0.0,3.5913241,0.022307647868563762,"{38: 2, 39: 1, 29: 3, 8: 7}","[8, 29, 38, 39]",87293382391,Sr2Y1Cu3O7
Sr2ZnGe2O7,mp-17392,3.1157999999999997,1.02822061,0.0,"{38: 2, 30: 1, 32: 2, 8: 7}","[8, 30, 32, 38]",87301322382,Sr2Zn1Ge2O7
Sr2YGaSn2O7,mp-1048016,1.2198000000000002,4.42705248,0.24019002288461877,"{38: 2, 39: 1, 31: 1, 50: 2, 8: 7}","[8, 31, 38, 39, 50]",87311382391502,Sr2Y1Ga1Sn2O7
Sr2YGaW2O7,mp-1046772,0.5738000000000003,4.40858007,0.40901932155449217,"{38: 2, 39: 1, 31: 1, 74: 2, 8: 7}","[8, 31, 38, 39, 74]",87311382391742,Sr2Y1Ga1W2O7
Sr2GaMo2O7,mp-1046487,0.0,3.51573477,0.2309670079687418,"{38: 2, 31: 1, 42: 2, 8: 7}","[8, 31, 38, 42]",87311382422,Sr2Ga1Mo2O7
Sr2GaSn2O7,mp-1048064,0.41400000000000015,2.69092314,0.1825812331770873,"{38: 2, 31: 1, 50: 2, 8: 7}","[8, 31, 38, 50]",87311382502,Sr2Ga1Sn2O7
Sr2GaSb2O7,mp-1048045,0.0,4.35183675,0.12293788380335968,"{38: 2, 31: 1, 51: 2, 8: 7}","[8, 31, 38, 51]",87311382512,Sr2Ga1Sb2O7
Sr2GaW2O7,mp-1046767,0.8884000000000003,2.9423712,0.26389868432291497,"{38: 2, 31: 1, 74: 2, 8: 7}","[8, 31, 38, 74]",87311382742,Sr2Ga1W2O7
Sr2GaBi2O7,mp-1048048,0.0,2.50863085,0.09562275125000319,"{38: 2, 31: 1, 83: 2, 8: 7}","[8, 31, 38, 83]",87311382832,Sr2Ga1Bi2O7
Sr4Ga2O7,mp-1204230,2.9684000000000004,1.54250344,0.00692422860576869,"{38: 4, 31: 2, 8: 7}","[8, 31, 38]",87312384,Sr4Ga2O7
SrYGa3O7,mp-1217786,3.1775,0.97296366,0.02471902012500138,"{38: 1, 39: 1, 31: 3, 8: 7}","[8, 31, 38, 39]",87313381391,Sr1Y1Ga3O7
SrLaGa3O7,mp-1218197,3.2781,1.79042969,0.0,"{38: 1, 57: 1, 31: 3, 8: 7}","[8, 31, 38, 57]",87313381571,Sr1La1Ga3O7
SrPrGa3O7,mp-1218050,3.2388,0.96287427,0.0,"{38: 1, 59: 1, 31: 3, 8: 7}","[8, 31, 38, 59]",87313381591,Sr1Pr1Ga3O7
SrNdGa3O7,mp-1218128,3.268,0.9392434,0.0,"{38: 1, 60: 1, 31: 3, 8: 7}","[8, 31, 38, 60]",87313381601,Sr1Nd1Ga3O7
SrSmGa3O7,mp-1217789,3.2158999999999995,0.92192658,0.0059257657638873695,"{38: 1, 62: 1, 31: 3, 8: 7}","[8, 31, 38, 62]",87313381621,Sr1Sm1Ga3O7
SrGa4O7,mp-18253,2.4345999999999997,0.64245617,0.005575206458333426,"{38: 1, 31: 4, 8: 7}","[8, 31, 38]",87314381,Sr1Ga4O7
SrCdAs2O7,mp-1190367,2.4738,0.97876745,0.0,"{38: 1, 48: 1, 33: 2, 8: 7}","[8, 33, 38, 48]",87332381481,Sr1Cd1As2O7
SrHgAs2O7,mp-1190152,1.4788,1.2223586,0.01655668568181845,"{38: 1, 80: 1, 33: 2, 8: 7}","[8, 33, 38, 80]",87332381801,Sr1Hg1As2O7
Sr2As2O7,mp-1201749,3.2519,3.78975312,0.0001958150000369585,"{38: 2, 33: 2, 8: 7}","[8, 33, 38]",87332382,Sr2As2O7
SrBr2O7,mp-731710,0.5323,0.13122641,0.2014676441250014,"{38: 1, 35: 2, 8: 7}","[8, 35, 38]",87352381,Sr1Br2O7
SrI2O7,mp-731457,0.5311999999999999,1.55796457,0.2072645712500032,"{38: 1, 53: 2, 8: 7}","[8, 38, 53]",87381532,Sr1I2O7
SrPb2I6O7,mp-1201873,0.0,2.84385974,0.9355485346354175,"{38: 1, 82: 2, 53: 6, 8: 7}","[8, 38, 53, 82]",87381536822,Sr1Pb2I6O7
BaSrTa2O7,mp-559151,2.1929,1.90232739,0.0,"{56: 1, 38: 1, 73: 2, 8: 7}","[8, 38, 56, 73]",87381561732,Ba1Sr1Ta2O7
SrLa2WO7,mp-1196620,3.3594,4.15310856,0.0029443957575807644,"{38: 1, 57: 2, 74: 1, 8: 7}","[8, 38, 57, 74]",87381572741,Sr1La2W1O7
SrTa2O7,mp-1091368,0.0,-0.05810429,0.310008981249986,"{38: 1, 73: 2, 8: 7}","[8, 38, 73]",87381732,Sr1Ta2O7
Sr2YMo2O7,mp-1047328,0.0,3.54971488,0.38174620671874937,"{38: 2, 39: 1, 42: 2, 8: 7}","[8, 38, 39, 42]",87382391422,Sr2Y1Mo2O7
Sr2YSn2O7,mp-1048568,0.0,4.49552872,0.2887448684895757,"{38: 2, 39: 1, 50: 2, 8: 7}","[8, 38, 39, 50]",87382391502,Sr2Y1Sn2O7
Sr2YTlSn2O7,mp-1045690,0.0,5.79810347,0.3467606218108976,"{38: 2, 39: 1, 81: 1, 50: 2, 8: 7}","[8, 38, 39, 50, 81]",87382391502811,Sr2Y1Tl1Sn2O7
Sr2YSb2O7,mp-1048111,0.0,3.24127239,0.3476988018728946,"{38: 2, 39: 1, 51: 2, 8: 7}","[8, 38, 39, 51]",87382391512,Sr2Y1Sb2O7
Sr2YW2O7,mp-1048748,0.0,3.51822721,0.5044336123611064,"{38: 2, 39: 1, 74: 2, 8: 7}","[8, 38, 39, 74]",87382391742,Sr2Y1W2O7
Sr2YTlW2O7,mp-1045991,0.0,5.20562574,0.49583211461538745,"{38: 2, 39: 1, 81: 1, 74: 2, 8: 7}","[8, 38, 39, 74, 81]",87382391742811,Sr2Y1Tl1W2O7
Sr2YBi2O7,mp-1048315,0.0,2.28593505,0.267047292031247,"{38: 2, 39: 1, 83: 2, 8: 7}","[8, 38, 39, 83]",87382391832,Sr2Y1Bi2O7
Sr2Y2Sn2O7,mp-1046778,0.25870000000000015,4.97172824,0.26762572874999524,"{38: 2, 39: 2, 50: 2, 8: 7}","[8, 38, 39, 50]",87382392502,Sr2Y2Sn2O7
Sr2Y2W2O7,mp-1047238,0.21989999999999998,4.52184462,0.49608709528846084,"{38: 2, 39: 2, 74: 2, 8: 7}","[8, 38, 39, 74]",87382392742,Sr2Y2W2O7
Sr2Nb2O7,mp-3870,2.6843999999999997,1.45573385,0.0,"{38: 2, 41: 2, 8: 7}","[8, 38, 41]",87382412,Sr2Nb2O7
Sr2Sb2O7,mp-4103,1.3703999999999996,3.65151314,0.0,"{38: 2, 51: 2, 8: 7}","[8, 38, 51]",87382512,Sr2Sb2O7
Sr2Ta2O7,mp-13664,2.9546,1.67412989,0.0,"{38: 2, 73: 2, 8: 7}","[8, 38, 73]",87382732,Sr2Ta2O7
Sr2U2O7,mp-1218482,0.0,5.72361807,0.03876459097399021,"{38: 2, 92: 2, 8: 7}","[8, 38, 92]",87382922,Sr2U2O7
Sr3Zr2O7,mp-27690,3.0926,1.94403621,0.038820267916664264,"{38: 3, 40: 2, 8: 7}","[8, 38, 40]",87383402,Sr3Zr2O7
Sr3Mo2O7,mp-1208726,0.0,5.28343323,0.04025732916667035,"{38: 3, 42: 2, 8: 7}","[8, 38, 42]",87383422,Sr3Mo2O7
Sr3Ru2O7,mp-559909,0.0,4.17012261,0.0,"{38: 3, 44: 2, 8: 7}","[8, 38, 44]",87383442,Sr3Ru2O7
Sr3Rh2O7,mp-753070,0.0,3.30721732,0.009400350520829548,"{38: 3, 45: 2, 8: 7}","[8, 38, 45]",87383452,Sr3Rh2O7
Sr3Sn2O7,mp-17743,2.1652,3.40314645,0.0013492587499754904,"{38: 3, 50: 2, 8: 7}","[8, 38, 50]",87383502,Sr3Sn2O7
Sr3Hf2O7,mp-752691,3.8697000000000004,1.97716483,0.008783198333333075,"{38: 3, 72: 2, 8: 7}","[8, 38, 72]",87383722,Sr3Hf2O7
Sr3Ir2O7,mp-753375,0.0,4.44624087,0.017280907499999998,"{38: 3, 77: 2, 8: 7}","[8, 38, 77]",87383772,Sr3Ir2O7
Ba3Sr4O7,mp-760515,2.4311000000000003,1.82495871,0.038797038571428466,"{56: 3, 38: 4, 8: 7}","[8, 38, 56]",87384563,Ba3Sr4O7
Sr4BiO7,mp-1191534,0.18030000000000013,1.77720803,0.033843706666666584,"{38: 4, 83: 1, 8: 7}","[8, 38, 83]",87384831,Sr4Bi1O7
Sr32Mn32O79,mp-1246972,0.0,3.61363148,0.19533736407926305,"{38: 32, 25: 32, 8: 79}","[8, 25, 38]",87925323832,Sr32Mn32O79
Na2SrMg(PO4)2,mp-1197316,4.996499999999999,2.12055587,0.0,"{11: 2, 38: 1, 12: 1, 15: 2, 8: 8}","[8, 11, 12, 15, 38]",88112121152381,Na2Sr1Mg1P2O8
Na2SrMnV2O8,mp-1194593,2.6456999999999997,4.1924157,0.0,"{11: 2, 38: 1, 25: 1, 23: 2, 8: 8}","[8, 11, 23, 25, 38]",88112232251381,Na2Sr1Mn1V2O8
Na2SrV2CoO8,mp-1195067,1.3821999999999999,1.43358573,0.06300183794643122,"{11: 2, 38: 1, 23: 2, 27: 1, 8: 8}","[8, 11, 23, 27, 38]",88112232271381,Na2Sr1V2Co1O8