formula,material_id,band_gap,efermi,energy_above_hull,comp_atoms,sorted_keys_comp_atoms,comp_number,new_formula
BaSr2Tm6O12,mp-1227814,2.6054999999999997,4.33247895,0.015439560119041573,"{56: 1, 38: 2, 69: 6, 8: 12}","[8, 38, 56, 69]",812382561696,Ba1Sr2Tm6O12
Sr3Zr2Nb2O12,mp-1218510,2.0602,1.61430294,0.06596899476315343,"{38: 3, 40: 2, 41: 2, 8: 12}","[8, 38, 40, 41]",812383402412,Sr3Zr2Nb2O12
BaSr3Zr4O12,mp-1227775,3.4848000000000003,1.82792971,0.009410113124999953,"{56: 1, 38: 3, 40: 4, 8: 12}","[8, 38, 40, 56]",812383404561,Ba1Sr3Zr4O12
Sr3LaNb3O12,mp-1218518,3.1136000000000004,5.58595171,0.01314520460530133,"{38: 3, 57: 1, 41: 3, 8: 12}","[8, 38, 41, 57]",812383413571,Sr3La1Nb3O12
BaSr3(SnO3)4,mp-1227795,1.2843999999999998,4.09624943,0.02114545312500038,"{56: 1, 38: 3, 50: 4, 8: 12}","[8, 38, 50, 56]",812383504561,Ba1Sr3Sn4O12
BaSr3Lu2(BiO6)2,mp-1227748,1.8293999999999997,3.95861478,0.008590750125012647,"{56: 1, 38: 3, 71: 2, 83: 2, 8: 12}","[8, 38, 56, 71, 83]",812383561712832,Ba1Sr3Lu2Bi2O12
Sr3LaTa3O12,mp-1218499,3.2470999999999997,6.33641488,0.05007192500001345,"{38: 3, 57: 1, 73: 3, 8: 12}","[8, 38, 57, 73]",812383571733,Sr3La1Ta3O12
Sr3Lu2O12,mp-1208701,0.0815999999999999,-1.7084412,0.5499078170588199,"{38: 3, 71: 2, 8: 12}","[8, 38, 71]",812383712,Sr3Lu2O12
Sr4(RuO4)3,mp-766284,0.0,3.63708902,0.03163572901316769,"{38: 4, 44: 3, 8: 12}","[8, 38, 44]",812384443,Sr4Ru3O12
Sr5(RhO3)4,mp-1210337,0.0,3.62232962,0.005356268124996788,"{38: 5, 45: 4, 8: 12}","[8, 38, 45]",812385454,Sr5Rh4O12
Sr5(IO6)2,mp-1195789,2.3981,4.68270547,0.0,"{38: 5, 53: 2, 8: 12}","[8, 38, 53]",812385532,Sr5I2O12
Sr5(ReO6)2,mp-555428,2.1062000000000003,3.525209,0.0,"{38: 5, 75: 2, 8: 12}","[8, 38, 75]",812385752,Sr5Re2O12
Sr5(BiO4)3,mp-33444,0.0,2.82730709,0.0,"{38: 5, 83: 3, 8: 12}","[8, 38, 83]",812385833,Sr5Bi3O12
Sr6Ir2RuO12,mp-1218532,0.0,4.25854324,0.01933858821429446,"{38: 6, 77: 2, 44: 1, 8: 12}","[8, 38, 44, 77]",812386441772,Sr6Ir2Ru1O12
SrFe2Se2O,mp-1095252,0.0,2.49964988,0.027275539999999765,"{38: 1, 26: 2, 34: 2, 8: 1}","[8, 26, 34, 38]",81262342381,Sr1Fe2Se2O1
SrCoO,mp-1077403,0.0,-1.28119514,2.153979896666665,"{38: 1, 27: 1, 8: 1}","[8, 27, 38]",81271381,Sr1Co1O1
NaSr3GdP3O12F,mp-1204493,3.3081,1.18196706,0.0,"{11: 1, 38: 3, 64: 1, 15: 3, 8: 12, 9: 1}","[8, 9, 11, 15, 38, 64]",81291111153383641,Na1Sr3Gd1P3O12F1
Sr3Ca2P3O12F,mp-1218615,5.3141,6.73047061,0.00606885342857133,"{38: 3, 20: 2, 15: 3, 8: 12, 9: 1}","[8, 9, 15, 20, 38]",81291153202383,Sr3Ca2P3O12F1
SrCa4P3O12F,mp-1208696,5.498600000000001,7.22777038,0.004869192809525913,"{38: 1, 20: 4, 15: 3, 8: 12, 9: 1}","[8, 9, 15, 20, 38]",81291153204381,Sr1Ca4P3O12F1
Sr5P3O12F,mp-6669,5.2118,1.30723259,0.0,"{38: 5, 15: 3, 8: 12, 9: 1}","[8, 9, 15, 38]",81291153385,Sr5P3O12F1
Sr5V3O12F,mp-40674,3.7634999999999996,0.19887978,0.0,"{38: 5, 23: 3, 8: 12, 9: 1}","[8, 9, 23, 38]",81291233385,Sr5V3O12F1
Sr5Cr3O12F,mp-18859,1.0321,1.76890838,0.0,"{38: 5, 24: 3, 8: 12, 9: 1}","[8, 9, 24, 38]",81291243385,Sr5Cr3O12F1
Sr5As3O12F,mp-17777,3.9026000000000005,0.60117933,0.0,"{38: 5, 33: 3, 8: 12, 9: 1}","[8, 9, 33, 38]",81291333385,Sr5As3O12F1
Sr2Fe2P3(O6F)2,mp-1200426,0.0,0.74877014,0.0316209654761872,"{38: 2, 26: 2, 15: 3, 8: 12, 9: 2}","[8, 9, 15, 26, 38]",81292153262382,Sr2Fe2P3O12F2
Sr3Ta4(O6F)2,mp-756810,3.2944,1.24921333,0.01587298190474229,"{38: 3, 73: 4, 8: 12, 9: 2}","[8, 9, 38, 73]",81292383734,Sr3Ta4O12F2
Sr3La2Mn6(O2F)6,mp-1173236,0.0,3.52677172,0.246994876097677,"{38: 3, 57: 2, 25: 6, 8: 12, 9: 6}","[8, 9, 25, 38, 57]",81296256383572,Sr3La2Mn6O12F6
NaSr3CeP3O13,mp-1200716,0.16570000000000018,3.40712692,0.0663600645237965,"{11: 1, 38: 3, 58: 1, 15: 3, 8: 13}","[8, 11, 15, 38, 58]",813111153383581,Na1Sr3Ce1P3O13
Na2Sr2Nb4O13,mp-1221316,2.2348999999999997,1.46299501,0.10927271428570862,"{11: 2, 38: 2, 41: 4, 8: 13}","[8, 11, 38, 41]",813112382414,Na2Sr2Nb4O13
SrFe3P3O13,mp-557942,2.0126,1.66367334,0.0,"{38: 1, 26: 3, 15: 3, 8: 13}","[8, 15, 26, 38]",813153263381,Sr1Fe3P3O13
Sr2P3Pb3O13,mp-1209002,0.0,3.00410891,0.017051777539695223,"{38: 2, 15: 3, 82: 3, 8: 13}","[8, 15, 38, 82]",813153382823,Sr2P3Pb3O13
Sr4BiP3O13,mp-1218632,4.0924,2.0871213,0.0,"{38: 4, 83: 1, 15: 3, 8: 13}","[8, 15, 38, 83]",813153384831,Sr4Bi1P3O13
Sr5P3O13,mp-1208610,0.40680000000000005,1.5799664,0.020094214999994975,"{38: 5, 15: 3, 8: 13}","[8, 15, 38]",813153385,Sr5P3O13
Sr3P4O13,mp-31127,5.2118,1.29768315,0.0,"{38: 3, 15: 4, 8: 13}","[8, 15, 38]",813154383,Sr3P4O13
Sr6CaMn4O13,mp-1218618,1.3496000000000001,2.63446401,0.03226779013889125,"{38: 6, 20: 1, 25: 4, 8: 13}","[8, 20, 25, 38]",813201254386,Sr6Ca1Mn4O13
Sr3GeO,mp-30950,0.3188,3.56159972,0.0,"{38: 3, 32: 1, 8: 1}","[8, 32, 38]",81321383,Sr3Ge1O1
Sr3Ti5O13,mp-1197629,1.8854,-0.98398173,0.04210348638095418,"{38: 3, 22: 5, 8: 13}","[8, 22, 38]",813225383,Sr3Ti5O13
Sr5Ti5O13,mp-675134,0.0,5.500357,0.04795962811592602,"{38: 5, 22: 5, 8: 13}","[8, 22, 38]",813225385,Sr5Ti5O13
Sr2Ti6O13,mp-540640,0.0,5.20811879,0.01131021904759777,"{38: 2, 22: 6, 8: 13}","[8, 22, 38]",813226382,Sr2Ti6O13
Sr2V2Se3O13,mp-1199170,2.6037999999999997,2.98289433,0.0073919805000173255,"{38: 2, 23: 2, 34: 3, 8: 13}","[8, 23, 34, 38]",813232343382,Sr2V2Se3O13
Sr5V3O13,mp-1218652,0.5547,0.72858691,0.0,"{38: 5, 23: 3, 8: 13}","[8, 23, 38]",813233385,Sr5V3O13
Sr3Pr3Mn2Cu2O13,mp-1218561,0.0,4.09887073,0.04880132675000226,"{38: 3, 59: 3, 25: 2, 29: 2, 8: 13}","[8, 25, 29, 38, 59]",813252292383593,Sr3Pr3Mn2Cu2O13
Sr4Mn2Bi4O13,mp-1205023,0.0,3.44299464,0.0,"{38: 4, 25: 2, 83: 4, 8: 13}","[8, 25, 38, 83]",813252384834,Sr4Mn2Bi4O13
Sr7Mn4O13,mp-554474,0.9407999999999999,2.65312079,0.017477096958324445,"{38: 7, 25: 4, 8: 13}","[8, 25, 38]",813254387,Sr7Mn4O13
Sr4LaMn5O13,mp-1218501,0.0,3.86880593,0.04178631049274362,"{38: 4, 57: 1, 25: 5, 8: 13}","[8, 25, 38, 57]",813255384571,Sr4La1Mn5O13
Sr5Mn5O13,mp-603888,0.0,2.75253552,0.002048211014478163,"{38: 5, 25: 5, 8: 13}","[8, 25, 38]",813255385,Sr5Mn5O13
Sr2Y4Fe2Cu2O13,mp-1218649,0.5308000000000002,3.30472234,0.01788875516304511,"{38: 2, 39: 4, 26: 2, 29: 2, 8: 13}","[8, 26, 29, 38, 39]",813262292382394,Sr2Y4Fe2Cu2O13
Sr8Fe2Ru2O13,mp-1218567,0.0,3.25575538,0.09206196607999928,"{38: 8, 26: 2, 44: 2, 8: 13}","[8, 26, 38, 44]",813262388442,Sr8Fe2Ru2O13
Sr4Fe4O13,mp-1204222,0.0,2.21599379,0.3846803505952394,"{38: 4, 26: 4, 8: 13}","[8, 26, 38]",813264384,Sr4Fe4O13
Sr4Fe6O13,mp-505440,0.05779999999999985,3.90000524,0.050663799592391534,"{38: 4, 26: 6, 8: 13}","[8, 26, 38]",813266384,Sr4Fe6O13
Sr6Co4O13,mp-1218543,0.0,2.97537998,0.02873008768119245,"{38: 6, 27: 4, 8: 13}","[8, 27, 38]",813274386,Sr6Co4O13
Sr4Cu2Bi4O13,mp-1218715,0.0,2.87267393,0.11681929782609313,"{38: 4, 29: 2, 83: 4, 8: 13}","[8, 29, 38, 83]",813292384834,Sr4Cu2Bi4O13
Ba2Sr2Y2Cu6O13,mp-1228545,0.0,3.48376379,0.04273222076999961,"{56: 2, 38: 2, 39: 2, 29: 6, 8: 13}","[8, 29, 38, 39, 56]",813296382392562,Ba2Sr2Y2Cu6O13
Ba2Sr2La2Cu6O13,mp-1228705,0.0,4.16362314,0.028120487633320757,"{56: 2, 38: 2, 57: 2, 29: 6, 8: 13}","[8, 29, 38, 56, 57]",813296382562572,Ba2Sr2La2Cu6O13
Sr4As2O,mp-8299,1.1923999999999997,2.53445874,0.0,"{38: 4, 33: 2, 8: 1}","[8, 33, 38]",81332384,Sr4As2O1
Sr5As3O13,mp-1218606,0.41610000000000014,0.61721755,0.0,"{38: 5, 33: 3, 8: 13}","[8, 33, 38]",813333385,Sr5As3O13
Sr3TaAs3O,mp-18199,1.3209999999999997,2.21710263,0.0,"{38: 3, 73: 1, 33: 3, 8: 1}","[8, 33, 38, 73]",81333383731,Sr3Ta1As3O1
SrU2I2O13,mp-1197845,0.35189999999999966,2.66713228,0.1355671373611136,"{38: 1, 92: 2, 53: 2, 8: 13}","[8, 38, 53, 92]",813381532922,Sr1U2I2O13
Sr3Nb4O13,mp-756435,0.988,1.32385354,0.09860757349999894,"{38: 3, 41: 4, 8: 13}","[8, 38, 41]",813383414,Sr3Nb4O13
SrBr2O,mp-1189014,0.3961,0.15067937,0.6155804791666668,"{38: 1, 35: 2, 8: 1}","[8, 35, 38]",81352381,Sr1Br2O1
Sr4Br6O,mp-556049,4.2158,0.35779442,0.0,"{38: 4, 35: 6, 8: 1}","[8, 35, 38]",81356384,Sr4Br6O1
SrO,mp-2472,3.2748,1.66284593,0.0,"{38: 1, 8: 1}","[8, 38]",81381,Sr1O1
SrIO,mp-689810,0.06440000000000001,1.20649018,0.42371859124999744,"{38: 1, 53: 1, 8: 1}","[8, 38, 53]",81381531,Sr1I1O1
SrI2O,mp-1179200,1.9019,3.91242065,0.21987183927083187,"{38: 1, 53: 2, 8: 1}","[8, 38, 53]",81381532,Sr1I2O1
Sr2I2O,mp-551203,3.2812,1.74641074,0.0,"{38: 2, 53: 2, 8: 1}","[8, 38, 53]",81382532,Sr2I2O1
Sr3SnO,mp-7961,0.0,4.25806805,0.0,"{38: 3, 50: 1, 8: 1}","[8, 38, 50]",81383501,Sr3Sn1O1
Sr3PbO,mp-19944,0.0,4.28762171,0.0,"{38: 3, 82: 1, 8: 1}","[8, 38, 82]",81383821,Sr3Pb1O1
Sr4Sb2O,mp-755293,0.9799999999999995,3.29511309,0.0,"{38: 4, 51: 2, 8: 1}","[8, 38, 51]",81384512,Sr4Sb2O1
Sr4I6O,mp-29910,3.5855000000000006,2.15662265,0.0,"{38: 4, 53: 6, 8: 1}","[8, 38, 53]",81384536,Sr4I6O1
Sr4Bi2O,mp-1218382,0.6552000000000002,3.3491109,0.0,"{38: 4, 83: 2, 8: 1}","[8, 38, 83]",81384832,Sr4Bi2O1
Sr6MgMo3O14,mp-1218596,0.3548,4.4028532,0.02251872624999418,"{38: 6, 12: 1, 42: 3, 8: 14}","[8, 12, 38, 42]",814121386423,Sr6Mg1Mo3O14
Ba3SrMg2(Si2O7)2,mp-1228059,4.4968,1.2326145,0.0021037120833344858,"{56: 3, 38: 1, 12: 2, 14: 4, 8: 14}","[8, 12, 14, 38, 56]",814122144381563,Ba3Sr1Mg2Si4O14
Sr2Mg2V3O14,mp-734298,0.7637999999999999,0.68657665,0.41620040982143625,"{38: 2, 12: 2, 23: 3, 8: 14}","[8, 12, 23, 38]",814122233382,Sr2Mg2V3O14
BaSr2Mn2(Si2O7)2,mp-19122,0.0,3.96438471,0.002081643721760784,"{56: 1, 38: 2, 25: 2, 14: 4, 8: 14}","[8, 14, 25, 38, 56]",814144252382561,Ba1Sr2Mn2Si4O14
Sr4Nb3PO14,mp-1249497,1.9159999999999995,4.24676888,0.06463033863635204,"{38: 4, 41: 3, 15: 1, 8: 14}","[8, 15, 38, 41]",814151384413,Sr4Nb3P1O14
Sr4Ta3PO14,mp-1250155,1.7480000000000002,3.18683184,0.12696218249998203,"{38: 4, 73: 3, 15: 1, 8: 14}","[8, 15, 38, 73]",814151384733,Sr4Ta3P1O14
Sr2Zn3Te2(PO7)2,mp-1194862,3.608,2.05166029,0.0,"{38: 2, 30: 3, 52: 2, 15: 2, 8: 14}","[8, 15, 30, 38, 52]",814152303382522,Sr2Zn3Te2P2O14
Sr3Zn3Te(PO7)2,mp-1190181,2.9354000000000005,1.93006887,0.0,"{38: 3, 30: 3, 52: 1, 15: 2, 8: 14}","[8, 15, 30, 38, 52]",814152303383521,Sr3Zn3Te1P2O14
SrMo3(PO7)2,mp-505189,1.6176000000000004,3.85107621,0.015014163999953922,"{38: 1, 42: 3, 15: 2, 8: 14}","[8, 15, 38, 42]",814152381423,Sr1Mo3P2O14
Sr5P3O14,mp-1208724,0.12469999999999981,2.47998079,0.25800306732954503,"{38: 5, 15: 3, 8: 14}","[8, 15, 38]",814153385,Sr5P3O14
SrV2(P2O7)2,mp-505345,1.7714999999999996,2.37560224,0.0,"{38: 1, 23: 2, 15: 4, 8: 14}","[8, 15, 23, 38]",814154232381,Sr1V2P4O14
SrFe2(P2O7)2,mp-556067,2.0648,1.21883608,0.0,"{38: 1, 26: 2, 15: 4, 8: 14}","[8, 15, 26, 38]",814154262381,Sr1Fe2P4O14
SrFe3(P2O7)2,mp-18215,4.004300000000001,2.39312694,0.0,"{38: 1, 26: 3, 15: 4, 8: 14}","[8, 15, 26, 38]",814154263381,Sr1Fe3P4O14
SrCo3(P2O7)2,mp-1196626,3.0816999999999997,2.34201375,0.0,"{38: 1, 27: 3, 15: 4, 8: 14}","[8, 15, 27, 38]",814154273381,Sr1Co3P4O14
Sr4CaYFeCu4PbO14,mp-1218684,0.0,3.84059344,0.08235081983174464,"{38: 4, 20: 1, 39: 1, 26: 1, 29: 4, 82: 1, 8: 14}","[8, 20, 26, 29, 38, 39, 82]",814201261294384391821,Sr4Ca1Y1Fe1Cu4Pb1O14
Sr4CaYCo2(Cu2O7)2,mp-1173231,0.0,2.90534943,0.006451561810655093,"{38: 4, 20: 1, 39: 1, 27: 2, 29: 4, 8: 14}","[8, 20, 27, 29, 38, 39]",814201272294384391,Sr4Ca1Y1Co2Cu4O14
Sr4CaYGa2(Cu2O7)2,mp-1218546,0.0,2.78925142,0.02182713991186791,"{38: 4, 20: 1, 39: 1, 31: 2, 29: 4, 8: 14}","[8, 20, 29, 31, 38, 39]",814201294312384391,Sr4Ca1Y1Ga2Cu4O14
Sr4CaLaTl2(Cu2O7)2,mp-1218536,0.0,3.88354466,0.010781440288463173,"{38: 4, 20: 1, 57: 1, 81: 2, 29: 4, 8: 14}","[8, 20, 29, 38, 57, 81]",814201294384571812,Sr4Ca1La1Tl2Cu4O14
Sr4CaPr2Cu4HgO14,mp-1218589,0.0,3.13860441,0.07200807225361672,"{38: 4, 20: 1, 59: 2, 29: 4, 80: 1, 8: 14}","[8, 20, 29, 38, 59, 80]",814201294384592801,Sr4Ca1Pr2Cu4Hg1O14
Sr4Ca2TlCu4PbO14,mp-1173221,0.0,3.8256747,0.025706914182697105,"{38: 4, 20: 2, 81: 1, 29: 4, 82: 1, 8: 14}","[8, 20, 29, 38, 81, 82]",814202294384811821,Sr4Ca2Tl1Cu4Pb1O14
Sr3Ca3(Ru2O7)2,mp-1218638,0.0,4.2210592,0.008474164739581624,"{38: 3, 20: 3, 44: 4, 8: 14}","[8, 20, 38, 44]",814203383444,Sr3Ca3Ru4O14
Sr6Ti3FeO14,mp-1641158,0.0034999999999998366,3.35701334,0.002157961041659995,"{38: 6, 22: 3, 26: 1, 8: 14}","[8, 22, 26, 38]",814223261386,Sr6Ti3Fe1O14
Sr2V3Bi3O14,mp-1218693,2.9555,4.81981579,0.0,"{38: 2, 23: 3, 83: 3, 8: 14}","[8, 23, 38, 83]",814233382833,Sr2V3Bi3O14
Sr3V3(BiO7)2,mp-1208809,0.0,1.50145196,0.027642178125010908,"{38: 3, 23: 3, 83: 2, 8: 14}","[8, 23, 38, 83]",814233383832,Sr3V3Bi2O14
Sr3V4CdO14,mp-561266,3.1654999999999998,0.19202831,0.0006678089204648074,"{38: 3, 23: 4, 48: 1, 8: 14}","[8, 23, 38, 48]",814234383481,Sr3V4Cd1O14
Sr6Mn3FeO14,mp-1218555,0.0,2.49525509,0.015713909756926547,"{38: 6, 25: 3, 26: 1, 8: 14}","[8, 25, 26, 38]",814253261386,Sr6Mn3Fe1O14
Sr3La3Mn3RuO14,mp-1218547,0.0,5.87750635,0.14265508920832382,"{38: 3, 57: 3, 25: 3, 44: 1, 8: 14}","[8, 25, 38, 44, 57]",814253383441573,Sr3La3Mn3Ru1O14
Sr5Fe5O14,mp-1094111,0.0,2.70450854,0.015128824583307221,"{38: 5, 26: 5, 8: 14}","[8, 26, 38]",814265385,Sr5Fe5O14
Sr9Zn2(CuO7)2,mp-1377393,0.0,1.09590768,0.19225806351852093,"{38: 9, 30: 2, 29: 2, 8: 14}","[8, 29, 30, 38]",814292302389,Sr9Zn2Cu2O14
Sr9Zn3(CuO7)2,mp-1344825,0.0,1.28435775,0.11079634339284716,"{38: 9, 30: 3, 29: 2, 8: 14}","[8, 29, 30, 38]",814292303389,Sr9Zn3Cu2O14
Sr9Zn4(CuO7)2,mp-555609,1.7851,2.07688777,0.0,"{38: 9, 30: 4, 29: 2, 8: 14}","[8, 29, 30, 38]",814292304389,Sr9Zn4Cu2O14
Ba3SrNd2(Cu3O7)2,mp-1228286,0.0,3.28507669,0.026995627387814913,"{56: 3, 38: 1, 60: 2, 29: 6, 8: 14}","[8, 29, 38, 56, 60]",814296381563602,Ba3Sr1Nd2Cu6O14
Sr5(Ga3O7)2,mp-1020709,2.9142,0.95043207,0.011664929200000174,"{38: 5, 31: 6, 8: 14}","[8, 31, 38]",814316385,Sr5Ga6O14
SrNb4O14,mp-1218198,0.0,-0.77231986,0.34340929554512023,"{38: 1, 41: 4, 8: 14}","[8, 38, 41]",814381414,Sr1Nb4O14
SrNb8O14,mp-3790,0.0,4.44178824,0.0,"{38: 1, 41: 8, 8: 14}","[8, 38, 41]",814381418,Sr1Nb8O14
Sr3U(Te2O7)2,mp-555451,1.9828000000000006,2.14656677,0.0,"{38: 3, 92: 1, 52: 4, 8: 14}","[8, 38, 52, 92]",814383524921,Sr3U1Te4O14
BaSr4U3O14,mp-559427,2.0759000000000003,2.39218616,0.0,"{56: 1, 38: 4, 92: 3, 8: 14}","[8, 38, 56, 92]",814384561923,Ba1Sr4U3O14
Sr5W3O14,mp-779884,2.1914,1.75428535,0.021878321818181945,"{38: 5, 74: 3, 8: 14}","[8, 38, 74]",814385743,Sr5W3O14
Sr5U3O14,mp-29743,2.0422000000000002,4.43183012,0.005913156704545841,"{38: 5, 92: 3, 8: 14}","[8, 38, 92]",814385923,Sr5U3O14
NaSr3LaTi5O15,mp-40830,1.8642000000000003,3.7675062,0.0076147845900127464,"{11: 1, 38: 3, 57: 1, 22: 5, 8: 15}","[8, 11, 22, 38, 57]",815111225383571,Na1Sr3La1Ti5O15
NaSr3NdTi5O15,mp-703275,1.9141,3.24561962,0.014292820844461929,"{11: 1, 38: 3, 60: 1, 22: 5, 8: 15}","[8, 11, 22, 38, 60]",815111225383601,Na1Sr3Nd1Ti5O15
NaSr2Nb5O15,mp-1220952,2.3621,1.22442511,0.05288126934781445,"{11: 1, 38: 2, 41: 5, 8: 15}","[8, 11, 38, 41]",815111382415,Na1Sr2Nb5O15
Na2SrLa2Ti5O15,mp-695243,1.8584000000000005,6.03256631,0.016770002580015486,"{11: 2, 38: 1, 57: 2, 22: 5, 8: 15}","[8, 11, 22, 38, 57]",815112225381572,Na2Sr1La2Ti5O15
Na2SrNd2Ti5O15,mp-532802,2.1166,5.05640012,0.01077780038889209,"{11: 2, 38: 1, 60: 2, 22: 5, 8: 15}","[8, 11, 22, 38, 60]",815112225381602,Na2Sr1Nd2Ti5O15
Na4Sr(Ge2O5)3,mp-1210405,2.7036000000000002,3.96462167,0.006211192756413908,"{11: 4, 38: 1, 32: 6, 8: 15}","[8, 11, 32, 38]",815114326381,Na4Sr1Ge6O15
Na4SrTa5O15,mp-1221175,0.0,4.78418259,0.0,"{11: 4, 38: 1, 73: 5, 8: 15}","[8, 11, 38, 73]",815114381735,Na4Sr1Ta5O15
Sr6Y2Al4O15,mp-1020715,3.9869,2.06049264,0.007723411836419558,"{38: 6, 39: 2, 13: 4, 8: 15}","[8, 13, 38, 39]",815134386392,Sr6Y2Al4O15
Sr8Mn6Cu4S4O15,mp-1218690,0.0,4.20319078,0.03397015306165496,"{38: 8, 25: 6, 29: 4, 16: 4, 8: 15}","[8, 16, 25, 29, 38]",815164256294388,Sr8Mn6Cu4S4O15
Sr2Sb2(SO3)5,mp-1210102,0.3474999999999997,3.12879933,0.8929297183217662,"{38: 2, 51: 2, 16: 5, 8: 15}","[8, 16, 38, 51]",815165382512,Sr2Sb2S5O15
Ba4SrRe3ClO15,mp-1228531,2.4594,3.39784014,0.0016937456249994653,"{56: 4, 38: 1, 75: 3, 17: 1, 8: 15}","[8, 17, 38, 56, 75]",815171381564753,Ba4Sr1Re3Cl1O15
Ba3Sr2Re3ClO15,mp-1214717,2.5002000000000004,3.51188733,0.0,"{56: 3, 38: 2, 75: 3, 17: 1, 8: 15}","[8, 17, 38, 56, 75]",815171382563753,Ba3Sr2Re3Cl1O15
Sr5Re3ClO15,mp-667283,2.3364000000000003,3.51574256,0.0,"{38: 5, 75: 3, 17: 1, 8: 15}","[8, 17, 38, 75]",815171385753,Sr5Re3Cl1O15
Sr8Co6Cl4O15,mp-1218637,0.0,3.04066805,0.16976946073231858,"{38: 8, 27: 6, 17: 4, 8: 15}","[8, 17, 27, 38]",815174276388,Sr8Co6Cl4O15
KSr2Nb4FeO15,mp-1223530,0.0,1.20063122,0.09344204336957063,"{19: 1, 38: 2, 41: 4, 26: 1, 8: 15}","[8, 19, 26, 38, 41]",815191261382414,K1Sr2Nb4Fe1O15
KSr2Nb5O15,mp-1223455,2.2069,1.27930048,0.029368064782595127,"{19: 1, 38: 2, 41: 5, 8: 15}","[8, 19, 38, 41]",815191382415,K1Sr2Nb5O15
K2SrNb5O15,mp-1211970,0.0,0.64461362,0.027029405652166716,"{19: 2, 38: 1, 41: 5, 8: 15}","[8, 19, 38, 41]",815192381415,K2Sr1Nb5O15
Ba2Sr2CaTi5O15,mp-1228440,1.7732,3.14109848,0.022558247900002826,"{56: 2, 38: 2, 20: 1, 22: 5, 8: 15}","[8, 20, 22, 38, 56]",815201225382562,Ba2Sr2Ca1Ti5O15
Sr4CaCr5O15,mp-1218573,0.0,3.41474044,0.12499340577500284,"{38: 4, 20: 1, 24: 5, 8: 15}","[8, 20, 24, 38]",815201245384,Sr4Ca1Cr5O15
Sr3CaNdMn5O15,mp-1218772,0.0,3.2240006,0.024185854240858617,"{38: 3, 20: 1, 60: 1, 25: 5, 8: 15}","[8, 20, 25, 38, 60]",815201255383601,Sr3Ca1Nd1Mn5O15
Sr4Ca(FeO3)5,mp-1218523,0.0,2.79512767,0.011882899300000638,"{38: 4, 20: 1, 26: 5, 8: 15}","[8, 20, 26, 38]",815201265384,Sr4Ca1Fe5O15
Sr2Ca2NdMn5O15,mp-1219128,0.0,3.31991591,0.02982184925477771,"{38: 2, 20: 2, 60: 1, 25: 5, 8: 15}","[8, 20, 25, 38, 60]",815202255382601,Sr2Ca2Nd1Mn5O15
SrLa4TiCr4O15,mp-694977,1.6639999999999997,6.25319923,0.030490986700000278,"{38: 1, 57: 4, 22: 1, 24: 4, 8: 15}","[8, 22, 24, 38, 57]",815221244381574,Sr1La4Ti1Cr4O15
SrTiFe4Bi4O15,mp-1217795,1.8761,5.98794861,0.0647643620000018,"{38: 1, 22: 1, 26: 4, 83: 4, 8: 15}","[8, 22, 26, 38, 83]",815221264381834,Sr1Ti1Fe4Bi4O15
Sr3TiNb4O15,mp-1218661,2.0315000000000003,1.66242419,0.048172897173907714,"{38: 3, 22: 1, 41: 4, 8: 15}","[8, 22, 38, 41]",815221383414,Sr3Ti1Nb4O15
Sr3Ta4TiO15,mp-1218658,2.4700999999999995,4.38439023,0.03447006630436533,"{38: 3, 73: 4, 22: 1, 8: 15}","[8, 22, 38, 73]",815221383734,Sr3Ta4Ti1O15
Sr2La3Ti2Cr3O15,mp-706258,1.5872000000000002,5.75179278,0.024473746299999988,"{38: 2, 57: 3, 22: 2, 24: 3, 8: 15}","[8, 22, 24, 38, 57]",815222243382573,Sr2La3Ti2Cr3O15
Sr2LaTi2Nb3O15,mp-1218793,1.5888,2.81433235,0.06819966880433981,"{38: 2, 57: 1, 22: 2, 41: 3, 8: 15}","[8, 22, 38, 41, 57]",815222382413571,Sr2La1Ti2Nb3O15
Sr4Ti3Nb2O15,mp-1218495,1.6529000000000003,4.0029319,0.030192912083332857,"{38: 4, 22: 3, 41: 2, 8: 15}","[8, 22, 38, 41]",815223384412,Sr4Ti3Nb2O15
Sr5Ti4FeO15,mp-1218575,0.2471000000000001,3.11450253,0.012447446899999548,"{38: 5, 22: 4, 26: 1, 8: 15}","[8, 22, 26, 38]",815224261385,Sr5Ti4Fe1O15
SrTi4Bi4O15,mp-1217847,1.7965,4.4268175,0.003098810729170509,"{38: 1, 22: 4, 83: 4, 8: 15}","[8, 22, 38, 83]",815224381834,Sr1Ti4Bi4O15
Sr5ZrTi4O15,mp-1218534,1.9466999999999999,4.94894139,0.01678554109999908,"{38: 5, 40: 1, 22: 4, 8: 15}","[8, 22, 38, 40]",815224385401,Sr5Zr1Ti4O15
Sr2Ce2Ti5O15,mp-1218863,0.2724000000000002,5.59855471,0.04788912552082536,"{38: 2, 58: 2, 22: 5, 8: 15}","[8, 22, 38, 58]",815225382582,Sr2Ce2Ti5O15
BaSr4Ti5O15,mp-1227710,1.8047999999999997,4.96240241,0.0056118555999873365,"{56: 1, 38: 4, 22: 5, 8: 15}","[8, 22, 38, 56]",815225384561,Ba1Sr4Ti5O15
Sr4LaTi5O15,mp-1218562,0.0,6.2118885,0.0,"{38: 4, 57: 1, 22: 5, 8: 15}","[8, 22, 38, 57]",815225384571,Sr4La1Ti5O15
SrV10O15,mp-19509,0.9045000000000005,4.78403048,0.0034344838631898966,"{38: 1, 23: 10, 8: 15}","[8, 23, 38]",8152310381,Sr1V10O15
SrV6O15,mp-5206,0.015800000000000036,2.08511743,0.020813024602272634,"{38: 1, 23: 6, 8: 15}","[8, 23, 38]",815236381,Sr1V6O15
SrCr10O15,mp-19505,0.0,5.4481613,0.0707612158333415,"{38: 1, 24: 10, 8: 15}","[8, 24, 38]",8152410381,Sr1Cr10O15
Sr4LaCrFe4O15,mp-1218634,0.0,3.63536906,0.046097931347534704,"{38: 4, 57: 1, 24: 1, 26: 4, 8: 15}","[8, 24, 26, 38, 57]",815241264384571,Sr4La1Cr1Fe4O15