formula,material_id,band_gap,efermi,energy_above_hull,comp_atoms,sorted_keys_comp_atoms,comp_number,new_formula
Sr2MgCrO4,mp-2227890,1.3370000000000006,4.61621834,0.10499832229166195,"{38: 2, 12: 1, 24: 1, 8: 4}","[8, 12, 24, 38]",84121241382,Sr2Mg1Cr1O4
Sr2MgMnO4,mp-2228187,0.8882999999999992,4.56389282,0.11308204187499982,"{38: 2, 12: 1, 25: 1, 8: 4}","[8, 12, 25, 38]",84121251382,Sr2Mg1Mn1O4
Sr2MgFeO4,mp-2241597,1.4848,4.19421333,0.12027864312499403,"{38: 2, 12: 1, 26: 1, 8: 4}","[8, 12, 26, 38]",84121261382,Sr2Mg1Fe1O4
Sr2MgCoO4,mp-2223886,1.9610999999999998,1.94291935,0.20081594843749873,"{38: 2, 12: 1, 27: 1, 8: 4}","[8, 12, 27, 38]",84121271382,Sr2Mg1Co1O4
Sr2MgCuO4,mp-2226548,1.2349999999999994,3.84402156,0.35936085999999623,"{38: 2, 12: 1, 29: 1, 8: 4}","[8, 12, 29, 38]",84121291382,Sr2Mg1Cu1O4
Sr2Mg(CuO2)2,mp-2240714,0.0,4.06304301,0.22724895111109866,"{38: 2, 12: 1, 29: 2, 8: 4}","[8, 12, 29, 38]",84121292382,Sr2Mg1Cu2O4
Sr2MgMoO4,mp-2226766,0.0,3.7932111,0.6933059146874987,"{38: 2, 12: 1, 42: 1, 8: 4}","[8, 12, 38, 42]",84121382421,Sr2Mg1Mo1O4
Sr2Mg(AgO2)2,mp-2228172,1.849,1.46279702,0.1686192137037068,"{38: 2, 12: 1, 47: 2, 8: 4}","[8, 12, 38, 47]",84121382472,Sr2Mg1Ag2O4
Sr3MgO4,mp-1218374,2.9412999999999996,4.86509306,0.16861952624999876,"{38: 3, 12: 1, 8: 4}","[8, 12, 38]",84121383,Sr3Mg1O4
SrMg3O4,mp-1218196,2.1528,5.46127876,0.24905752124999747,"{38: 1, 12: 3, 8: 4}","[8, 12, 38]",84123381,Sr1Mg3O4
Sr16Fe16O41,mp-698682,0.0,3.13662655,0.11182983483559195,"{38: 16, 26: 16, 8: 41}","[8, 26, 38]",84126163816,Sr16Fe16O41
Sr19Cu19O41,mp-1173436,0.0,3.09967052,0.011089478354413984,"{38: 19, 29: 19, 8: 41}","[8, 29, 38]",84129193819,Sr19Cu19O41
KSrPO4,mp-17975,5.0889,1.4326787,0.0,"{19: 1, 38: 1, 15: 1, 8: 4}","[8, 15, 19, 38]",84151191381,K1Sr1P1O4
SrPO4,mp-732156,0.0,0.35023855,0.10529218114582584,"{38: 1, 15: 1, 8: 4}","[8, 15, 38]",84151381,Sr1P1O4
Sr2PIO4,mp-1202046,4.3094,1.2517166,0.0,"{38: 2, 15: 1, 53: 1, 8: 4}","[8, 15, 38, 53]",84151382531,Sr2P1I1O4
SrSO4,mp-5285,5.9178,1.56816395,0.0,"{38: 1, 16: 1, 8: 4}","[8, 16, 38]",84161381,Sr1S1O4
Sr4CaMn2Cu3(SO)4,mp-1234487,0.0,4.83553631,0.18629810649305512,"{38: 4, 20: 1, 25: 2, 29: 3, 16: 4, 8: 4}","[8, 16, 20, 25, 29, 38]",84164201252293384,Sr4Ca1Mn2Cu3S4O4
Sr4Mn2Cu3(SO)4,mp-555856,0.0,4.45547519,0.03755045463235174,"{38: 4, 25: 2, 29: 3, 16: 4, 8: 4}","[8, 16, 25, 29, 38]",84164252293384,Sr4Mn2Cu3S4O4
Ba3SrCo2Cu4(SO)4,mp-1228462,0.0,4.63968947,0.19601185444444447,"{56: 3, 38: 1, 27: 2, 29: 4, 16: 4, 8: 4}","[8, 16, 27, 29, 38, 56]",84164272294381563,Ba3Sr1Co2Cu4S4O4
BaSr3Co2Cu4(SO)4,mp-1227981,0.0,5.79381824,0.13165806277777836,"{56: 1, 38: 3, 27: 2, 29: 4, 16: 4, 8: 4}","[8, 16, 27, 29, 38, 56]",84164272294383561,Ba1Sr3Co2Cu4S4O4
Sr2VClO4,mp-558952,3.7633,0.21323069,0.0,"{38: 2, 23: 1, 17: 1, 8: 4}","[8, 17, 23, 38]",84171231382,Sr2V1Cl1O4
Sr2CrClO4,mp-693892,0.0,0.12551746,0.0,"{38: 2, 24: 1, 17: 1, 8: 4}","[8, 17, 24, 38]",84171241382,Sr2Cr1Cl1O4
Sr3FeCo(ClO2)2,mp-1218403,0.6061000000000001,3.89799046,0.08468759568181827,"{38: 3, 26: 1, 27: 1, 17: 2, 8: 4}","[8, 17, 26, 27, 38]",84172261271383,Sr3Fe1Co1Cl2O4
Sr3Fe2(ClO2)2,mp-1103214,0.0,3.65322937,0.04318081892044834,"{38: 3, 26: 2, 17: 2, 8: 4}","[8, 17, 26, 38]",84172262383,Sr3Fe2Cl2O4
Sr3Co2(ClO2)2,mp-1101806,0.0,3.1709564,0.03183519249999911,"{38: 3, 27: 2, 17: 2, 8: 4}","[8, 17, 27, 38]",84172272383,Sr3Co2Cl2O4
Sr2Cu3(ClO2)2,mp-547517,0.0,2.8583725,0.01538149363636343,"{38: 2, 29: 3, 17: 2, 8: 4}","[8, 17, 29, 38]",84172293382,Sr2Cu3Cl2O4
Sr(ClO2)2,mp-555474,2.4277,1.79395052,0.21756849476190077,"{38: 1, 17: 2, 8: 4}","[8, 17, 38]",84172381,Sr1Cl2O4
SrBi3Cl3O4,mp-1218398,0.050200000000000244,4.26541123,0.028656371363634747,"{38: 1, 83: 3, 17: 3, 8: 4}","[8, 17, 38, 83]",84173381833,Sr1Bi3Cl3O4
KSrVO4,mp-556966,3.8445,0.27710305,0.0,"{19: 1, 38: 1, 23: 1, 8: 4}","[8, 19, 23, 38]",84191231381,K1Sr1V1O4
SrCaMnO4,mp-1218332,0.0,2.55531577,0.025489606836734957,"{38: 1, 20: 1, 25: 1, 8: 4}","[8, 20, 25, 38]",84201251381,Sr1Ca1Mn1O4
SrCa(CuO2)2,mp-1218417,0.0,3.68533599,0.026255233958332624,"{38: 1, 20: 1, 29: 2, 8: 4}","[8, 20, 29, 38]",84201292381,Sr1Ca1Cu2O4
SrCaPbO4,mp-1218368,1.8975999999999997,2.63301895,0.007981694642857917,"{38: 1, 20: 1, 82: 1, 8: 4}","[8, 20, 38, 82]",84201381821,Sr1Ca1Pb1O4
Sr3CaO4,mp-1079940,3.2944999999999998,1.8027165,0.03380375249999901,"{38: 3, 20: 1, 8: 4}","[8, 20, 38]",84201383,Sr3Ca1O4
SrCa3O4,mp-978844,3.3723000000000005,2.20325662,0.040153662499999854,"{38: 1, 20: 3, 8: 4}","[8, 20, 38]",84203381,Sr1Ca3O4
SrLaScO4,mp-1218207,3.6344,3.71017186,0.030179872857134526,"{38: 1, 57: 1, 21: 1, 8: 4}","[8, 21, 38, 57]",84211381571,Sr1La1Sc1O4
SrCeScO4,mp-1218453,0.06159999999999943,6.58378196,0.05609698491078241,"{38: 1, 58: 1, 21: 1, 8: 4}","[8, 21, 38, 58]",84211381581,Sr1Ce1Sc1O4
SrPrScO4,mp-1218030,3.7047999999999996,2.28386443,0.038727763928569914,"{38: 1, 59: 1, 21: 1, 8: 4}","[8, 21, 38, 59]",84211381591,Sr1Pr1Sc1O4
SrNdScO4,mp-1218040,3.7417000000000002,2.2363796,0.043579026785716124,"{38: 1, 60: 1, 21: 1, 8: 4}","[8, 21, 38, 60]",84211381601,Sr1Nd1Sc1O4
SrSmScO4,mp-1217782,3.7388,2.07557242,0.060263438124994906,"{38: 1, 62: 1, 21: 1, 8: 4}","[8, 21, 38, 62]",84211381621,Sr1Sm1Sc1O4
SrEuScO4,mp-1218285,0.0,2.15324811,0.1991156151785738,"{38: 1, 63: 1, 21: 1, 8: 4}","[8, 21, 38, 63]",84211381631,Sr1Eu1Sc1O4
SrSc2O4,mp-770771,3.4364,2.74336461,0.0,"{38: 1, 21: 2, 8: 4}","[8, 21, 38]",84212381,Sr1Sc2O4
SrTiCuO4,mp-1147546,0.0,3.67829854,0.1349733964285722,"{38: 1, 22: 1, 29: 1, 8: 4}","[8, 22, 29, 38]",84221291381,Sr1Ti1Cu1O4
Sr2TiO4,mp-5532,1.9141999999999997,2.51677959,0.0,"{38: 2, 22: 1, 8: 4}","[8, 22, 38]",84221382,Sr2Ti1O4
Sr2VBrO4,mp-1208766,3.2847,3.90655162,0.0,"{38: 2, 23: 1, 35: 1, 8: 4}","[8, 23, 35, 38]",84231351382,Sr2V1Br1O4
SrLaVO4,mp-1272417,1.7713,5.3756798,0.0,"{38: 1, 57: 1, 23: 1, 8: 4}","[8, 23, 38, 57]",84231381571,Sr1La1V1O4
SrCeVO4,mp-1218325,0.0,6.57860262,0.1742177744442035,"{38: 1, 58: 1, 23: 1, 8: 4}","[8, 23, 38, 58]",84231381581,Sr1Ce1V1O4
SrPrVO4,mp-1217973,0.06890000000000018,4.69507309,0.010139728928569625,"{38: 1, 59: 1, 23: 1, 8: 4}","[8, 23, 38, 59]",84231381591,Sr1Pr1V1O4
SrNdVO4,mp-1217977,0.0,5.46346138,0.017051109642856943,"{38: 1, 60: 1, 23: 1, 8: 4}","[8, 23, 38, 60]",84231381601,Sr1Nd1V1O4
SrTlVO4,mp-560156,3.2379000000000002,1.69694907,0.0,"{38: 1, 81: 1, 23: 1, 8: 4}","[8, 23, 38, 81]",84231381811,Sr1Tl1V1O4
Sr2VO4,mp-18972,0.0,3.69167473,0.025702391999993246,"{38: 2, 23: 1, 8: 4}","[8, 23, 38]",84231382,Sr2V1O4
SrCrO4,mp-510607,2.6186000000000003,0.03428546,0.0,"{38: 1, 24: 1, 8: 4}","[8, 24, 38]",84241381,Sr1Cr1O4
SrLaCrO4,mp-1218189,2.0115999999999996,5.23239903,0.0,"{38: 1, 57: 1, 24: 1, 8: 4}","[8, 24, 38, 57]",84241381571,Sr1La1Cr1O4
SrNdCrO4,mp-1218137,2.1432,3.61365553,0.004896030178564104,"{38: 1, 60: 1, 24: 1, 8: 4}","[8, 24, 38, 60]",84241381601,Sr1Nd1Cr1O4
Sr2CrO4,mp-19514,1.6753,4.28397822,0.0,"{38: 2, 24: 1, 8: 4}","[8, 24, 38]",84241382,Sr2Cr1O4
SrCr2O4,mp-540583,0.0,3.96724225,0.0,"{38: 1, 24: 2, 8: 4}","[8, 24, 38]",84242381,Sr1Cr2O4
SrLaMnO4,mp-1218156,0.0,5.43819806,0.0898882560374119,"{38: 1, 57: 1, 25: 1, 8: 4}","[8, 25, 38, 57]",84251381571,Sr1La1Mn1O4
SrPrMnO4,mp-1217972,0.0,4.6086824,0.01893346208333213,"{38: 1, 59: 1, 25: 1, 8: 4}","[8, 25, 38, 59]",84251381591,Sr1Pr1Mn1O4
SrNdMnO4,mp-1217982,0.0,4.58246091,0.027483499620528207,"{38: 1, 60: 1, 25: 1, 8: 4}","[8, 25, 38, 60]",84251381601,Sr1Nd1Mn1O4
Sr2MnO4,mp-18978,0.0,2.30434399,0.00657690035713987,"{38: 2, 25: 1, 8: 4}","[8, 25, 38]",84251382,Sr2Mn1O4
Sr4Mn2Cu3(SeO)4,mp-1218497,0.0,3.98922395,0.0021255169117671002,"{38: 4, 25: 2, 29: 3, 34: 4, 8: 4}","[8, 25, 29, 34, 38]",84252293344384,Sr4Mn2Cu3Se4O4
Sr2Mn2SeO4,mp-1201675,1.8317,1.92696847,0.0,"{38: 2, 25: 2, 34: 1, 8: 4}","[8, 25, 34, 38]",84252341382,Sr2Mn2Se1O4
SrLaFeO4,mp-1218154,0.5591999999999997,5.76152369,0.016935943928575448,"{38: 1, 57: 1, 26: 1, 8: 4}","[8, 26, 38, 57]",84261381571,Sr1La1Fe1O4
SrNdFeO4,mp-1218098,0.5392000000000001,4.24010302,0.02727850809525112,"{38: 1, 60: 1, 26: 1, 8: 4}","[8, 26, 38, 60]",84261381601,Sr1Nd1Fe1O4
Sr2FeO4,mp-19102,0.0,2.5102412,0.0,"{38: 2, 26: 1, 8: 4}","[8, 26, 38]",84261382,Sr2Fe1O4
Sr(FeO2)2,mp-21926,1.6125,1.32604872,0.0,"{38: 1, 26: 2, 8: 4}","[8, 26, 38]",84262381,Sr1Fe2O4
SrNd3Fe4(AsO)4,mp-1218216,0.0,3.27518694,0.2957599582291639,"{38: 1, 60: 3, 26: 4, 33: 4, 8: 4}","[8, 26, 33, 38, 60]",84264334381603,Sr1Nd3Fe4As4O4
SrYCoO4,mp-1274913,0.0,2.98085524,0.06418182991073351,"{38: 1, 39: 1, 27: 1, 8: 4}","[8, 27, 38, 39]",84271381391,Sr1Y1Co1O4
SrLaCoO4,mp-1274449,1.3403,4.72378166,0.0,"{38: 1, 57: 1, 27: 1, 8: 4}","[8, 27, 38, 57]",84271381571,Sr1La1Co1O4
SrNdCoO4,mp-1218151,0.6907000000000001,3.01256254,0.019228884821447245,"{38: 1, 60: 1, 27: 1, 8: 4}","[8, 27, 38, 60]",84271381601,Sr1Nd1Co1O4
SrSmCoO4,mp-1217761,0.7280000000000002,2.8632983,0.03802477151787631,"{38: 1, 62: 1, 27: 1, 8: 4}","[8, 27, 38, 62]",84271381621,Sr1Sm1Co1O4
SrEuCoO4,mp-1218291,0.0,2.93808496,0.13191526357143424,"{38: 1, 63: 1, 27: 1, 8: 4}","[8, 27, 38, 63]",84271381631,Sr1Eu1Co1O4
SrGdCoO4,mp-1218232,0.8864999999999998,3.09741107,0.044954066785733104,"{38: 1, 64: 1, 27: 1, 8: 4}","[8, 27, 38, 64]",84271381641,Sr1Gd1Co1O4
SrDyCoO4,mp-1218284,0.9849999999999999,2.91808626,0.11601655000001898,"{38: 1, 66: 1, 27: 1, 8: 4}","[8, 27, 38, 66]",84271381661,Sr1Dy1Co1O4
Sr2CoO4,mp-1275355,0.7733999999999996,2.29698724,0.0,"{38: 2, 27: 1, 8: 4}","[8, 27, 38]",84271382,Sr2Co1O4
SrLaCuO4,mp-1218202,0.0,5.28168489,0.011448874687486565,"{38: 1, 57: 1, 29: 1, 8: 4}","[8, 29, 38, 57]",84291381571,Sr1La1Cu1O4
SrCuBiO4,mp-1342094,0.0,3.90974105,0.18276135857138964,"{38: 1, 29: 1, 83: 1, 8: 4}","[8, 29, 38, 83]",84291381831,Sr1Cu1Bi1O4
Sr2CuO4,mp-754322,0.0,2.14588163,0.016105481428571267,"{38: 2, 29: 1, 8: 4}","[8, 29, 38]",84291382,Sr2Cu1O4
BaSr(CuO2)2,mp-1206538,0.0,2.772641,0.04510405937500028,"{56: 1, 38: 1, 29: 2, 8: 4}","[8, 29, 38, 56]",84292381561,Ba1Sr1Cu2O4
Sr2Cu3(BrO2)2,mp-23133,0.0,2.48802699,0.006606137272711088,"{38: 2, 29: 3, 35: 2, 8: 4}","[8, 29, 35, 38]",84293352382,Sr2Cu3Br2O4
Sr2Cu3(IO2)2,mp-549580,0.0,3.02498432,0.37267224272726995,"{38: 2, 29: 3, 53: 2, 8: 4}","[8, 29, 38, 53]",84293382532,Sr2Cu3I2O4
SrLaGaO4,mp-1218152,3.3365,4.30511783,0.0508351862500005,"{38: 1, 57: 1, 31: 1, 8: 4}","[8, 31, 38, 57]",84311381571,Sr1La1Ga1O4
SrNdGaO4,mp-1218095,3.3314000000000004,2.74962931,0.05933496374999958,"{38: 1, 60: 1, 31: 1, 8: 4}","[8, 31, 38, 60]",84311381601,Sr1Nd1Ga1O4
Sr(GaO2)2,mp-4851,2.8011,0.50560362,0.0,"{38: 1, 31: 2, 8: 4}","[8, 31, 38]",84312381,Sr1Ga2O4
Sr2La14Mg4Ga12O43,mp-1173283,0.0,7.57101004,0.15997295527143063,"{38: 2, 57: 14, 12: 4, 31: 12, 8: 43}","[8, 12, 31, 38, 57]",84312431123825714,Sr2La14Mg4Ga12O43
SrGeO4,mp-1208652,0.6984999999999999,0.69802839,0.2817398840277754,"{38: 1, 32: 1, 8: 4}","[8, 32, 38]",84321381,Sr1Ge1O4
SrGePbO4,mp-1192743,3.4863,2.66331742,0.0,"{38: 1, 32: 1, 82: 1, 8: 4}","[8, 32, 38, 82]",84321381821,Sr1Ge1Pb1O4
Sr2GeO4,mp-557311,3.566,1.33653996,0.0,"{38: 2, 32: 1, 8: 4}","[8, 32, 38]",84321382,Sr2Ge1O4
Sr16Fe16O43,mp-1173632,0.0,2.96152068,0.04807020713335852,"{38: 16, 26: 16, 8: 43}","[8, 26, 38]",84326163816,Sr16Fe16O43
Sr12Y4Fe8Co8O43,mp-1173376,0.3718999999999997,3.23271674,0.34147618026668436,"{38: 12, 39: 4, 26: 8, 27: 8, 8: 43}","[8, 26, 27, 38, 39]",8432682783812394,Sr12Y4Fe8Co8O43
Sr21Co14O43,mp-758139,0.0,2.84028015,0.007920368418827373,"{38: 21, 27: 14, 8: 43}","[8, 27, 38]",84327143821,Sr21Co14O43
SrAsO4,mp-1196121,0.007100000000000002,-0.0238648,0.15542093812500646,"{38: 1, 33: 1, 8: 4}","[8, 33, 38]",84331381,Sr1As1O4
Sr24Ta8O43,mp-675061,0.0,4.37897054,0.052382856187556115,"{38: 24, 73: 8, 8: 43}","[8, 38, 73]",8433824738,Sr24Ta8O43
SrSeO4,mp-4092,3.5358,0.56288783,0.0,"{38: 1, 34: 1, 8: 4}","[8, 34, 38]",84341381,Sr1Se1O4
SrBi3Br3O4,mp-1218405,0.025100000000000122,3.64924993,0.045074319090908865,"{38: 1, 83: 3, 35: 3, 8: 4}","[8, 35, 38, 83]",84353381833,Sr1Bi3Br3O4
SrO4,mp-1208665,0.3003999999999998,-3.31474282,0.8826880564999975,"{38: 1, 8: 4}","[8, 38]",84381,Sr1O4
SrY2O4,mp-17275,3.7035,2.05962814,0.0,"{38: 1, 39: 2, 8: 4}","[8, 38, 39]",84381392,Sr1Y2O4
SrNb2O4,mp-768342,1.1539000000000001,5.10565168,0.0,"{38: 1, 41: 2, 8: 4}","[8, 38, 41]",84381412,Sr1Nb2O4
SrMoO4,mp-18834,3.8445,0.78605343,0.0,"{38: 1, 42: 1, 8: 4}","[8, 38, 42]",84381421,Sr1Mo1O4
Sr(RhO2)2,mp-766173,1.3203999999999998,3.79525884,0.0,"{38: 1, 45: 2, 8: 4}","[8, 38, 45]",84381452,Sr1Rh2O4
SrPd3O4,mp-7561,0.0,3.40922497,0.0,"{38: 1, 46: 3, 8: 4}","[8, 38, 46]",84381463,Sr1Pd3O4
Sr(Ag3O2)2,mp-27352,0.8503000000000003,1.4385158,0.0,"{38: 1, 47: 6, 8: 4}","[8, 38, 47]",84381476,Sr1Ag6O4
SrLaInO4,mp-1218221,3.2260999999999997,7.30099991,0.04348507446428673,"{38: 1, 57: 1, 49: 1, 8: 4}","[8, 38, 49, 57]",84381491571,Sr1La1In1O4
SrPrInO4,mp-1218169,3.2238,5.87598882,0.036240958125000056,"{38: 1, 59: 1, 49: 1, 8: 4}","[8, 38, 49, 59]",84381491591,Sr1Pr1In1O4
SrIn2O4,mp-540688,1.8079999999999998,4.40422506,0.0,"{38: 1, 49: 2, 8: 4}","[8, 38, 49]",84381492,Sr1In2O4
SrTeO4,mp-4274,2.2486000000000006,2.07390157,0.0,"{38: 1, 52: 1, 8: 4}","[8, 38, 52]",84381521,Sr1Te1O4
SrBi3I3O4,mp-1218434,0.0,4.48995143,0.05545317954545492,"{38: 1, 83: 3, 53: 3, 8: 4}","[8, 38, 53, 83]",84381533833,Sr1Bi3I3O4
Ba3SrO4,mp-1079882,2.1745,1.79383211,0.036794476249999875,"{56: 3, 38: 1, 8: 4}","[8, 38, 56]",84381563,Ba3Sr1O4
SrLa2O4,mp-754211,3.7880000000000003,3.15129442,0.04750955660713885,"{38: 1, 57: 2, 8: 4}","[8, 38, 57]",84381572,Sr1La2O4
SrCe2O4,mp-770812,0.0,7.34929431,0.037877695178572424,"{38: 1, 58: 2, 8: 4}","[8, 38, 58]",84381582,Sr1Ce2O4
SrPr2O4,mp-29605,3.3444000000000003,2.06458802,0.046225165535712875,"{38: 1, 59: 2, 8: 4}","[8, 38, 59]",84381592,Sr1Pr2O4
SrNd2O4,mp-753418,3.6022,0.9433049,0.032450062499997046,"{38: 1, 60: 2, 8: 4}","[8, 38, 60]",84381602,Sr1Nd2O4
SrSm2O4,mp-754942,3.8076,0.70525778,0.02010662589285417,"{38: 1, 62: 2, 8: 4}","[8, 38, 62]",84381622,Sr1Sm2O4
SrGd2O4,mp-3523,3.0774,2.10990604,0.0,"{38: 1, 64: 2, 8: 4}","[8, 38, 64]",84381642,Sr1Gd2O4
SrTb2O4,mp-18042,3.6672000000000002,2.01591681,0.0,"{38: 1, 65: 2, 8: 4}","[8, 38, 65]",84381652,Sr1Tb2O4
SrDy2O4,mp-556075,3.6941999999999995,1.96686539,0.0,"{38: 1, 66: 2, 8: 4}","[8, 38, 66]",84381662,Sr1Dy2O4
SrHo2O4,mp-559385,3.7343,1.9484491,0.0,"{38: 1, 67: 2, 8: 4}","[8, 38, 67]",84381672,Sr1Ho2O4
SrEr2O4,mp-560445,3.7664999999999997,1.93207415,0.0,"{38: 1, 68: 2, 8: 4}","[8, 38, 68]",84381682,Sr1Er2O4
SrTm2O4,mp-3446,3.8156,1.90576355,0.0,"{38: 1, 69: 2, 8: 4}","[8, 38, 69]",84381692,Sr1Tm2O4
SrLu2O4,mp-772820,3.8741000000000003,1.85593405,0.0,"{38: 1, 71: 2, 8: 4}","[8, 38, 71]",84381712,Sr1Lu2O4
SrWO4,mp-19163,4.6571,0.60484617,0.0,"{38: 1, 74: 1, 8: 4}","[8, 38, 74]",84381741,Sr1W1O4
SrPt3O4,mp-756374,0.0,5.69919337,0.0,"{38: 1, 78: 3, 8: 4}","[8, 38, 78]",84381783,Sr1Pt3O4
Sr(AuO2)2,mp-9298,1.5463,2.26471288,0.0,"{38: 1, 79: 2, 8: 4}","[8, 38, 79]",84381792,Sr1Au2O4
SrTl2O4,mp-4655,0.07929999999999993,3.86172649,0.0,"{38: 1, 81: 2, 8: 4}","[8, 38, 81]",84381812,Sr1Tl2O4
Sr(BiO2)2,mp-29048,2.5671999999999997,2.25930804,0.0,"{38: 1, 83: 2, 8: 4}","[8, 38, 83]",84381832,Sr1Bi2O4
SrUO4,mp-36329,1.9794999999999994,3.95917008,0.0,"{38: 1, 92: 1, 8: 4}","[8, 38, 92]",84381921,Sr1U1O4
SrPuO4,mp-8146,0.0,5.04292822,0.0,"{38: 1, 94: 1, 8: 4}","[8, 38, 94]",84381941,Sr1Pu1O4
Sr2ZrO4,mp-1025349,2.8135000000000003,1.9253292,0.034574683928568106,"{38: 2, 40: 1, 8: 4}","[8, 38, 40]",84382401,Sr2Zr1O4
Sr2MoO4,mp-19237,0.0,3.9855913,0.017990347857142375,"{38: 2, 42: 1, 8: 4}","[8, 38, 42]",84382421,Sr2Mo1O4
Sr2TcO4,mp-1077918,0.0,4.75161826,0.037539396428570626,"{38: 2, 43: 1, 8: 4}","[8, 38, 43]",84382431,Sr2Tc1O4
Sr2RuO4,mp-4596,0.0,4.26470735,0.0,"{38: 2, 44: 1, 8: 4}","[8, 38, 44]",84382441,Sr2Ru1O4
Sr2RhO4,mp-757102,0.0,3.14324036,0.0,"{38: 2, 45: 1, 8: 4}","[8, 38, 45]",84382451,Sr2Rh1O4
Sr2SnO4,mp-4287,2.6531,2.94036817,0.0,"{38: 2, 50: 1, 8: 4}","[8, 38, 50]",84382501,Sr2Sn1O4
Sr2CeO4,mp-15743,2.2243000000000004,2.48466282,0.0,"{38: 2, 58: 1, 8: 4}","[8, 38, 58]",84382581,Sr2Ce1O4
Sr2PrO4,mp-19975,0.0,1.32658459,0.05865321633928744,"{38: 2, 59: 1, 8: 4}","[8, 38, 59]",84382591,Sr2Pr1O4
Sr2HfO4,mp-754761,3.9303999999999997,1.77383337,0.009573952500002036,"{38: 2, 72: 1, 8: 4}","[8, 38, 72]",84382721,Sr2Hf1O4
Sr2IrO4,mp-4998,0.0,4.21858343,0.0,"{38: 2, 77: 1, 8: 4}","[8, 38, 77]",84382771,Sr2Ir1O4
Sr2PbO4,mp-20944,1.3966000000000003,2.46052846,0.0,"{38: 2, 82: 1, 8: 4}","[8, 38, 82]",84382821,Sr2Pb1O4
Sr2UO4,mp-21020,0.0,6.32525624,0.14799194942856886,"{38: 2, 92: 1, 8: 4}","[8, 38, 92]",84382921,Sr2U1O4
Sr3CdO4,mp-981103,0.5407,1.57081224,0.018506386249998563,"{38: 3, 48: 1, 8: 4}","[8, 38, 48]",84383481,Sr3Cd1O4
BaSr3O4,mp-984729,2.5199,2.08582002,0.044253557499999374,"{56: 1, 38: 3, 8: 4}","[8, 38, 56]",84383561,Ba1Sr3O4
Sr2La14Mg2Ga14O45,mp-686382,0.0,7.52897687,0.11904875115801605,"{38: 2, 57: 14, 12: 2, 31: 14, 8: 45}","[8, 12, 31, 38, 57]",84512231143825714,Sr2La14Mg2Ga14O45
Sr2La14Mg4(Fe4O15)3,mp-1173278,0.0,7.10881459,0.07690458022727675,"{38: 2, 57: 14, 12: 4, 26: 12, 8: 45}","[8, 12, 26, 38, 57]",84512426123825714,Sr2La14Mg4Fe12O45
Sr2La14Mg4(Ga4O15)3,mp-686724,2.7118,7.77596905,0.10256327308441016,"{38: 2, 57: 14, 12: 4, 31: 12, 8: 45}","[8, 12, 31, 38, 57]",84512431123825714,Sr2La14Mg4Ga12O45
Sr7Mg8(P4O15)3,mp-1218826,5.1094,1.6428371,0.014993096817137008,"{38: 7, 12: 8, 15: 12, 8: 45}","[8, 12, 15, 38]",8451281512387,Sr7Mg8P12O45
Sr16Fe16O45,mp-530473,0.0,2.87878011,0.012409132857139404,"{38: 16, 26: 16, 8: 45}","[8, 26, 38]",84526163816,Sr16Fe16O45
Sr16Fe6Co2Mo8O45,mp-703320,0.6308999999999996,4.05926269,0.062125498589296946,"{38: 16, 26: 6, 27: 2, 42: 8, 8: 45}","[8, 26, 27, 38, 42]",8452662723816428,Sr16Fe6Co2Mo8O45
Sr18Co14O45,mp-1219118,0.37539999999999996,2.66360764,0.012996268538960187,"{38: 18, 27: 14, 8: 45}","[8, 27, 38]",84527143818,Sr18Co14O45
Sr15Fe10(Bi5O23)2,mp-616616,0.0,3.57240596,0.017102913287025068,"{38: 15, 26: 10, 83: 10, 8: 46}","[8, 26, 38, 83]",846261038158310,Sr15Fe10Bi10O46
Sr16La3Co11(Cu4O23)2,mp-1100841,0.0,3.84504898,0.0967723394611637,"{38: 16, 57: 3, 27: 11, 29: 8, 8: 46}","[8, 27, 29, 38, 57]",84627112983816573,Sr16La3Co11Cu8O46
Sr21Fe14O47,mp-772462,0.0,2.53331035,0.0,"{38: 21, 26: 14, 8: 47}","[8, 26, 38]",84726143821,Sr21Fe14O47
Sr16Fe16O47,mp-530945,0.0,2.75794737,0.0030121153164657244,"{38: 16, 26: 16, 8: 47}","[8, 26, 38]",84726163816,Sr16Fe16O47
Sr18Fe18O47,mp-685527,0.0,3.00251754,0.09014742288101107,"{38: 18, 26: 18, 8: 47}","[8, 26, 38]",84726183818,Sr18Fe18O47
Sr22Nb10O47,mp-677636,2.22,2.06242426,0.07123616936708999,"{38: 22, 41: 10, 8: 47}","[8, 38, 41]",84738224110,Sr22Nb10O47
Sr20P12Br3ClO48,mp-1218945,4.9604,1.62747284,0.0003406047023819525,"{38: 20, 15: 12, 35: 3, 17: 1, 8: 48}","[8, 15, 17, 35, 38]",84815121713533820,Sr20P12Br3Cl1O48
Sr20P12Br(ClO16)3,mp-1218923,5.0397,6.61589717,0.0006895539880948931,"{38: 20, 15: 12, 35: 1, 17: 3, 8: 48}","[8, 15, 17, 35, 38]",84815121733513820,Sr20P12Br1Cl3O48
SrCaZr8(PO4)12,mp-1218248,4.2404,-0.04984237,0.0017133918571428097,"{38: 1, 20: 1, 40: 8, 15: 12, 8: 48}","[8, 15, 20, 38, 40]",8481512201381408,Sr1Ca1Zr8P12O48
Sr3La21Zn2(Cu5O24)2,mp-532700,0.0,6.77263271,0.0587214907143041,"{38: 3, 57: 21, 30: 2, 29: 10, 8: 48}","[8, 29, 30, 38, 57]",84829103023835721,Sr3La21Zn2Cu10O48
Sr16(Ru5O16)3,mp-758162,0.0,4.29583225,0.027636101075957598,"{38: 16, 44: 15, 8: 48}","[8, 38, 44]",84838164415,Sr16Ru15O48
Sr20P12Br3O48F,mp-1219029,4.9493,1.53909562,0.00981783702380934,"{38: 20, 15: 12, 35: 3, 8: 48, 9: 1}","[8, 9, 15, 35, 38]",8489115123533820,Sr20P12Br3O48F1
Sr20P12Cl(O16F)3,mp-720255,5.170100000000001,1.41102784,0.004213700297605705,"{38: 20, 15: 12, 17: 1, 8: 48, 9: 3}","[8, 9, 15, 17, 38]",8489315121713820,Sr20P12Cl1O48F3
Sr20P12Br(O16F)3,mp-1218956,5.1025,6.38769859,0.0046044840476184845,"{38: 20, 15: 12, 35: 1, 8: 48, 9: 3}","[8, 9, 15, 35, 38]",8489315123513820,Sr20P12Br1O48F3