formula,material_id,band_gap,efermi,energy_above_hull,comp_atoms,sorted_keys_comp_atoms,comp_number,new_formula
CsSrMg6,mp-1017085,0.0,2.3717266,0.27893600004310315,"{55: 1, 38: 1, 12: 6}","[12, 38, 55]",126381551,Cs1Sr1Mg6
BaSrMg6,mp-1016278,0.0,2.49106582,0.17896836754464096,"{56: 1, 38: 1, 12: 6}","[12, 38, 56]",126381561,Ba1Sr1Mg6
SrLaMg6,mp-1021158,0.0,3.411181,0.16638894562499984,"{38: 1, 57: 1, 12: 6}","[12, 38, 57]",126381571,Sr1La1Mg6
SrCeMg6,mp-1099332,0.0,3.40307481,0.1750657493749994,"{38: 1, 58: 1, 12: 6}","[12, 38, 58]",126381581,Sr1Ce1Mg6
SrHfMg6,mp-1098297,0.0,3.016447,0.16687168875000014,"{38: 1, 72: 1, 12: 6}","[12, 38, 72]",126381721,Sr1Hf1Mg6
SrMg6W,mp-1016330,0.0,3.44373355,0.3588758550000004,"{38: 1, 12: 6, 74: 1}","[12, 38, 74]",126381741,Sr1Mg6W1
SrMg6Bi,mp-1016359,0.0,3.53389367,0.19362281620535637,"{38: 1, 12: 6, 83: 1}","[12, 38, 83]",126381831,Sr1Mg6Bi1
SrH2N2O5,mp-24456,2.2801,-0.17208197,0.08054698951667572,"{38: 1, 1: 2, 7: 2, 8: 5}","[1, 7, 8, 38]",127285381,Sr1H2N2O5
SrMg7,mp-1016268,0.0,2.81895841,0.11443565562499991,"{38: 1, 12: 7}","[12, 38]",127381,Sr1Mg7
SrUP2(HO5)2,mp-1195967,0.3063,-0.10624831,0.6895743646354262,"{38: 1, 92: 1, 15: 2, 1: 2, 8: 10}","[1, 8, 15, 38, 92]",12810152381921,Sr1U1P2H2O10
SrH2Cl2O,mp-642662,4.0428,-0.17578967,0.28979946541666646,"{38: 1, 1: 2, 17: 2, 8: 1}","[1, 8, 17, 38]",1281172381,Sr1H2Cl2O1
SrCo2H2(SeO3)4,mp-735600,2.5941,1.74884384,0.16078964869048118,"{38: 1, 27: 2, 1: 2, 34: 4, 8: 12}","[1, 8, 27, 34, 38]",12812272344381,Sr1Co2H2Se4O12
Sr2CuH2(SeO3)4,mp-1191497,0.5843,1.40138717,0.002702722500009358,"{38: 2, 29: 1, 1: 2, 34: 4, 8: 12}","[1, 8, 29, 34, 38]",12812291344382,Sr2Cu1H2Se4O12
SrH2Br2O,mp-643356,4.1796999999999995,0.10673375,0.005150935166667203,"{38: 1, 1: 2, 35: 2, 8: 1}","[1, 8, 35, 38]",1281352381,Sr1H2Br2O1
SrH2I2O,mp-703295,3.6429,1.74501654,0.00031554499999852936,"{38: 1, 1: 2, 53: 2, 8: 1}","[1, 8, 38, 53]",1281381532,Sr1H2I2O1
Sr2Mn3P4(HO8)2,mp-1197934,3.5041999999999995,2.37024508,0.001679703148147027,"{38: 2, 25: 3, 15: 4, 1: 2, 8: 16}","[1, 8, 15, 25, 38]",12816154253382,Sr2Mn3P4H2O16
Sr2V4Te2H2O17,mp-1199642,2.6086,3.17340062,0.0,"{38: 2, 23: 4, 52: 2, 1: 2, 8: 17}","[1, 8, 23, 38, 52]",12817234382522,Sr2V4Te2H2O17
Sr2Fe2H2OF10,mp-735131,3.5417,-1.60411311,0.0,"{38: 2, 26: 2, 1: 2, 8: 1, 9: 10}","[1, 8, 9, 26, 38]",1281910262382,Sr2Fe2H2O1F10
Sr(HO)2,mp-27425,4.1708,-0.52444521,0.0,"{38: 1, 1: 2, 8: 2}","[1, 8, 38]",1282381,Sr1H2O2
SrH2O3,mp-642654,0.0,-0.73506974,0.31036834687499937,"{38: 1, 1: 2, 8: 3}","[1, 8, 38]",1283381,Sr1H2O3
SrGe(HO2)2,mp-23884,4.1282000000000005,0.26859113,0.005202734895819461,"{38: 1, 32: 1, 1: 2, 8: 4}","[1, 8, 32, 38]",1284321381,Sr1Ge1H2O4
SrTe(HO2)2,mp-1200674,3.8288,4.85488451,0.0,"{38: 1, 52: 1, 1: 2, 8: 4}","[1, 8, 38, 52]",1284381521,Sr1Te1H2O4
SrH2(SeO3)2,mp-753175,3.9484999999999997,0.29783613,0.008737890227282996,"{38: 1, 1: 2, 34: 2, 8: 6}","[1, 8, 34, 38]",1286342381,Sr1H2Se2O6
SrH2Br2O7,mp-24479,4.0463,0.20228101,0.012915944791667577,"{38: 1, 1: 2, 35: 2, 8: 7}","[1, 8, 35, 38]",1287352381,Sr1H2Br2O7
SrH2I2O7,mp-23957,3.2912,1.49337046,0.017200927291668222,"{38: 1, 1: 2, 53: 2, 8: 7}","[1, 8, 38, 53]",1287381532,Sr1H2I2O7
SrTa2H2O7,mp-990430,2.2398,0.78169444,0.08612608270833633,"{38: 1, 73: 2, 1: 2, 8: 7}","[1, 8, 38, 73]",1287381732,Sr1Ta2H2O7
SrP11H28N9,mp-1198273,1.9877,0.83074951,0.0,"{38: 1, 15: 11, 1: 28, 7: 9}","[1, 7, 15, 38]",128791511381,Sr1P11H28N9
SrZnP2(HO4)2,mp-697018,0.0,-0.917155,0.8509519330357111,"{38: 1, 30: 1, 15: 2, 1: 2, 8: 8}","[1, 8, 15, 30, 38]",1288152301381,Sr1Zn1P2H2O8
SrP2(HO4)2,mp-1192599,0.0,-0.59107914,0.10729157512820464,"{38: 1, 15: 2, 1: 2, 8: 8}","[1, 8, 15, 38]",1288152381,Sr1P2H2O8
SrAlCu3Se4,mp-1179174,1.6573000000000002,4.48305876,0.16020678680555456,"{38: 1, 13: 1, 29: 3, 34: 4}","[13, 29, 34, 38]",131293344381,Sr1Al1Cu3Se4
SrH3,mp-978856,0.0,0.5650695,0.3405684406249998,"{38: 1, 1: 3}","[1, 38]",13381,Sr1H3
SrH3Pd,mp-1207079,0.0,4.45326339,0.0,"{38: 1, 1: 3, 46: 1}","[1, 38, 46]",13381461,Sr1H3Pd1
Sr2H3I,mp-1019269,2.0572,3.19933707,0.008071881249997137,"{38: 2, 1: 3, 53: 1}","[1, 38, 53]",13382531,Sr2H3I1
Sr2H3NO6,mp-1095649,2.9533,0.08065363,0.0,"{38: 2, 1: 3, 7: 1, 8: 6}","[1, 7, 8, 38]",137186382,Sr2H3N1O6
SrCuH3ClO3,mp-1194841,0.5446,2.07391653,0.0243682360185149,"{38: 1, 29: 1, 1: 3, 17: 1, 8: 3}","[1, 8, 17, 29, 38]",1383171291381,Sr1Cu1H3Cl1O3
SrPH3O4,mp-24171,5.5192000000000005,0.00681659,0.0129277022222265,"{38: 1, 15: 1, 1: 3, 8: 4}","[1, 8, 15, 38]",1384151381,Sr1P1H3O4
SrAsH3O5,mp-510709,3.8952999999999998,-0.09089621,0.010149899899999149,"{38: 1, 33: 1, 1: 3, 8: 5}","[1, 8, 33, 38]",1385331381,Sr1As1H3O5
SrMoAsH3O8,mp-735578,2.9342,0.41256366,0.07312318272320706,"{38: 1, 42: 1, 33: 1, 1: 3, 8: 8}","[1, 8, 33, 38, 42]",1388331381421,Sr1Mo1As1H3O8
SrMgH4,mp-643009,2.7087,0.90260553,0.0,"{38: 1, 12: 1, 1: 4}","[1, 12, 38]",14121381,Sr1Mg1H4
SrCuSi,mp-1206169,0.0,4.50967319,0.0,"{38: 1, 29: 1, 14: 1}","[14, 29, 38]",141291381,Sr1Cu1Si1
BaSrSi,mp-1100434,0.49140000000000006,3.01420414,0.47794100291666775,"{56: 1, 38: 1, 14: 1}","[14, 38, 56]",141381561,Ba1Sr1Si1
Sr(CuSi)2,mp-7877,0.0,6.07496121,0.0,"{38: 1, 29: 2, 14: 2}","[14, 29, 38]",142292381,Sr1Cu2Si2
SrGaH4,mp-510719,0.0,2.23169693,0.12248678145833036,"{38: 1, 31: 1, 1: 4}","[1, 31, 38]",14311381,Sr1Ga1H4
Sr2H4Pd,mp-1179173,1.8442,1.93500347,0.060202096339282196,"{38: 2, 1: 4, 46: 1}","[1, 38, 46]",14382461,Sr2H4Pd1
SrBe(HO)4,mp-1196241,3.9554,-0.97759893,0.0043948612500033235,"{38: 1, 4: 1, 1: 4, 8: 4}","[1, 4, 8, 38]",144184381,Sr1Be1H4O4
SrCu9Si4,mp-11142,0.0,7.52623195,0.0,"{38: 1, 29: 9, 14: 4}","[14, 29, 38]",144299381,Sr1Cu9Si4
BaSrSi4,mp-1227347,0.0,5.20345718,0.017381759375001415,"{56: 1, 38: 1, 14: 4}","[14, 38, 56]",144381561,Ba1Sr1Si4
SrCuH4(CO2)4,mp-1205438,0.6988,-0.03610663,0.17008743784721236,"{38: 1, 29: 1, 1: 4, 6: 4, 8: 8}","[1, 6, 8, 29, 38]",146488291381,Sr1Cu1H4C4O8
Sr(H2N)2,mp-643905,2.342,0.01429486,0.0,"{38: 1, 1: 4, 7: 2}","[1, 7, 38]",1472381,Sr1H4N2
SrCo2As2(H2O5)2,mp-562127,2.5462000000000002,1.68588232,0.003035290570185367,"{38: 1, 27: 2, 33: 2, 1: 4, 8: 10}","[1, 8, 27, 33, 38]",14810272332381,Sr1Co2As2H4O10
SrH4(SO4)3,mp-757723,5.865600000000001,-0.68731085,0.0,"{38: 1, 1: 4, 16: 3, 8: 12}","[1, 8, 16, 38]",14812163381,Sr1H4S3O12
SrMo4H4O15,mp-1197507,2.7446,0.34361828,0.011924919062500372,"{38: 1, 42: 4, 1: 4, 8: 15}","[1, 8, 38, 42]",14815381424,Sr1Mo4H4O15
SrH4(ClO)2,mp-643026,5.0035,-0.28858393,0.010578700555549325,"{38: 1, 1: 4, 17: 2, 8: 2}","[1, 8, 17, 38]",1482172381,Sr1H4Cl2O2
Sr2Al4Fe3P4(H2O13)2,mp-1209043,0.0041999999999999815,2.59155338,0.09826396035060014,"{38: 2, 13: 4, 26: 3, 15: 4, 1: 4, 8: 26}","[1, 8, 13, 15, 26, 38]",14826134154263382,Sr2Al4Fe3P4H4O26
SrTiH4(OF3)2,mp-849433,3.591,-2.18809627,0.0,"{38: 1, 22: 1, 1: 4, 8: 2, 9: 6}","[1, 8, 9, 22, 38]",148296221381,Sr1Ti1H4O2F6
SrH4Ir(OF3)2,mp-1199326,0.0,-0.31449034,0.06405319142857557,"{38: 1, 1: 4, 77: 1, 8: 2, 9: 6}","[1, 8, 9, 38, 77]",148296381771,Sr1H4Ir1O2F6
SrH4O3,mp-28420,4.3370999999999995,-0.42214202,0.003169951562499662,"{38: 1, 1: 4, 8: 3}","[1, 8, 38]",1483381,Sr1H4O3
SrP2(HO)4,mp-24297,5.174099999999999,-0.39198023,0.0,"{38: 1, 15: 2, 1: 4, 8: 4}","[1, 8, 15, 38]",1484152381,Sr1P2H4O4
SrP2(H2O3)2,mp-765294,6.4799,-0.32007229,0.008396441730772253,"{38: 1, 15: 2, 1: 4, 8: 6}","[1, 8, 15, 38]",1486152381,Sr1P2H4O6
Sr(H2O3)2,mp-1179405,0.011199999999999988,0.79949195,0.0,"{38: 1, 1: 4, 8: 6}","[1, 8, 38]",1486381,Sr1H4O6
SrPS3,mp-9788,3.1224,2.51188705,0.0,"{38: 1, 15: 1, 16: 3}","[15, 16, 38]",151163381,Sr1P1S3
SrTlPS4,mp-17090,2.0933000000000006,2.45375553,0.0,"{38: 1, 81: 1, 15: 1, 16: 4}","[15, 16, 38, 81]",151164381811,Sr1Tl1P1S4
SrFe2AsP,mp-1218282,0.0,5.51024107,0.02473645466666685,"{38: 1, 26: 2, 33: 1, 15: 1}","[15, 26, 33, 38]",151262331381,Sr1Fe2As1P1
SrCuP,mp-16321,0.0,5.20165452,0.0,"{38: 1, 29: 1, 15: 1}","[15, 29, 38]",151291381,Sr1Cu1P1
Sr3AsP,mp-1013553,0.0,1.9611954,0.28881511691666795,"{38: 3, 33: 1, 15: 1}","[15, 33, 38]",151331383,Sr3As1P1
SrPSe3,mp-7198,2.1432,2.25036803,0.0,"{38: 1, 15: 1, 34: 3}","[15, 34, 38]",151343381,Sr1P1Se3
SrP,mp-7931,0.45940000000000003,3.41588326,0.0,"{38: 1, 15: 1}","[15, 38]",151381,Sr1P1
SrAgP,mp-10667,0.11259999999999959,4.27974441,0.0,"{38: 1, 47: 1, 15: 1}","[15, 38, 47]",151381471,Sr1Ag1P1
SrSnP,mp-8539,0.0,4.51799236,0.0,"{38: 1, 50: 1, 15: 1}","[15, 38, 50]",151381501,Sr1Sn1P1
SrPIr,mp-12923,0.0,5.64551673,0.0,"{38: 1, 15: 1, 77: 1}","[15, 38, 77]",151381771,Sr1P1Ir1
SrPPt,mp-1217967,0.0,5.45062546,0.0,"{38: 1, 15: 1, 78: 1}","[15, 38, 78]",151381781,Sr1P1Pt1
SrPAu,mp-1206849,0.0,4.83429668,0.0,"{38: 1, 15: 1, 79: 1}","[15, 38, 79]",151381791,Sr1P1Au1
Sr2PAu,mp-1097182,0.6848000000000001,-1.83155942,1.4308802917187506,"{38: 2, 15: 1, 79: 1}","[15, 38, 79]",151382791,Sr2P1Au1
Sr3P,mp-1187135,0.0,3.59065695,0.4515704079687488,"{38: 3, 15: 1}","[15, 38]",151383,Sr3P1
Sr3SbP,mp-1013588,0.34189999999999987,2.7379023,0.0961719238055565,"{38: 3, 51: 1, 15: 1}","[15, 38, 51]",151383511,Sr3Sb1P1
Sr3BiP,mp-1013643,0.0,2.54479497,0.0443892287916654,"{38: 3, 83: 1, 15: 1}","[15, 38, 83]",151383831,Sr3Bi1P1
Sr3P14,mp-1853,1.6551,3.70231425,0.0,"{38: 3, 15: 14}","[15, 38]",1514383,Sr3P14
SrTh(PS4)2,mp-1194714,2.2546999999999997,2.61698958,0.0,"{38: 1, 90: 1, 15: 2, 16: 8}","[15, 16, 38, 90]",152168381901,Sr1Th1P2S8
SrU(PS4)2,mp-1195526,0.0,4.0270403,0.0,"{38: 1, 92: 1, 15: 2, 16: 8}","[15, 16, 38, 92]",152168381921,Sr1U1P2S8
Sr(MnP)2,mp-5589,0.0,5.15591785,0.09871564900000163,"{38: 1, 25: 2, 15: 2}","[15, 25, 38]",152252381,Sr1Mn2P2
Sr(FeP)2,mp-3299,0.0,5.9006658,0.0,"{38: 1, 26: 2, 15: 2}","[15, 26, 38]",152262381,Sr1Fe2P2
Sr(CoP)2,mp-5671,0.0,5.9330408,0.0,"{38: 1, 27: 2, 15: 2}","[15, 27, 38]",152272381,Sr1Co2P2
Sr2ZnP2,mp-1218384,0.0,3.0892705,0.07274145037500013,"{38: 2, 30: 1, 15: 2}","[15, 30, 38]",152301382,Sr2Zn1P2
Sr(ZnP)2,mp-8276,0.8285999999999998,3.75989231,0.0,"{38: 1, 30: 2, 15: 2}","[15, 30, 38]",152302381,Sr1Zn2P2
SrP2,mp-1105302,0.7968999999999999,4.34754141,0.0,"{38: 1, 15: 2}","[15, 38]",152381,Sr1P2
Sr(PRu)2,mp-3804,0.0,6.30836174,0.0,"{38: 1, 15: 2, 44: 2}","[15, 38, 44]",152381442,Sr1P2Ru2
Sr(PRh)2,mp-8581,0.0,6.21074042,0.0,"{38: 1, 15: 2, 45: 2}","[15, 38, 45]",152381452,Sr1P2Rh2
Sr(PPd)2,mp-3385,0.0,5.79267779,0.0,"{38: 1, 15: 2, 46: 2}","[15, 38, 46]",152381462,Sr1P2Pd2
Sr(CdP)2,mp-8277,0.7109000000000001,3.20987395,0.0,"{38: 1, 48: 2, 15: 2}","[15, 38, 48]",152381482,Sr1Cd2P2
Sr(InP)2,mp-1078973,0.18330000000000002,5.40926563,0.0,"{38: 1, 49: 2, 15: 2}","[15, 38, 49]",152381492,Sr1In2P2
SrEu(PPt)2,mp-1218299,0.0,5.37588112,0.004293175833333329,"{38: 1, 63: 1, 15: 2, 78: 2}","[15, 38, 63, 78]",152381631782,Sr1Eu1P2Pt2
Sr(POs)2,mp-569310,0.0,6.47816657,0.0,"{38: 1, 15: 2, 76: 2}","[15, 38, 76]",152381762,Sr1P2Os2
Sr(PIr)2,mp-15074,0.4416000000000002,6.7615515,0.0,"{38: 1, 15: 2, 77: 2}","[15, 38, 77]",152381772,Sr1P2Ir2
Sr(PPt3)2,mp-1194990,0.0,6.53392237,0.0,"{38: 1, 15: 2, 78: 6}","[15, 38, 78]",152381786,Sr1P2Pt6
Sr3P2,mp-32635,0.39460000000000006,2.95141304,0.0,"{38: 3, 15: 2}","[15, 38]",152383,Sr3P2
SrGaH5,mp-1192424,3.3941000000000003,-0.72944009,0.0,"{38: 1, 31: 1, 1: 5}","[1, 31, 38]",15311381,Sr1Ga1H5
SrP3,mp-569867,0.3683000000000005,5.1458906,0.0,"{38: 1, 15: 3}","[15, 38]",153381,Sr1P3
Sr2(PPd)3,mp-649419,0.0,5.31361387,0.0,"{38: 2, 15: 3, 46: 3}","[15, 38, 46]",153382463,Sr2P3Pd3
Sr3InP3,mp-616026,0.8115999999999999,3.58136497,0.0,"{38: 3, 49: 1, 15: 3}","[15, 38, 49]",153383491,Sr3In1P3
Sr2H5Rh,mp-35152,0.5802999999999998,2.38173076,0.0,"{38: 2, 1: 5, 45: 1}","[1, 38, 45]",15382451,Sr2H5Rh1
Sr4TiP4,mp-15500,1.432,2.55901849,0.0,"{38: 4, 22: 1, 15: 4}","[15, 22, 38]",154221384,Sr4Ti1P4
Sr3(GaP2)2,mp-1106227,1.0671999999999997,3.42507058,0.0,"{38: 3, 31: 2, 15: 4}","[15, 31, 38]",154312383,Sr3Ga2P4
Sr4GeP4,mp-14213,1.0529000000000002,2.83410194,0.0,"{38: 4, 32: 1, 15: 4}","[15, 32, 38]",154321384,Sr4Ge1P4
Sr3(GeP2)2,mp-18351,0.9214999999999995,3.24718484,0.0,"{38: 3, 32: 2, 15: 4}","[15, 32, 38]",154322383,Sr3Ge2P4
Sr3P4,mp-14288,0.8898000000000001,3.61388811,0.0,"{38: 3, 15: 4}","[15, 38]",154383,Sr3P4
Sr3(InP2)2,mp-28324,0.5893000000000006,3.9820471,0.0,"{38: 3, 49: 2, 15: 4}","[15, 38, 49]",154383492,Sr3In2P4
Sr3(SnP2)2,mp-571291,0.9885000000000002,4.11478442,0.0,"{38: 3, 50: 2, 15: 4}","[15, 38, 50]",154383502,Sr3Sn2P4
Sr2Cu6P5,mp-1104000,0.0,6.79538357,0.0,"{38: 2, 29: 6, 15: 5}","[15, 29, 38]",155296382,Sr2Cu6P5
Sr4(PPd)5,mp-28201,0.0,4.64609106,0.0,"{38: 4, 15: 5, 46: 5}","[15, 38, 46]",155384465,Sr4P5Pd5
Sr(P3Pt2)2,mp-8507,0.3710999999999993,6.76908329,0.0,"{38: 1, 15: 6, 78: 4}","[15, 38, 78]",156381784,Sr1P6Pt4
Sr2P6Rh7,mp-669387,0.0,6.39398406,0.0,"{38: 2, 15: 6, 45: 7}","[15, 38, 45]",156382457,Sr2P6Rh7
Sr5(SnP3)2,mp-18458,0.36760000000000037,4.08393982,0.00615745653846389,"{38: 5, 50: 2, 15: 6}","[15, 38, 50]",156385502,Sr5Sn2P6
Sr2P7Cl,mp-1194705,1.948,3.36184231,0.0,"{38: 2, 15: 7, 17: 1}","[15, 17, 38]",157171382,Sr2P7Cl1
Sr2P7Br,mp-1195664,2.1331,3.4624902,0.0,"{38: 2, 15: 7, 35: 1}","[15, 35, 38]",157351382,Sr2P7Br1
Sr2P7Rh12,mp-1218725,0.0,9.78725564,0.0,"{38: 2, 15: 7, 45: 12}","[15, 38, 45]",1573824512,Sr2P7Rh12
Sr2P7I,mp-1195270,2.1057999999999995,3.79458042,0.0,"{38: 2, 15: 7, 53: 1}","[15, 38, 53]",157382531,Sr2P7I1
Sr3H5(OsO4)2,mp-1209668,0.6200000000000001,0.88956324,0.35883233623931865,"{38: 3, 1: 5, 76: 2, 8: 8}","[1, 8, 38, 76]",1588383762,Sr3H5Os2O8
Sr3V5S11,mp-1218843,0.0,5.04863745,0.07533640684209697,"{38: 3, 23: 5, 16: 11}","[16, 23, 38]",1611235383,Sr3V5S11
Sr2Re6S11,mp-1199935,1.3578999999999999,6.30328002,0.006993453881581679,"{38: 2, 75: 6, 16: 11}","[16, 38, 75]",1611382756,Sr2Re6S11
Sr2MgH6,mp-644225,2.7286,1.24910508,0.006210092499999487,"{38: 2, 12: 1, 1: 6}","[1, 12, 38]",16121382,Sr2Mg1H6
SrEuSeS,mp-1218270,0.0,3.74503433,0.026011437499999346,"{38: 1, 63: 1, 34: 1, 16: 1}","[16, 34, 38, 63]",161341381631,Sr1Eu1Se1S1
Sr2SeS,mp-1218707,2.2889,1.74904071,0.005912252499999937,"{38: 2, 34: 1, 16: 1}","[16, 34, 38]",161341382,Sr2Se1S1
Sr4Se3S,mp-1218389,2.2417999999999996,1.67305401,0.0042566537500015045,"{38: 4, 34: 3, 16: 1}","[16, 34, 38]",161343384,Sr4Se3S1
SrS,mp-1087,2.497,1.8660166,0.0,"{38: 1, 16: 1}","[16, 38]",161381,Sr1S1
Sr6Sb6S17,mp-16061,1.7409,5.19675309,0.0,"{38: 6, 51: 6, 16: 17}","[16, 38, 51]",1617386516,Sr6Sb6S17
Sr8(TiS3)7,mp-676818,0.015399999999999636,4.07901663,0.0,"{38: 8, 22: 7, 16: 21}","[16, 22, 38]",1621227388,Sr8Ti7S21
Sr2Cu(SCl)2,mp-1147579,0.0,3.33980353,0.10493867904761789,"{38: 2, 29: 1, 16: 2, 17: 2}","[16, 17, 29, 38]",162172291382,Sr2Cu1S2Cl2
SrCaS2,mp-1218330,2.4231999999999996,2.24001914,0.029460062500000106,"{38: 1, 20: 1, 16: 2}","[16, 20, 38]",162201381,Sr1Ca1S2
SrS2,mp-1950,1.2822,4.02449458,0.023715329062502732,"{38: 1, 16: 2}","[16, 38]",162381,Sr1S2
SrEuS2,mp-1218296,0.0,4.05031797,0.019115117499996614,"{38: 1, 63: 1, 16: 2}","[16, 38, 63]",162381631,Sr1Eu1S2
SrPbS2,mp-1218019,1.7689,3.61512218,0.010413342499996148,"{38: 1, 82: 1, 16: 2}","[16, 38, 82]",162381821,Sr1Pb1S2
SrUS2,mp-674944,0.0,5.69918768,0.5949976056250001,"{38: 1, 92: 1, 16: 2}","[16, 38, 92]",162381921,Sr1U1S2
Sr2FeH6,mp-1078746,1.3141999999999998,1.88906222,0.0,"{38: 2, 26: 1, 1: 6}","[1, 26, 38]",16261382,Sr2Fe1H6
Sr2CuH6,mp-1147709,0.0,2.39016835,0.0,"{38: 2, 29: 1, 1: 6}","[1, 29, 38]",16291382,Sr2Cu1H6
Sr8Ga16S31,mp-532267,1.8450000000000002,2.4240634,0.023442631492422983,"{38: 8, 31: 16, 16: 31}","[16, 31, 38]",16313116388,Sr8Ga16S31
SrTiS3,mp-1080529,0.0,4.07656179,0.08243712100000344,"{38: 1, 22: 1, 16: 3}","[16, 22, 38]",163221381,Sr1Ti1S3
SrLaCuS3,mp-1218223,1.2031,5.36829368,0.0,"{38: 1, 57: 1, 29: 1, 16: 3}","[16, 29, 38, 57]",163291381571,Sr1La1Cu1S3
SrNdCuS3,mp-1190834,1.2165,3.72445218,0.0,"{38: 1, 60: 1, 29: 1, 16: 3}","[16, 29, 38, 60]",163291381601,Sr1Nd1Cu1S3
SrGdCuS3,mp-1192362,1.1721,3.9433352,0.0,"{38: 1, 64: 1, 29: 1, 16: 3}","[16, 29, 38, 64]",163291381641,Sr1Gd1Cu1S3
SrLuCuS3,mp-13189,1.3441999999999998,4.25097207,0.0,"{38: 1, 71: 1, 29: 1, 16: 3}","[16, 29, 38, 71]",163291381711,Sr1Lu1Cu1S3
Sr2ZnS3,mp-1190981,2.4258999999999995,2.4412009,0.040342723452381435,"{38: 2, 30: 1, 16: 3}","[16, 30, 38]",163301382,Sr2Zn1S3
Sr4SeS3,mp-1218371,2.3750999999999998,1.84005665,0.0054942450000012855,"{38: 4, 34: 1, 16: 3}","[16, 34, 38]",163341384,Sr4Se1S3
SrS3,mp-1175,1.0930999999999997,3.6418562,0.032827906093750414,"{38: 1, 16: 3}","[16, 38]",163381,Sr1S3
SrZrS3,mp-558760,0.5511999999999997,3.75582708,0.0,"{38: 1, 40: 1, 16: 3}","[16, 38, 40]",163381401,Sr1Zr1S3
SrSnS3,mp-1205419,0.8335999999999997,4.46611209,0.0,"{38: 1, 50: 1, 16: 3}","[16, 38, 50]",163381501,Sr1Sn1S3
SrHfS3,mp-1208643,1.4955999999999996,3.09229862,0.0,"{38: 1, 72: 1, 16: 3}","[16, 38, 72]",163381721,Sr1Hf1S3
Sr2SmS3,mp-1218714,0.0,2.11772146,0.17344215666666862,"{38: 2, 62: 1, 16: 3}","[16, 38, 62]",163382621,Sr2Sm1S3
Sr2GdS3,mp-1072327,0.0,2.33258388,0.18820700166666882,"{38: 2, 64: 1, 16: 3}","[16, 38, 64]",163382641,Sr2Gd1S3
Sr2H6Ru,mp-24292,2.2360999999999995,1.21048843,0.0,"{38: 2, 1: 6, 44: 1}","[1, 38, 44]",16382441,Sr2H6Ru1
Sr2H6Os,mp-1078677,2.4354,1.33692805,0.0,"{38: 2, 1: 6, 76: 1}","[1, 38, 76]",16382761,Sr2H6Os1
Sr2H6Pt,mp-1208839,1.2760000000000002,2.00091659,0.0,"{38: 2, 1: 6, 78: 1}","[1, 38, 78]",16382781,Sr2H6Pt1
Sr3CaS4,mp-1218367,2.4485,2.0542428,0.013875813750001242,"{38: 3, 20: 1, 16: 4}","[16, 20, 38]",164201383,Sr3Ca1S4
Sr(ScS2)2,mp-17678,1.3569999999999998,3.62313519,0.0,"{38: 1, 21: 2, 16: 4}","[16, 21, 38]",164212381,Sr1Sc2S4
Sr17(Ta5S21)2,mp-532315,1.7845,2.06564224,0.0,"{38: 17, 73: 10, 16: 42}","[16, 38, 73]",164238177310,Sr17Ta10S42
Sr(FeS2)2,mp-1218900,0.0,3.6238356,0.17819901714285624,"{38: 1, 26: 2, 16: 4}","[16, 26, 38]",164262381,Sr1Fe2S4
SrCu2GeS4,mp-18685,1.0462999999999996,4.16293413,0.0,"{38: 1, 29: 2, 32: 1, 16: 4}","[16, 29, 32, 38]",164292321381,Sr1Cu2Ge1S4
SrCu2SnS4,mp-17322,0.4032,4.58003676,0.007622313333333075,"{38: 1, 29: 2, 50: 1, 16: 4}","[16, 29, 38, 50]",164292381501,Sr1Cu2Sn1S4
SrCu2PbS4,mp-1245497,0.00849999999999973,4.15126686,0.10193562374999932,"{38: 1, 29: 2, 82: 1, 16: 4}","[16, 29, 38, 82]",164292381821,Sr1Cu2Pb1S4
Sr(GaS2)2,mp-14425,2.7973999999999997,2.13138793,0.0,"{38: 1, 31: 2, 16: 4}","[16, 31, 38]",164312381,Sr1Ga2S4
Sr2GeS4,mp-4578,2.0504,2.25687226,0.0,"{38: 2, 32: 1, 16: 4}","[16, 32, 38]",164321382,Sr2Ge1S4
Sr(AsS2)2,mp-36577,1.7211999999999998,1.97363159,0.03799723535714428,"{38: 1, 33: 2, 16: 4}","[16, 33, 38]",164332381,Sr1As2S4
Sr(YS2)2,mp-29035,1.8122000000000003,2.95930013,0.0,"{38: 1, 39: 2, 16: 4}","[16, 38, 39]",164381392,Sr1Y2S4
SrCd3S4,mp-1217986,1.3047,3.73863847,0.12742525937499982,"{38: 1, 48: 3, 16: 4}","[16, 38, 48]",164381483,Sr1Cd3S4
Sr(InS2)2,mp-21781,2.1496,2.80573202,0.0,"{38: 1, 49: 2, 16: 4}","[16, 38, 49]",164381492,Sr1In2S4
Sr(LaS2)2,mp-34141,2.2358000000000002,5.31323989,0.0,"{38: 1, 57: 2, 16: 4}","[16, 38, 57]",164381572,Sr1La2S4
Sr(CeS2)2,mp-33392,0.0,6.74143061,0.02482632428571563,"{38: 1, 58: 2, 16: 4}","[16, 38, 58]",164381582,Sr1Ce2S4
Sr(PrS2)2,mp-38240,2.0955,3.7578649,0.0,"{38: 1, 59: 2, 16: 4}","[16, 38, 59]",164381592,Sr1Pr2S4
Sr(NdS2)2,mp-37108,2.1031999999999997,3.70495419,0.0009920742857190135,"{38: 1, 60: 2, 16: 4}","[16, 38, 60]",164381602,Sr1Nd2S4
Sr(SmS2)2,mp-34508,2.1281,3.78573477,0.01238997607143233,"{38: 1, 62: 2, 16: 4}","[16, 38, 62]",164381622,Sr1Sm2S4
Sr(GdS2)2,mp-37183,1.3381999999999996,5.0194807,0.023524695357142633,"{38: 1, 64: 2, 16: 4}","[16, 38, 64]",164381642,Sr1Gd2S4
Sr(TbS2)2,mp-1193989,1.8161,2.76387296,0.0,"{38: 1, 65: 2, 16: 4}","[16, 38, 65]",164381652,Sr1Tb2S4
Sr(DyS2)2,mp-980666,1.7879999999999998,2.89948005,0.0,"{38: 1, 66: 2, 16: 4}","[16, 38, 66]",164381662,Sr1Dy2S4
Sr(HoS2)2,mp-1194314,1.8255999999999997,2.78034459,0.0,"{38: 1, 67: 2, 16: 4}","[16, 38, 67]",164381672,Sr1Ho2S4
Sr(ErS2)2,mp-1193662,1.8245999999999998,2.84697259,0.0,"{38: 1, 68: 2, 16: 4}","[16, 38, 68]",164381682,Sr1Er2S4