formula,material_id,band_gap,efermi,energy_above_hull,comp_atoms,sorted_keys_comp_atoms,comp_number,new_formula
NaSrDySeO6,mp-1521091,2.0797999999999996,2.66295356,0.12819639999999666,"{11: 1, 38: 1, 66: 1, 34: 1, 8: 6}","[8, 11, 34, 38, 66]",86111341381661,Na1Sr1Dy1Se1O6
NaSrYWO6,mp-1522178,2.8804,1.77381773,0.042529193708334745,"{11: 1, 38: 1, 39: 1, 74: 1, 8: 6}","[8, 11, 38, 39, 74]",86111381391741,Na1Sr1Y1W1O6
NaSrZrNbO6,mp-1518090,2.2647999999999997,1.78571612,0.03487502786667207,"{11: 1, 38: 1, 40: 1, 41: 1, 8: 6}","[8, 11, 38, 40, 41]",86111381401411,Na1Sr1Zr1Nb1O6
NaSrZrSbO6,mp-1518455,3.1782,3.03033475,0.027386957750000995,"{11: 1, 38: 1, 40: 1, 51: 1, 8: 6}","[8, 11, 38, 40, 51]",86111381401511,Na1Sr1Zr1Sb1O6
NaSrZrWO6,mp-1519119,0.0,4.63333868,0.06955840551666448,"{11: 1, 38: 1, 40: 1, 74: 1, 8: 6}","[8, 11, 38, 40, 74]",86111381401741,Na1Sr1Zr1W1O6
NaSrZrBiO6,mp-1519218,1.2369000000000003,2.36649103,0.08331153675000014,"{11: 1, 38: 1, 40: 1, 83: 1, 8: 6}","[8, 11, 38, 40, 83]",86111381401831,Na1Sr1Zr1Bi1O6
NaSrNbSnO6,mp-1520904,3.2357,2.95485741,0.04444154712500126,"{11: 1, 38: 1, 41: 1, 50: 1, 8: 6}","[8, 11, 38, 41, 50]",86111381411501,Na1Sr1Nb1Sn1O6
NaSrNbSbO6,mp-1522961,0.0,5.26865508,0.15885445809375387,"{11: 1, 38: 1, 41: 1, 51: 1, 8: 6}","[8, 11, 38, 41, 51]",86111381411511,Na1Sr1Nb1Sb1O6
NaSrCeNbO6,mp-1517509,2.1442,2.20001143,0.11974475491666503,"{11: 1, 38: 1, 58: 1, 41: 1, 8: 6}","[8, 11, 38, 41, 58]",86111381411581,Na1Sr1Ce1Nb1O6
NaSrPrNbO6,mp-1521505,0.0,1.02410553,0.1291231590708355,"{11: 1, 38: 1, 59: 1, 41: 1, 8: 6}","[8, 11, 38, 41, 59]",86111381411591,Na1Sr1Pr1Nb1O6
NaSrTbNbO6,mp-1521856,0.0,1.08713114,0.13226744156250092,"{11: 1, 38: 1, 65: 1, 41: 1, 8: 6}","[8, 11, 38, 41, 65]",86111381411651,Na1Sr1Tb1Nb1O6
NaSrHfNbO6,mp-1521941,2.3776,1.9457628,0.029269756499999744,"{11: 1, 38: 1, 72: 1, 41: 1, 8: 6}","[8, 11, 38, 41, 72]",86111381411721,Na1Sr1Hf1Nb1O6
NaSrNbBiO6,mp-1517893,0.0,3.25766696,0.13515451462500128,"{11: 1, 38: 1, 41: 1, 83: 1, 8: 6}","[8, 11, 38, 41, 83]",86111381411831,Na1Sr1Nb1Bi1O6
NaSrNb2O6,mp-1220869,0.0,4.01234356,0.0,"{11: 1, 38: 1, 41: 2, 8: 6}","[8, 11, 38, 41]",86111381412,Na1Sr1Nb2O6
NaSrInWO6,mp-1520495,3.4538,2.87752851,0.046879261499998215,"{11: 1, 38: 1, 49: 1, 74: 1, 8: 6}","[8, 11, 38, 49, 74]",86111381491741,Na1Sr1In1W1O6
NaSrSnSbO6,mp-1519946,0.004300000000000637,4.13116066,0.10092466650000276,"{11: 1, 38: 1, 50: 1, 51: 1, 8: 6}","[8, 11, 38, 50, 51]",86111381501511,Na1Sr1Sn1Sb1O6
NaSrSnWO6,mp-1521207,0.0,5.73618975,0.1487104073749972,"{11: 1, 38: 1, 50: 1, 74: 1, 8: 6}","[8, 11, 38, 50, 74]",86111381501741,Na1Sr1Sn1W1O6
NaSrSnBiO6,mp-1522253,0.0,3.2874781,0.13627557575000004,"{11: 1, 38: 1, 50: 1, 83: 1, 8: 6}","[8, 11, 38, 50, 83]",86111381501831,Na1Sr1Sn1Bi1O6
NaSrCeSbO6,mp-1519609,1.9743999999999997,3.1521819,0.07423754614285638,"{11: 1, 38: 1, 58: 1, 51: 1, 8: 6}","[8, 11, 38, 51, 58]",86111381511581,Na1Sr1Ce1Sb1O6
NaSrPrSbO6,mp-1521671,0.0,1.95221646,0.09811045315476186,"{11: 1, 38: 1, 59: 1, 51: 1, 8: 6}","[8, 11, 38, 51, 59]",86111381511591,Na1Sr1Pr1Sb1O6
NaSrHfSbO6,mp-1518616,3.2996000000000003,3.12556773,0.027748828500000045,"{11: 1, 38: 1, 72: 1, 51: 1, 8: 6}","[8, 11, 38, 51, 72]",86111381511721,Na1Sr1Hf1Sb1O6
NaSrSbWO6,mp-1522343,1.1150000000000002,4.71811426,0.1714635705625014,"{11: 1, 38: 1, 51: 1, 74: 1, 8: 6}","[8, 11, 38, 51, 74]",86111381511741,Na1Sr1Sb1W1O6
NaSrLaWO6,mp-1516595,2.9531,2.51387145,0.0647215336875,"{11: 1, 38: 1, 57: 1, 74: 1, 8: 6}","[8, 11, 38, 57, 74]",86111381571741,Na1Sr1La1W1O6
NaSrCeWO6,mp-1520917,0.0,4.9854376,0.14285264137499887,"{11: 1, 38: 1, 58: 1, 74: 1, 8: 6}","[8, 11, 38, 58, 74]",86111381581741,Na1Sr1Ce1W1O6
NaSrCeBiO6,mp-1519230,1.7302999999999997,2.45322619,0.04051437168181238,"{11: 1, 38: 1, 58: 1, 83: 1, 8: 6}","[8, 11, 38, 58, 83]",86111381581831,Na1Sr1Ce1Bi1O6
NaSrPrWO6,mp-1522333,2.8551,1.64932985,0.044599881489582494,"{11: 1, 38: 1, 59: 1, 74: 1, 8: 6}","[8, 11, 38, 59, 74]",86111381591741,Na1Sr1Pr1W1O6
NaSrPrBiO6,mp-1519121,0.0,1.62503069,0.0947218181875007,"{11: 1, 38: 1, 59: 1, 83: 1, 8: 6}","[8, 11, 38, 59, 83]",86111381591831,Na1Sr1Pr1Bi1O6
NaSrNdWO6,mp-1518812,3.0272,1.54624903,0.05182397222916535,"{11: 1, 38: 1, 60: 1, 74: 1, 8: 6}","[8, 11, 38, 60, 74]",86111381601741,Na1Sr1Nd1W1O6
NaSrSmWO6,mp-1516403,2.8735999999999997,1.6534775,0.08153155667708312,"{11: 1, 38: 1, 62: 1, 74: 1, 8: 6}","[8, 11, 38, 62, 74]",86111381621741,Na1Sr1Sm1W1O6
NaSrEuWO6,mp-1521666,0.006099999999999994,2.05215826,0.12938914387499345,"{11: 1, 38: 1, 63: 1, 74: 1, 8: 6}","[8, 11, 38, 63, 74]",86111381631741,Na1Sr1Eu1W1O6
NaSrTbBiO6,mp-1517259,0.0,1.49445112,0.0785312336406303,"{11: 1, 38: 1, 65: 1, 83: 1, 8: 6}","[8, 11, 38, 65, 83]",86111381651831,Na1Sr1Tb1Bi1O6
NaSrDyWO6,mp-1519128,2.8974,1.74543116,0.037250452895833064,"{11: 1, 38: 1, 66: 1, 74: 1, 8: 6}","[8, 11, 38, 66, 74]",86111381661741,Na1Sr1Dy1W1O6
NaSrHfWO6,mp-1516820,0.0,4.7407748,0.06629993233333487,"{11: 1, 38: 1, 72: 1, 74: 1, 8: 6}","[8, 11, 38, 72, 74]",86111381721741,Na1Sr1Hf1W1O6
NaSrHfBiO6,mp-1518106,1.3445,2.52514365,0.08537264949999912,"{11: 1, 38: 1, 72: 1, 83: 1, 8: 6}","[8, 11, 38, 72, 83]",86111381721831,Na1Sr1Hf1Bi1O6
NaSrBiWO6,mp-1518378,2.0972000000000004,3.2641814,0.1139045158749985,"{11: 1, 38: 1, 83: 1, 74: 1, 8: 6}","[8, 11, 38, 74, 83]",86111381741831,Na1Sr1Bi1W1O6
NaSr2IO6,mp-1106050,2.5630000000000006,5.05298541,0.0,"{11: 1, 38: 2, 53: 1, 8: 6}","[8, 11, 38, 53]",86111382531,Na1Sr2I1O6
NaSr2ReO6,mp-1206737,1.773,2.12708421,0.04489141933333851,"{11: 1, 38: 2, 75: 1, 8: 6}","[8, 11, 38, 75]",86111382751,Na1Sr2Re1O6
NaSr2OsO6,mp-1205676,0.0,3.19697389,0.0,"{11: 1, 38: 2, 76: 1, 8: 6}","[8, 11, 38, 76]",86111382761,Na1Sr2Os1O6
NaSr3NbO6,mp-6361,3.2962000000000002,1.68036946,0.0,"{11: 1, 38: 3, 41: 1, 8: 6}","[8, 11, 38, 41]",86111383411,Na1Sr3Nb1O6
NaSr3RuO6,mp-6233,0.5002,2.97807575,0.0,"{11: 1, 38: 3, 44: 1, 8: 6}","[8, 11, 38, 44]",86111383441,Na1Sr3Ru1O6
NaSr3SbO6,mp-10461,2.9095,2.55134284,0.0,"{11: 1, 38: 3, 51: 1, 8: 6}","[8, 11, 38, 51]",86111383511,Na1Sr3Sb1O6
NaSr3TaO6,mp-13042,3.8787,1.69640221,0.0,"{11: 1, 38: 3, 73: 1, 8: 6}","[8, 11, 38, 73]",86111383731,Na1Sr3Ta1O6
NaSr3IrO6,mp-6662,0.0,3.19912283,0.0,"{11: 1, 38: 3, 77: 1, 8: 6}","[8, 11, 38, 77]",86111383771,Na1Sr3Ir1O6
NaSr3BiO6,mp-555812,1.7087999999999999,2.09506946,0.0,"{11: 1, 38: 3, 83: 1, 8: 6}","[8, 11, 38, 83]",86111383831,Na1Sr3Bi1O6
Sr4MgCr2(SO3)2,mp-1048620,1.8934000000000006,2.88264215,0.11794939166666651,"{38: 4, 12: 1, 24: 2, 16: 2, 8: 6}","[8, 12, 16, 24, 38]",86121162242384,Sr4Mg1Cr2S2O6
Sr4MgMn2Cu2(SO3)2,mp-2229452,0.0,3.94345397,0.23676149537223878,"{38: 4, 12: 1, 25: 2, 29: 2, 16: 2, 8: 6}","[8, 12, 16, 25, 29, 38]",86121162252292384,Sr4Mg1Mn2Cu2S2O6
Sr4MgMn2(SO3)2,mp-2228629,0.0,3.01737461,0.11221623875520859,"{38: 4, 12: 1, 25: 2, 16: 2, 8: 6}","[8, 12, 16, 25, 38]",86121162252384,Sr4Mg1Mn2S2O6
Sr4MgFe2Cu2(SO3)2,mp-2229265,0.6109,4.76596363,0.2773677176470457,"{38: 4, 12: 1, 26: 2, 29: 2, 16: 2, 8: 6}","[8, 12, 16, 26, 29, 38]",86121162262292384,Sr4Mg1Fe2Cu2S2O6
Sr4MgFe2(SO3)2,mp-1048638,1.0546000000000002,3.34205233,0.0863904919999996,"{38: 4, 12: 1, 26: 2, 16: 2, 8: 6}","[8, 12, 16, 26, 38]",86121162262384,Sr4Mg1Fe2S2O6
Sr4MgCo2(SO3)2,mp-1048717,0.0,2.82913565,0.22388743174999526,"{38: 4, 12: 1, 27: 2, 16: 2, 8: 6}","[8, 12, 16, 27, 38]",86121162272384,Sr4Mg1Co2S2O6
Sr4MgMn2(ClO3)2,mp-2228751,0.0,4.09282296,0.2369057695555563,"{38: 4, 12: 1, 25: 2, 17: 2, 8: 6}","[8, 12, 17, 25, 38]",86121172252384,Sr4Mg1Mn2Cl2O6
Sr4MgFe2(ClO3)2,mp-2228702,0.0,4.18953847,0.2131522662962988,"{38: 4, 12: 1, 26: 2, 17: 2, 8: 6}","[8, 12, 17, 26, 38]",86121172262384,Sr4Mg1Fe2Cl2O6
Sr2MgTiFeO6,mp-2217649,2.5352,2.79962016,0.2676029381818159,"{38: 2, 12: 1, 22: 1, 26: 1, 8: 6}","[8, 12, 22, 26, 38]",86121221261382,Sr2Mg1Ti1Fe1O6
Sr4MgTiFe2(AsO3)2,mp-1218475,0.0,3.61641349,0.5965362487499979,"{38: 4, 12: 1, 22: 1, 26: 2, 33: 2, 8: 6}","[8, 12, 22, 26, 33, 38]",86121221262332384,Sr4Mg1Ti1Fe2As2O6
Sr2MgTiMoO6,mp-2240169,0.16660000000000075,6.14901778,0.2552016365909191,"{38: 2, 12: 1, 22: 1, 42: 1, 8: 6}","[8, 12, 22, 38, 42]",86121221382421,Sr2Mg1Ti1Mo1O6
Sr2MgTi2O6,mp-2217331,0.0,5.68179964,0.23951425484851008,"{38: 2, 12: 1, 22: 2, 8: 6}","[8, 12, 22, 38]",86121222382,Sr2Mg1Ti2O6
Sr2MgZrVO6,mp-2224177,1.4571000000000005,3.91535095,0.22267673323232895,"{38: 2, 12: 1, 40: 1, 23: 1, 8: 6}","[8, 12, 23, 38, 40]",86121231382401,Sr2Mg1Zr1V1O6
Sr4MgV2Fe2(AsO3)2,mp-2229607,0.0,4.15920882,0.3227884728039241,"{38: 4, 12: 1, 23: 2, 26: 2, 33: 2, 8: 6}","[8, 12, 23, 26, 33, 38]",86121232262332384,Sr4Mg1V2Fe2As2O6
Sr2YMgCrO6,mp-2217900,2.4389000000000003,2.91644028,0.2725720983522715,"{38: 2, 39: 1, 12: 1, 24: 1, 8: 6}","[8, 12, 24, 38, 39]",86121241382391,Sr2Y1Mg1Cr1O6
Sr2MgZrCrO6,mp-2215839,2.4492,2.20079235,0.20138200325757705,"{38: 2, 12: 1, 40: 1, 24: 1, 8: 6}","[8, 12, 24, 38, 40]",86121241382401,Sr2Mg1Zr1Cr1O6
Sr2MgCrSbO6,mp-2225317,0.7321,4.93820283,0.44123706004545227,"{38: 2, 12: 1, 24: 1, 51: 1, 8: 6}","[8, 12, 24, 38, 51]",86121241382511,Sr2Mg1Cr1Sb1O6
Sr2HfMgCrO6,mp-2226857,2.6577,2.69803088,0.20523741848484978,"{38: 2, 72: 1, 12: 1, 24: 1, 8: 6}","[8, 12, 24, 38, 72]",86121241382721,Sr2Hf1Mg1Cr1O6
SrLaMgMnRuO6,mp-2217312,0.0,5.42000048,0.3439426026060577,"{38: 1, 57: 1, 12: 1, 25: 1, 44: 1, 8: 6}","[8, 12, 25, 38, 44, 57]",86121251381441571,Sr1La1Mg1Mn1Ru1O6
Sr2MgZrMnO6,mp-2240158,0.992,3.08163494,0.3030475938636332,"{38: 2, 12: 1, 40: 1, 25: 1, 8: 6}","[8, 12, 25, 38, 40]",86121251382401,Sr2Mg1Zr1Mn1O6
Sr2MgMnMoO6,mp-2217329,1.7067,3.50990684,0.1819583190909082,"{38: 2, 12: 1, 25: 1, 42: 1, 8: 6}","[8, 12, 25, 38, 42]",86121251382421,Sr2Mg1Mn1Mo1O6
Sr2MgMnSbO6,mp-2234081,0.0,4.63587523,0.16064413172726866,"{38: 2, 12: 1, 25: 1, 51: 1, 8: 6}","[8, 12, 25, 38, 51]",86121251382511,Sr2Mg1Mn1Sb1O6
SrLaMgMn2O6,mp-2217867,1.8241999999999994,4.419486,0.21327692793290698,"{38: 1, 57: 1, 12: 1, 25: 2, 8: 6}","[8, 12, 25, 38, 57]",86121252381571,Sr1La1Mg1Mn2O6
Sr2MgFeCoO6,mp-2222850,0.6553,2.83062919,0.2663407972727132,"{38: 2, 12: 1, 26: 1, 27: 1, 8: 6}","[8, 12, 26, 27, 38]",86121261271382,Sr2Mg1Fe1Co1O6
Sr2MgFeMoO6,mp-2222878,1.0972,3.77552837,0.37231099181817484,"{38: 2, 12: 1, 26: 1, 42: 1, 8: 6}","[8, 12, 26, 38, 42]",86121261382421,Sr2Mg1Fe1Mo1O6
Sr2HfMgFeO6,mp-2223125,1.4590999999999998,3.21111174,0.3545661377272751,"{38: 2, 72: 1, 12: 1, 26: 1, 8: 6}","[8, 12, 26, 38, 72]",86121261382721,Sr2Hf1Mg1Fe1O6
Sr2MgFeOsO6,mp-2241076,0.0029000000000003467,4.60378253,0.3650155131818247,"{38: 2, 12: 1, 26: 1, 76: 1, 8: 6}","[8, 12, 26, 38, 76]",86121261382761,Sr2Mg1Fe1Os1O6
Sr4MgFe2(BrO3)2,mp-2228735,0.5238000000000005,3.67059552,0.2995787784814814,"{38: 4, 12: 1, 26: 2, 35: 2, 8: 6}","[8, 12, 26, 35, 38]",86121262352384,Sr4Mg1Fe2Br2O6
Sr3Mg(FeO3)2,mp-2218262,0.7116000000000002,3.52768578,0.17293084874999565,"{38: 3, 12: 1, 26: 2, 8: 6}","[8, 12, 26, 38]",86121262383,Sr3Mg1Fe2O6
Sr2MgZrCoO6,mp-2217759,1.5822000000000003,3.00485916,0.35931094409090747,"{38: 2, 12: 1, 40: 1, 27: 1, 8: 6}","[8, 12, 27, 38, 40]",86121271382401,Sr2Mg1Zr1Co1O6
Sr2MgCoWO6,mp-2215968,1.4182000000000001,3.95470604,0.33883131000000155,"{38: 2, 12: 1, 27: 1, 74: 1, 8: 6}","[8, 12, 27, 38, 74]",86121271382741,Sr2Mg1Co1W1O6
Sr2MgCuMoO6,mp-2240053,1.3873000000000002,3.01181171,0.16390469363636395,"{38: 2, 12: 1, 29: 1, 42: 1, 8: 6}","[8, 12, 29, 38, 42]",86121291382421,Sr2Mg1Cu1Mo1O6
Sr2MgCuTeO6,mp-2226152,0.0,4.81790075,0.2696137563636425,"{38: 2, 12: 1, 29: 1, 52: 1, 8: 6}","[8, 12, 29, 38, 52]",86121291382521,Sr2Mg1Cu1Te1O6
Sr2MgCuWO6,mp-2217957,1.9670999999999998,2.87792698,0.2143080772727517,"{38: 2, 12: 1, 29: 1, 74: 1, 8: 6}","[8, 12, 29, 38, 74]",86121291382741,Sr2Mg1Cu1W1O6
Sr2Mg(Cu2O3)2,mp-2218648,0.0,4.11526847,0.14233981615384117,"{38: 2, 12: 1, 29: 4, 8: 6}","[8, 12, 29, 38]",86121294382,Sr2Mg1Cu4O6
SrLaMgNbZnO6,mp-2240064,1.2946,4.20744728,0.372937130681839,"{38: 1, 57: 1, 12: 1, 41: 1, 30: 1, 8: 6}","[8, 12, 30, 38, 41, 57]",86121301381411571,Sr1La1Mg1Nb1Zn1O6
Sr2MgZnMoO6,mp-2240644,1.7010999999999998,3.57831364,0.09025288181818159,"{38: 2, 12: 1, 30: 1, 42: 1, 8: 6}","[8, 12, 30, 38, 42]",86121301382421,Sr2Mg1Zn1Mo1O6
Sr2MgZnWO6,mp-2217664,2.0879999999999996,3.47833598,0.1831210672727268,"{38: 2, 12: 1, 30: 1, 74: 1, 8: 6}","[8, 12, 30, 38, 74]",86121301382741,Sr2Mg1Zn1W1O6
Sr2MgGaSbO6,mp-2222770,0.11929999999999996,3.88538477,0.3043945014090914,"{38: 2, 12: 1, 31: 1, 51: 1, 8: 6}","[8, 12, 31, 38, 51]",86121311382511,Sr2Mg1Ga1Sb1O6
SrLaMgRuO6,mp-1218208,0.3373999999999997,5.3793323,0.0,"{38: 1, 57: 1, 12: 1, 44: 1, 8: 6}","[8, 12, 38, 44, 57]",86121381441571,Sr1La1Mg1Ru1O6
SrPrMgRuO6,mp-1218058,0.3557000000000001,4.18074273,0.0,"{38: 1, 59: 1, 12: 1, 44: 1, 8: 6}","[8, 12, 38, 44, 59]",86121381441591,Sr1Pr1Mg1Ru1O6
SrNdMgRuO6,mp-1218129,0.3618999999999999,4.11727524,0.0,"{38: 1, 60: 1, 12: 1, 44: 1, 8: 6}","[8, 12, 38, 44, 60]",86121381441601,Sr1Nd1Mg1Ru1O6
SrMg(RuO3)2,mp-2240073,0.0,3.06542312,0.09770945449999857,"{38: 1, 12: 1, 44: 2, 8: 6}","[8, 12, 38, 44]",86121381442,Sr1Mg1Ru2O6
SrMgInWO6,mp-1522468,0.0,4.50545731,0.1763694175000019,"{38: 1, 12: 1, 49: 1, 74: 1, 8: 6}","[8, 12, 38, 49, 74]",86121381491741,Sr1Mg1In1W1O6
SrMgSnWO6,mp-1520140,2.8871999999999995,3.94548883,0.08613016797058481,"{38: 1, 12: 1, 50: 1, 74: 1, 8: 6}","[8, 12, 38, 50, 74]",86121381501741,Sr1Mg1Sn1W1O6
SrMg(SbO3)2,mp-2217402,2.6685,4.00762383,0.17678970587500675,"{38: 1, 12: 1, 51: 2, 8: 6}","[8, 12, 38, 51]",86121381512,Sr1Mg1Sb2O6
BaSrMgTeO6,mp-1227325,1.9918,5.67588635,0.007189313666666308,"{56: 1, 38: 1, 12: 1, 52: 1, 8: 6}","[8, 12, 38, 52, 56]",86121381521561,Ba1Sr1Mg1Te1O6
BaSrMgWO6,mp-1227368,3.2391,5.90027008,0.011706230000005924,"{56: 1, 38: 1, 12: 1, 74: 1, 8: 6}","[8, 12, 38, 56, 74]",86121381561741,Ba1Sr1Mg1W1O6
Ba2SrMgWO6,mp-2240658,1.6472000000000002,3.49920928,0.2687183269696991,"{56: 2, 38: 1, 12: 1, 74: 1, 8: 6}","[8, 12, 38, 56, 74]",86121381562741,Ba2Sr1Mg1W1O6
SrLaMgTaO6,mp-1218203,4.0756000000000006,7.76007728,0.0,"{38: 1, 57: 1, 12: 1, 73: 1, 8: 6}","[8, 12, 38, 57, 73]",86121381571731,Sr1La1Mg1Ta1O6
SrPrMgBiO6,mp-1520420,2.3009999999999997,3.64376597,0.14329896450000135,"{38: 1, 59: 1, 12: 1, 83: 1, 8: 6}","[8, 12, 38, 59, 83]",86121381591831,Sr1Pr1Mg1Bi1O6
SrNdMgWO6,mp-1523147,0.0,6.04970925,0.19084005695832662,"{38: 1, 60: 1, 12: 1, 74: 1, 8: 6}","[8, 12, 38, 60, 74]",86121381601741,Sr1Nd1Mg1W1O6
SrEuMgWO6,mp-1518310,0.35660000000000025,5.66703312,0.015446988000000772,"{38: 1, 63: 1, 12: 1, 74: 1, 8: 6}","[8, 12, 38, 63, 74]",86121381631741,Sr1Eu1Mg1W1O6
SrEuMgBiO6,mp-1521845,0.0,2.99484838,0.1914153836250021,"{38: 1, 63: 1, 12: 1, 83: 1, 8: 6}","[8, 12, 38, 63, 83]",86121381631831,Sr1Eu1Mg1Bi1O6
Sr2YMgSbO6,mp-2224243,2.0281999999999996,2.64791839,0.29745030724999744,"{38: 2, 39: 1, 12: 1, 51: 1, 8: 6}","[8, 12, 38, 39, 51]",86121382391511,Sr2Y1Mg1Sb1O6
Sr2MgMoO6,mp-1078539,2.313,2.85410083,0.0,"{38: 2, 12: 1, 42: 1, 8: 6}","[8, 12, 38, 42]",86121382421,Sr2Mg1Mo1O6
Sr2Mg(MoO3)2,mp-2217968,1.7837999999999994,4.4610195,0.3377397529545405,"{38: 2, 12: 1, 42: 2, 8: 6}","[8, 12, 38, 42]",86121382422,Sr2Mg1Mo2O6
Sr2GdMgRuO6,mp-2217680,0.08070000000000022,3.81530372,0.2781786404545459,"{38: 2, 64: 1, 12: 1, 44: 1, 8: 6}","[8, 12, 38, 44, 64]",86121382441641,Sr2Gd1Mg1Ru1O6
Sr2MgCdWO6,mp-2215923,0.7561,2.9269868,0.36017510090908367,"{38: 2, 12: 1, 48: 1, 74: 1, 8: 6}","[8, 12, 38, 48, 74]",86121382481741,Sr2Mg1Cd1W1O6
Sr2MgTeO6,mp-1078995,2.3417000000000003,3.70947055,0.0,"{38: 2, 12: 1, 52: 1, 8: 6}","[8, 12, 38, 52]",86121382521,Sr2Mg1Te1O6
Sr2MgWO6,mp-19420,3.4286000000000003,2.69146227,0.0,"{38: 2, 12: 1, 74: 1, 8: 6}","[8, 12, 38, 74]",86121382741,Sr2Mg1W1O6
Sr2MgReO6,mp-1078868,0.0,4.79054677,0.0,"{38: 2, 12: 1, 75: 1, 8: 6}","[8, 12, 38, 75]",86121382751,Sr2Mg1Re1O6
Sr2MgOsO6,mp-1078180,0.0,4.22222147,0.0,"{38: 2, 12: 1, 76: 1, 8: 6}","[8, 12, 38, 76]",86121382761,Sr2Mg1Os1O6
Sr2MgIrO6,mp-16307,0.0,3.80587758,0.0,"{38: 2, 12: 1, 77: 1, 8: 6}","[8, 12, 38, 77]",86121382771,Sr2Mg1Ir1O6
Sr2MgUO6,mp-972112,2.1157,3.13903116,0.020405642500001875,"{38: 2, 12: 1, 92: 1, 8: 6}","[8, 12, 38, 92]",86121382921,Sr2Mg1U1O6
Sr3MgRhO6,mp-16984,0.0,3.28223154,0.0,"{38: 3, 12: 1, 45: 1, 8: 6}","[8, 12, 38, 45]",86121383451,Sr3Mg1Rh1O6
Sr3MgIrO6,mp-9454,0.0,4.01112919,0.0,"{38: 3, 12: 1, 77: 1, 8: 6}","[8, 12, 38, 77]",86121383771,Sr3Mg1Ir1O6
Sr3MgPtO6,mp-6064,2.6841000000000004,3.21895893,0.0,"{38: 3, 12: 1, 78: 1, 8: 6}","[8, 12, 38, 78]",86121383781,Sr3Mg1Pt1O6
Sr15Ti23O61,mp-1201432,1.8438999999999999,-0.4472041,0.045174918333332315,"{38: 15, 22: 23, 8: 61}","[8, 22, 38]",86122233815,Sr15Ti23O61
Sr2CeSiO6,mp-1521551,1.763,4.26421076,0.1896901187500024,"{38: 2, 58: 1, 14: 1, 8: 6}","[8, 14, 38, 58]",86141382581,Sr2Ce1Si1O6
SrVPO6,mp-17502,2.1868,1.15503828,0.0,"{38: 1, 23: 1, 15: 1, 8: 6}","[8, 15, 23, 38]",86151231381,Sr1V1P1O6
Sr(PO3)2,mp-3765,5.4627,0.44759215,0.0,"{38: 1, 15: 2, 8: 6}","[8, 15, 38]",86152381,Sr1P2O6
Sr4CaCr2(SO3)2,mp-1048622,2.0054000000000003,2.74297189,0.0898258133333325,"{38: 4, 20: 1, 24: 2, 16: 2, 8: 6}","[8, 16, 20, 24, 38]",86162201242384,Sr4Ca1Cr2S2O6
Sr4CaMn2(SO3)2,mp-1048672,0.0,2.66104178,0.08236675242186298,"{38: 4, 20: 1, 25: 2, 16: 2, 8: 6}","[8, 16, 20, 25, 38]",86162201252384,Sr4Ca1Mn2S2O6
Sr4CaFe2(SO3)2,mp-1048660,0.0,2.30129999,0.3330095788333365,"{38: 4, 20: 1, 26: 2, 16: 2, 8: 6}","[8, 16, 20, 26, 38]",86162201262384,Sr4Ca1Fe2S2O6
Sr4CaCo2(SO3)2,mp-1048650,0.0,2.87589999,0.19719457508332905,"{38: 4, 20: 1, 27: 2, 16: 2, 8: 6}","[8, 16, 20, 27, 38]",86162201272384,Sr4Ca1Co2S2O6
Sr(SO3)2,mp-1189291,0.5427,0.6938383,1.3761236202777756,"{38: 1, 16: 2, 8: 6}","[8, 16, 38]",86162381,Sr1S2O6
SrSb4S7O6,mp-1179436,0.0,2.56358162,0.8786905939043219,"{38: 1, 51: 4, 16: 7, 8: 6}","[8, 16, 38, 51]",86167381514,Sr1Sb4S7O6
Sr4Cu3ClO6,mp-1147678,0.0,4.76913905,0.1870818911904637,"{38: 4, 29: 3, 17: 1, 8: 6}","[8, 17, 29, 38]",86171293384,Sr4Cu3Cl1O6
Sr2CoSe2(ClO3)2,mp-561998,2.1714,1.92042388,0.0,"{38: 2, 27: 1, 34: 2, 17: 2, 8: 6}","[8, 17, 27, 34, 38]",86172271342382,Sr2Co1Se2Cl2O6
Sr2CuSe2(ClO3)2,mp-1193439,0.33840000000000003,2.44423844,0.023854834615389287,"{38: 2, 29: 1, 34: 2, 17: 2, 8: 6}","[8, 17, 29, 34, 38]",86172291342382,Sr2Cu1Se2Cl2O6
SrCu2Se2(ClO3)2,mp-1193551,0.2982,2.05373941,0.0010115338461664791,"{38: 1, 29: 2, 34: 2, 17: 2, 8: 6}","[8, 17, 29, 34, 38]",86172292342381,Sr1Cu2Se2Cl2O6
SrCu2Te2(ClO3)2,mp-556868,0.0,3.40024963,0.0,"{38: 1, 29: 2, 52: 2, 17: 2, 8: 6}","[8, 17, 29, 38, 52]",86172292381522,Sr1Cu2Te2Cl2O6
Sr3Se2(ClO3)2,mp-1218418,4.2893,0.98808422,0.0,"{38: 3, 34: 2, 17: 2, 8: 6}","[8, 17, 34, 38]",86172342383,Sr3Se2Cl2O6
Sr(ClO3)2,mp-28477,5.2387,0.21853985,0.0709495811111136,"{38: 1, 17: 2, 8: 6}","[8, 17, 38]",86172381,Sr1Cl2O6
KSrCaMnO6,mp-1520978,0.0,0.97476988,0.17848381870833396,"{19: 1, 38: 1, 20: 1, 25: 1, 8: 6}","[8, 19, 20, 25, 38]",86191201251381,K1Sr1Ca1Mn1O6
KSrMnSnO6,mp-1520965,0.0,2.72424836,0.15068806037499716,"{19: 1, 38: 1, 25: 1, 50: 1, 8: 6}","[8, 19, 25, 38, 50]",86191251381501,K1Sr1Mn1Sn1O6
KBaSrMnO6,mp-1517145,0.0,0.73494762,0.20103691349999941,"{19: 1, 56: 1, 38: 1, 25: 1, 8: 6}","[8, 19, 25, 38, 56]",86191251381561,K1Ba1Sr1Mn1O6
KSrLaMnO6,mp-1523124,0.0,2.26048932,0.20918042343333276,"{19: 1, 38: 1, 57: 1, 25: 1, 8: 6}","[8, 19, 25, 38, 57]",86191251381571,K1Sr1La1Mn1O6
KSrCeMnO6,mp-1523311,0.0,2.20956359,0.1218712119999914,"{19: 1, 38: 1, 58: 1, 25: 1, 8: 6}","[8, 19, 25, 38, 58]",86191251381581,K1Sr1Ce1Mn1O6
KSrPrMnO6,mp-1519762,0.0,1.19300377,0.18199663243750042,"{19: 1, 38: 1, 59: 1, 25: 1, 8: 6}","[8, 19, 25, 38, 59]",86191251381591,K1Sr1Pr1Mn1O6
KSrNdMnO6,mp-1519497,0.0,1.19910317,0.174224505374994,"{19: 1, 38: 1, 60: 1, 25: 1, 8: 6}","[8, 19, 25, 38, 60]",86191251381601,K1Sr1Nd1Mn1O6
KSrSmMnO6,mp-1520878,0.0,1.0928348,0.16647892906250217,"{19: 1, 38: 1, 62: 1, 25: 1, 8: 6}","[8, 19, 25, 38, 62]",86191251381621,K1Sr1Sm1Mn1O6