formula,material_id,band_gap,efermi,energy_above_hull,comp_atoms,sorted_keys_comp_atoms,comp_number,new_formula
Sr2MgCu(BrO)2,mp-2228100,0.2049000000000003,2.37555962,0.7342586039583319,"{38: 2, 12: 1, 29: 1, 35: 2, 8: 2}","[8, 12, 29, 35, 38]",82121291352382,Sr2Mg1Cu1Br2O2
SrMgCuO2,mp-2240835,0.0,4.72905476,0.8919510439999963,"{38: 1, 12: 1, 29: 1, 8: 2}","[8, 12, 29, 38]",82121291381,Sr1Mg1Cu1O2
Sr2MgCu(IO)2,mp-2224761,0.0,2.97259737,0.7000840337499987,"{38: 2, 12: 1, 29: 1, 53: 2, 8: 2}","[8, 12, 29, 38, 53]",82121291382532,Sr2Mg1Cu1I2O2
SrMgO2,mp-1218182,3.4141999999999997,6.01265826,0.1995885649999991,"{38: 1, 12: 1, 8: 2}","[8, 12, 38]",82121381,Sr1Mg1O2
Sr3Ta4Ti4O21,mp-1218665,2.3331,4.34933433,0.031262879609373684,"{38: 3, 73: 4, 22: 4, 8: 21}","[8, 22, 38, 73]",821224383734,Sr3Ta4Ti4O21
Sr3Ta2Ti6O21,mp-1208814,0.0,1.91533291,0.05713353367188034,"{38: 3, 73: 2, 22: 6, 8: 21}","[8, 22, 38, 73]",821226383732,Sr3Ta2Ti6O21
Sr5Ti8O21,mp-1202462,1.8658000000000001,-0.86574753,0.03990298058823605,"{38: 5, 22: 8, 8: 21}","[8, 22, 38]",821228385,Sr5Ti8O21
Sr4V2(Se2O7)3,mp-1204879,2.7193,0.93223421,0.006858351893943571,"{38: 4, 23: 2, 34: 6, 8: 21}","[8, 23, 34, 38]",821232346384,Sr4V2Se6O21
Sr9Mn5Co2O21,mp-1197208,1.7903999999999995,2.54511747,0.0,"{38: 9, 25: 5, 27: 2, 8: 21}","[8, 25, 27, 38]",821255272389,Sr9Mn5Co2O21
Sr6Y2Co3(Cu2O7)3,mp-1845875,0.0,2.63789915,0.05088366834155966,"{38: 6, 39: 2, 27: 3, 29: 6, 8: 21}","[8, 27, 29, 38, 39]",821273296386392,Sr6Y2Co3Cu6O21
Sr6YGa3(Cu2O7)3,mp-1333973,0.0,1.54638079,0.11435396663851183,"{38: 6, 39: 1, 31: 3, 29: 6, 8: 21}","[8, 29, 31, 38, 39]",821296313386391,Sr6Y1Ga3Cu6O21
Sr6YTl3(Cu2O7)3,mp-1357400,0.0,2.63779491,0.08650929763513915,"{38: 6, 39: 1, 81: 3, 29: 6, 8: 21}","[8, 29, 38, 39, 81]",821296386391813,Sr6Y1Tl3Cu6O21
Sr6Nb7O21,mp-1173080,0.0,4.94387451,0.011350725294018815,"{38: 6, 41: 7, 8: 21}","[8, 38, 41]",821386417,Sr6Nb7O21
Sr7Nb6O21,mp-541049,0.0,4.75157688,0.0,"{38: 7, 41: 6, 8: 21}","[8, 38, 41]",821387416,Sr7Nb6O21
Sr8La3(RuO7)3,mp-684802,0.1979000000000002,3.43991098,0.01211430453571083,"{38: 8, 57: 3, 44: 3, 8: 21}","[8, 38, 44, 57]",821388443573,Sr8La3Ru3O21
Sr2CuSO2,mp-1147582,0.0,3.0711683,0.15657529114583113,"{38: 2, 29: 1, 16: 1, 8: 2}","[8, 16, 29, 38]",82161291382,Sr2Cu1S1O2
Sr6V9(S11O)2,mp-558774,0.0,3.42040611,0.23537106855769263,"{38: 6, 23: 9, 16: 22, 8: 2}","[8, 16, 23, 38]",821622239386,Sr6V9S22O2
Sr2MnCu2(SO)2,mp-551219,0.0,6.3029406,0.08709196909722028,"{38: 2, 25: 1, 29: 2, 16: 2, 8: 2}","[8, 16, 25, 29, 38]",82162251292382,Sr2Mn1Cu2S2O2
BaSrCoCu2(SO)2,mp-1227882,0.0,4.69753781,0.1852253216666666,"{56: 1, 38: 1, 27: 1, 29: 2, 16: 2, 8: 2}","[8, 16, 27, 29, 38, 56]",82162271292381561,Ba1Sr1Co1Cu2S2O2
Sr2CuAg2(SO)2,mp-1094045,0.0,3.55418711,0.15556590337962994,"{38: 2, 29: 1, 47: 2, 16: 2, 8: 2}","[8, 16, 29, 38, 47]",82162291382472,Sr2Cu1Ag2S2O2
Sr2CdCu(SO)2,mp-1232336,1.0777999999999994,3.02379817,0.09293196773437451,"{38: 2, 48: 1, 29: 1, 16: 2, 8: 2}","[8, 16, 29, 38, 48]",82162291382481,Sr2Cd1Cu1S2O2
Sr2Cd2Cu(SO)2,mp-1094069,0.0,3.54721785,0.3092027822222203,"{38: 2, 48: 2, 29: 1, 16: 2, 8: 2}","[8, 16, 29, 38, 48]",82162291382482,Sr2Cd2Cu1S2O2
Sr2ZnCu2(SO)2,mp-9453,0.7614999999999998,4.96225431,0.06846227631944313,"{38: 2, 30: 1, 29: 2, 16: 2, 8: 2}","[8, 16, 29, 30, 38]",82162292301382,Sr2Zn1Cu2S2O2
Sr2Cu3(SO)2,mp-7112,0.0,4.86408923,0.10194815930555379,"{38: 2, 29: 3, 16: 2, 8: 2}","[8, 16, 29, 38]",82162293382,Sr2Cu3S2O2
Sr2CuClO2,mp-561243,2.3842999999999996,2.00849018,0.0,"{38: 2, 29: 1, 17: 1, 8: 2}","[8, 17, 29, 38]",82171291382,Sr2Cu1Cl1O2
SrBiClO2,mp-547244,3.3015,2.33042956,0.0,"{38: 1, 83: 1, 17: 1, 8: 2}","[8, 17, 38, 83]",82171381831,Sr1Bi1Cl1O2
Sr2Co(ClO)2,mp-23130,0.5379000000000005,4.20038511,0.0,"{38: 2, 27: 1, 17: 2, 8: 2}","[8, 17, 27, 38]",82172271382,Sr2Co1Cl2O2
Sr2Cu(ClO)2,mp-23102,0.0,3.0415526,0.0,"{38: 2, 29: 1, 17: 2, 8: 2}","[8, 17, 29, 38]",82172291382,Sr2Cu1Cl2O2
Sr(ClO)2,mp-1091380,0.0,-0.09589506,0.44004089933334534,"{38: 1, 17: 2, 8: 2}","[8, 17, 38]",82172381,Sr1Cl2O2
SrHg2(ClO)2,mp-554351,1.6593999999999998,0.64199131,0.0,"{38: 1, 80: 2, 17: 2, 8: 2}","[8, 17, 38, 80]",82172381802,Sr1Hg2Cl2O2
SrCaO2,mp-1017988,3.0316,1.88542178,0.048859919999999946,"{38: 1, 20: 1, 8: 2}","[8, 20, 38]",82201381,Sr1Ca1O2
Sr6Mg(Te4O11)2,mp-1233312,1.6752000000000002,3.6831179,0.07270699463964103,"{38: 6, 12: 1, 52: 8, 8: 22}","[8, 12, 38, 52]",822121386528,Sr6Mg1Te8O22
SrFe5P5O22,mp-1197366,0.9821999999999997,3.1604183,0.3896816044697138,"{38: 1, 26: 5, 15: 5, 8: 22}","[8, 15, 26, 38]",822155265381,Sr1Fe5P5O22
K2SrTi10O22,mp-1224160,2.6409000000000002,1.45812572,0.005957928214302299,"{19: 2, 38: 1, 22: 10, 8: 22}","[8, 19, 22, 38]",8221922210381,K2Sr1Ti10O22
Sr3Ca5Mn8O22,mp-1247692,0.0,3.0482778,0.08056405533521893,"{38: 3, 20: 5, 25: 8, 8: 22}","[8, 20, 25, 38]",822205258383,Sr3Ca5Mn8O22
SrCa7TiMn7O22,mp-1247577,0.0,3.30893225,0.07582944203947939,"{38: 1, 20: 7, 22: 1, 25: 7, 8: 22}","[8, 20, 22, 25, 38]",822207221257381,Sr1Ca7Ti1Mn7O22
SrCa7Ti2Mn6O22,mp-1247647,0.07319999999999993,3.41692774,0.07455546225878162,"{38: 1, 20: 7, 22: 2, 25: 6, 8: 22}","[8, 20, 22, 25, 38]",822207222256381,Sr1Ca7Ti2Mn6O22
SrCa7Ti3Mn5O22,mp-1247696,0.05790000000000006,3.48467857,0.07368322964912721,"{38: 1, 20: 7, 22: 3, 25: 5, 8: 22}","[8, 20, 22, 25, 38]",822207223255381,Sr1Ca7Ti3Mn5O22
SrCa7Mn7CrO22,mp-1247606,0.0,3.08255178,0.08494380948307168,"{38: 1, 20: 7, 25: 7, 24: 1, 8: 22}","[8, 20, 24, 25, 38]",822207241257381,Sr1Ca7Mn7Cr1O22
SrCa7Mn6Cr2O22,mp-1247571,0.0,3.26013886,0.09858590343043971,"{38: 1, 20: 7, 25: 6, 24: 2, 8: 22}","[8, 20, 24, 25, 38]",822207242256381,Sr1Ca7Mn6Cr2O22
SrCa7Mn8O22,mp-1268192,0.0,3.13709324,0.07466577007518449,"{38: 1, 20: 7, 25: 8, 8: 22}","[8, 20, 25, 38]",822207258381,Sr1Ca7Mn8O22
SrLa7Ti4(Cu2O11)2,mp-1173180,0.0,6.99744388,0.11462621769737247,"{38: 1, 57: 7, 22: 4, 29: 4, 8: 22}","[8, 22, 29, 38, 57]",822224294381577,Sr1La7Ti4Cu4O22
Ba2Sr6Ti7MnO22,mp-1246044,0.0,4.71294292,0.07707654044917867,"{56: 2, 38: 6, 22: 7, 25: 1, 8: 22}","[8, 22, 25, 38, 56]",822227251386562,Ba2Sr6Ti7Mn1O22
SrU2Cr2O22,mp-1179407,0.0,-0.56845609,0.5279361164351863,"{38: 1, 92: 2, 24: 2, 8: 22}","[8, 24, 38, 92]",822242381922,Sr1U2Cr2O22
Sr6Y3Fe(Cu4O11)2,mp-1218669,0.0,3.55596113,0.02415373485304695,"{38: 6, 39: 3, 26: 1, 29: 8, 8: 22}","[8, 26, 29, 38, 39]",822261298386393,Sr6Y3Fe1Cu8O22
SrCrO2,mp-1218326,0.0,4.09160333,0.034490880833331516,"{38: 1, 24: 1, 8: 2}","[8, 24, 38]",82241381,Sr1Cr1O2
Sr2MnZn2(AsO)2,mp-862748,0.0,4.06802312,0.00046830499999828135,"{38: 2, 25: 1, 30: 2, 33: 2, 8: 2}","[8, 25, 30, 33, 38]",82251302332382,Sr2Mn1Zn2As2O2
Sr2Mn2Cu(AsO)2,mp-1218747,0.0,4.21953317,0.035786533333332926,"{38: 2, 25: 2, 29: 1, 33: 2, 8: 2}","[8, 25, 29, 33, 38]",82252291332382,Sr2Mn2Cu1As2O2
Sr2Mn3(AsO)2,mp-19060,0.0,4.11210518,0.06723576356321814,"{38: 2, 25: 3, 33: 2, 8: 2}","[8, 25, 33, 38]",82253332382,Sr2Mn3As2O2
Sr2Mn3(SbO)2,mp-19246,0.0,4.66728864,0.08664882022988252,"{38: 2, 25: 3, 51: 2, 8: 2}","[8, 25, 38, 51]",82253382512,Sr2Mn3Sb2O2
Sr2Mn3(BiO)2,mp-546629,0.0,4.49046013,0.17473864957854257,"{38: 2, 25: 3, 83: 2, 8: 2}","[8, 25, 38, 83]",82253382832,Sr2Mn3Bi2O2
SrFeO2,mp-21145,0.0,4.0156048,0.013639907500008874,"{38: 1, 26: 1, 8: 2}","[8, 26, 38]",82261381,Sr1Fe1O2
Sr2CoSeO2,mp-1147648,0.3422999999999998,4.02890709,0.07842385111111216,"{38: 2, 27: 1, 34: 1, 8: 2}","[8, 27, 34, 38]",82271341382,Sr2Co1Se1O2
Sr2Co(BrO)2,mp-23114,0.3275000000000001,3.7994372,0.0,"{38: 2, 27: 1, 35: 2, 8: 2}","[8, 27, 35, 38]",82271352382,Sr2Co1Br2O2
Sr2CuSeO2,mp-1147580,0.0,2.97214679,0.049632639166667936,"{38: 2, 29: 1, 34: 1, 8: 2}","[8, 29, 34, 38]",82291341382,Sr2Cu1Se1O2
Sr2CuBrO2,mp-552537,2.3439,1.87359774,0.0,"{38: 2, 29: 1, 35: 1, 8: 2}","[8, 29, 35, 38]",82291351382,Sr2Cu1Br1O2
Sr2Cu(BrO)2,mp-546898,0.0,1.83369883,0.0,"{38: 2, 29: 1, 35: 2, 8: 2}","[8, 29, 35, 38]",82291352382,Sr2Cu1Br2O2
SrCuO2,mp-37514,0.0,2.93997034,0.0,"{38: 1, 29: 1, 8: 2}","[8, 29, 38]",82291381,Sr1Cu1O2
Sr2CuTeO2,mp-1147703,0.3849999999999998,3.97579334,0.10021210645833278,"{38: 2, 29: 1, 52: 1, 8: 2}","[8, 29, 38, 52]",82291382521,Sr2Cu1Te1O2
Sr2Cu(IO)2,mp-549487,0.0,2.39316584,0.0,"{38: 2, 29: 1, 53: 2, 8: 2}","[8, 29, 38, 53]",82291382532,Sr2Cu1I2O2
Sr2CuPtO2,mp-1147555,0.4958,3.00266769,0.48731462166666706,"{38: 2, 29: 1, 78: 1, 8: 2}","[8, 29, 38, 78]",82291382781,Sr2Cu1Pt1O2
Sr4CuO2,mp-1208819,0.0,1.84463713,0.5528706122619038,"{38: 4, 29: 1, 8: 2}","[8, 29, 38]",82291384,Sr4Cu1O2
Sr(CuO)2,mp-13900,1.2409999999999997,3.53728514,0.015367509999995477,"{38: 1, 29: 2, 8: 2}","[8, 29, 38]",82292381,Sr1Cu2O2
SrZnO2,mp-5637,2.0793,1.68935523,0.0,"{38: 1, 30: 1, 8: 2}","[8, 30, 38]",82301381,Sr1Zn1O2
Sr2Zn3(AsO)2,mp-1205966,0.6225999999999998,4.01122459,0.00024153388888947802,"{38: 2, 30: 3, 33: 2, 8: 2}","[8, 30, 33, 38]",82303332382,Sr2Zn3As2O2
Sr3Ca5Mn8O23,mp-1247625,0.0,3.29330262,0.0555307954120865,"{38: 3, 20: 5, 25: 8, 8: 23}","[8, 20, 25, 38]",823205258383,Sr3Ca5Mn8O23
Sr2Ca6Mn8O23,mp-1247627,0.0,3.30411315,0.06252016627899337,"{38: 2, 20: 6, 25: 8, 8: 23}","[8, 20, 25, 38]",823206258382,Sr2Ca6Mn8O23
SrCa7TiMn7O23,mp-1247726,0.0,3.4996124,0.05911258450854451,"{38: 1, 20: 7, 22: 1, 25: 7, 8: 23}","[8, 20, 22, 25, 38]",823207221257381,Sr1Ca7Ti1Mn7O23
SrCa7Ti2Mn6O23,mp-1247584,0.0,3.51877974,0.05603479459401495,"{38: 1, 20: 7, 22: 2, 25: 6, 8: 23}","[8, 20, 22, 25, 38]",823207222256381,Sr1Ca7Ti2Mn6O23
SrCa7Ti3Mn5O23,mp-1247639,0.0,3.60861896,0.05142423346154246,"{38: 1, 20: 7, 22: 3, 25: 5, 8: 23}","[8, 20, 22, 25, 38]",823207223255381,Sr1Ca7Ti3Mn5O23
SrCa7Mn7CrO23,mp-1247601,0.0,3.19250199,0.07252464079973997,"{38: 1, 20: 7, 25: 7, 24: 1, 8: 23}","[8, 20, 24, 25, 38]",823207241257381,Sr1Ca7Mn7Cr1O23
SrCa7Mn6Cr2O23,mp-1247633,0.0,3.5663918,0.08020963381257928,"{38: 1, 20: 7, 25: 6, 24: 2, 8: 23}","[8, 20, 24, 25, 38]",823207242256381,Sr1Ca7Mn6Cr2O23
SrCa7Mn8O23,mp-1247632,0.0,3.12213497,0.06470896329974973,"{38: 1, 20: 7, 25: 8, 8: 23}","[8, 20, 25, 38]",823207258381,Sr1Ca7Mn8O23
Sr5Ti9O23,mp-1197010,1.8845,-0.89415704,0.07554577945946583,"{38: 5, 22: 9, 8: 23}","[8, 22, 38]",823229385,Sr5Ti9O23
Sr4Mn2Nb4Bi4O23,mp-1218621,0.0,4.74996289,0.07216878245945324,"{38: 4, 25: 2, 41: 4, 83: 4, 8: 23}","[8, 25, 38, 41, 83]",823252384414834,Sr4Mn2Nb4Bi4O23
Sr12Mn6O23,mp-764995,0.0,2.69343693,0.001496499146353969,"{38: 12, 25: 6, 8: 23}","[8, 25, 38]",8232563812,Sr12Mn6O23
Sr8Fe4Co4O23,mp-1218682,0.0,2.72870622,0.030382952207371083,"{38: 8, 26: 4, 27: 4, 8: 23}","[8, 26, 27, 38]",823264274388,Sr8Fe4Co4O23
Sr8Fe8O23,mp-19004,0.0,2.53943407,0.0006412341025656687,"{38: 8, 26: 8, 8: 23}","[8, 26, 38]",823268388,Sr8Fe8O23
Sr8Co8O23,mp-565434,0.0,2.85557023,0.048626985965673164,"{38: 8, 27: 8, 8: 23}","[8, 27, 38]",823278388,Sr8Co8O23
Sr16Cu8O23,mp-759634,0.1748000000000003,3.63504747,0.015736644255321508,"{38: 16, 29: 8, 8: 23}","[8, 29, 38]",8232983816,Sr16Cu8O23
Sr2Sb2Se3O2,mp-1105180,0.7681999999999998,4.74813281,0.0,"{38: 2, 51: 2, 34: 3, 8: 2}","[8, 34, 38, 51]",82343382512,Sr2Sb2Se3O2
Sr2Bi2Se3O2,mp-1986938,1.3867000000000003,4.39269467,0.0,"{38: 2, 83: 2, 34: 3, 8: 2}","[8, 34, 38, 83]",82343382832,Sr2Bi2Se3O2
SrBiBrO2,mp-552234,3.1643,2.21391863,0.0,"{38: 1, 83: 1, 35: 1, 8: 2}","[8, 35, 38, 83]",82351381831,Sr1Bi1Br1O2
SrO2,mp-2697,2.8495000000000004,2.59636997,0.0,"{38: 1, 8: 2}","[8, 38]",82381,Sr1O2
SrMoO2,mp-1208650,0.41800000000000015,4.03290914,0.3964464524999993,"{38: 1, 42: 1, 8: 2}","[8, 38, 42]",82381421,Sr1Mo1O2
SrAgO2,mp-997086,0.34230000000000005,1.72912724,0.0,"{38: 1, 47: 1, 8: 2}","[8, 38, 47]",82381471,Sr1Ag1O2
SrCdO2,mp-1018032,0.018199999999999994,1.41558634,0.028113617499999854,"{38: 1, 48: 1, 8: 2}","[8, 38, 48]",82381481,Sr1Cd1O2
SrBiIO2,mp-552547,2.8642999999999996,2.83122816,0.0,"{38: 1, 83: 1, 53: 1, 8: 2}","[8, 38, 53, 83]",82381531831,Sr1Bi1I1O2
Sr(IO)2,mp-1189257,0.9267000000000001,2.64249,0.3969987383333331,"{38: 1, 53: 2, 8: 2}","[8, 38, 53]",82381532,Sr1I2O2
BaSrO2,mp-1227311,2.5671999999999997,1.63649496,0.02617651749999972,"{56: 1, 38: 1, 8: 2}","[8, 38, 56]",82381561,Ba1Sr1O2
SrEuO2,mp-755714,0.0,4.55953414,0.017670722500000124,"{38: 1, 63: 1, 8: 2}","[8, 38, 63]",82381631,Sr1Eu1O2
SrWO2,mp-1208617,0.0,4.33509884,0.8139769606250002,"{38: 1, 74: 1, 8: 2}","[8, 38, 74]",82381741,Sr1W1O2
SrReO2,mp-1208656,0.0,4.91637702,0.8322889633173078,"{38: 1, 75: 1, 8: 2}","[8, 38, 75]",82381751,Sr1Re1O2
SrOsO2,mp-1208673,0.0,4.57535555,0.69758779817308,"{38: 1, 76: 1, 8: 2}","[8, 38, 76]",82381761,Sr1Os1O2
SrAuO2,mp-997094,1.1977000000000002,2.31123413,0.031812447083328976,"{38: 1, 79: 1, 8: 2}","[8, 38, 79]",82381791,Sr1Au1O2
SrHgO2,mp-665922,2.1978,0.26823515,0.0,"{38: 1, 80: 1, 8: 2}","[8, 38, 80]",82381801,Sr1Hg1O2
Sr8MgZn4(WO6)4,mp-2217005,2.2531,3.10676201,0.09987346804877273,"{38: 8, 12: 1, 30: 4, 74: 4, 8: 24}","[8, 12, 30, 38, 74]",824121304388744,Sr8Mg1Zn4W4O24
Ba3Sr2Ca4Mg3(SiO4)6,mp-1228617,4.8935,7.47173331,0.013995061071445214,"{56: 3, 38: 2, 20: 4, 12: 3, 14: 6, 8: 24}","[8, 12, 14, 20, 38, 56]",824123146204382563,Ba3Sr2Ca4Mg3Si6O24
Sr8Mg3Fe(MoO6)4,mp-744025,9.999999999976694e-05,5.01076445,0.0007229486041664401,"{38: 8, 12: 3, 26: 1, 42: 4, 8: 24}","[8, 12, 26, 38, 42]",824123261388424,Sr8Mg3Fe1Mo4O24
Sr10P6SO24,mp-17447,3.5439999999999996,2.51422987,0.0,"{38: 10, 15: 6, 16: 1, 8: 24}","[8, 15, 16, 38]",8241561613810,Sr10P6S1O24
Sr10P6BrClO24,mp-1218891,4.9959999999999996,6.5926985,0.0017033927380953884,"{38: 10, 15: 6, 35: 1, 17: 1, 8: 24}","[8, 15, 17, 35, 38]",8241561713513810,Sr10P6Br1Cl1O24
Sr5Ca5P6(ClO12)2,mp-1218624,5.1742,1.84319111,0.0057897460119047395,"{38: 5, 20: 5, 15: 6, 17: 2, 8: 24}","[8, 15, 17, 20, 38]",824156172205385,Sr5Ca5P6Cl2O24
SrTi4(PO4)6,mp-17298,2.7819,0.70627477,0.0,"{38: 1, 22: 4, 15: 6, 8: 24}","[8, 15, 22, 38]",824156224381,Sr1Ti4P6O24
Sr2Fe3Sb(PO4)6,mp-1218841,2.3111,1.46548267,0.00456946222222232,"{38: 2, 26: 3, 51: 1, 15: 6, 8: 24}","[8, 15, 26, 38, 51]",824156263382511,Sr2Fe3Sb1P6O24
SrZr4(PO4)6,mp-555580,4.0517,0.07537256,0.0,"{38: 1, 40: 4, 15: 6, 8: 24}","[8, 15, 38, 40]",824156381404,Sr1Zr4P6O24
SrMn5(SO4)6,mp-554634,4.639,1.31144306,0.0,"{38: 1, 25: 5, 16: 6, 8: 24}","[8, 16, 25, 38]",824166255381,Sr1Mn5S6O24
K2SrTh2(MoO4)6,mp-1195516,0.0,3.98323414,0.029636166374993778,"{19: 2, 38: 1, 90: 2, 42: 6, 8: 24}","[8, 19, 38, 42, 90]",824192381426902,K2Sr1Th2Mo6O24
Sr7CaTi3Mn5O24,mp-1076827,0.0,3.04980885,0.03433538808334813,"{38: 7, 20: 1, 22: 3, 25: 5, 8: 24}","[8, 20, 22, 25, 38]",824201223255387,Sr7Ca1Ti3Mn5O24
Sr7CaTi5Mn3O24,mp-1075948,0.0,3.15442037,0.02057631158333173,"{38: 7, 20: 1, 22: 5, 25: 3, 8: 24}","[8, 20, 22, 25, 38]",824201225253387,Sr7Ca1Ti5Mn3O24
Sr7CaTi7MnO24,mp-1076570,1.0789,4.38255638,0.013274633166664884,"{38: 7, 20: 1, 22: 7, 25: 1, 8: 24}","[8, 20, 22, 25, 38]",824201227251387,Sr7Ca1Ti7Mn1O24
Sr7CaTi8O24,mp-1075922,1.7713999999999999,3.27308967,0.009415460687497657,"{38: 7, 20: 1, 22: 8, 8: 24}","[8, 20, 22, 38]",824201228387,Sr7Ca1Ti8O24
Sr7CaMnFe7O24,mp-1099701,0.0,2.76354817,0.013698306666666049,"{38: 7, 20: 1, 25: 1, 26: 7, 8: 24}","[8, 20, 25, 26, 38]",824201251267387,Sr7Ca1Mn1Fe7O24
Sr7CaMn2(FeO4)6,mp-1076597,0.0,2.74899231,0.02055503131250891,"{38: 7, 20: 1, 25: 2, 26: 6, 8: 24}","[8, 20, 25, 26, 38]",824201252266387,Sr7Ca1Mn2Fe6O24
Sr7CaMn3Fe5O24,mp-1076651,0.0,2.8378854,0.025708979010418354,"{38: 7, 20: 1, 25: 3, 26: 5, 8: 24}","[8, 20, 25, 26, 38]",824201253265387,Sr7Ca1Mn3Fe5O24
Sr7CaMn4(FeO6)4,mp-1099713,0.0,2.75176491,0.027926462572917643,"{38: 7, 20: 1, 25: 4, 26: 4, 8: 24}","[8, 20, 25, 26, 38]",824201254264387,Sr7Ca1Mn4Fe4O24
Sr7CaFe4(CoO6)4,mp-1076747,0.0,2.89401221,0.03813478590624886,"{38: 7, 20: 1, 26: 4, 27: 4, 8: 24}","[8, 20, 26, 27, 38]",824201264274387,Sr7Ca1Fe4Co4O24
Sr7CaFe5(CoO8)3,mp-1076062,0.0,2.88970881,0.029999175531247424,"{38: 7, 20: 1, 26: 5, 27: 3, 8: 24}","[8, 20, 26, 27, 38]",824201265273387,Sr7Ca1Fe5Co3O24
Sr7CaFe6(CoO12)2,mp-1076372,0.0,2.76537631,0.024869737375001755,"{38: 7, 20: 1, 26: 6, 27: 2, 8: 24}","[8, 20, 26, 27, 38]",824201266272387,Sr7Ca1Fe6Co2O24
Sr7CaFe7CoO24,mp-1076858,0.0,2.86327266,0.017678370583327663,"{38: 7, 20: 1, 26: 7, 27: 1, 8: 24}","[8, 20, 26, 27, 38]",824201267271387,Sr7Ca1Fe7Co1O24
Sr8CaCu4(ReO8)3,mp-21652,0.0,3.58432341,0.08153055062500236,"{38: 8, 20: 1, 29: 4, 75: 3, 8: 24}","[8, 20, 29, 38, 75]",824201294388753,Sr8Ca1Cu4Re3O24
Ba8Sr3Ca(WO6)4,mp-1228515,3.434,5.20362104,0.004121629000006344,"{56: 8, 38: 3, 20: 1, 74: 4, 8: 24}","[8, 20, 38, 56, 74]",824201383568744,Ba8Sr3Ca1W4O24
Sr6Ca2MnFe7O24,mp-1075969,0.0,2.80904785,0.021256775729172617,"{38: 6, 20: 2, 25: 1, 26: 7, 8: 24}","[8, 20, 25, 26, 38]",824202251267386,Sr6Ca2Mn1Fe7O24
Sr6Ca2Mn3Fe5O24,mp-1077670,0.0,2.81297904,0.03673581625000555,"{38: 6, 20: 2, 25: 3, 26: 5, 8: 24}","[8, 20, 25, 26, 38]",824202253265386,Sr6Ca2Mn3Fe5O24
Sr6Ca2Mn5(FeO8)3,mp-1077671,0.0,2.85996825,0.04937270745832567,"{38: 6, 20: 2, 25: 5, 26: 3, 8: 24}","[8, 20, 25, 26, 38]",824202255263386,Sr6Ca2Mn5Fe3O24
Sr6Ca2Fe3Co5O24,mp-1076805,0.0,2.92162959,0.047532984250035604,"{38: 6, 20: 2, 26: 3, 27: 5, 8: 24}","[8, 20, 26, 27, 38]",824202263275386,Sr6Ca2Fe3Co5O24
Sr6Ca2Fe5(CoO8)3,mp-1076457,0.0,2.92701221,0.0386006610000047,"{38: 6, 20: 2, 26: 5, 27: 3, 8: 24}","[8, 20, 26, 27, 38]",824202265273386,Sr6Ca2Fe5Co3O24
Sr6Ca2Fe7CoO24,mp-1076399,0.0,2.79980448,0.02399139464582678,"{38: 6, 20: 2, 26: 7, 27: 1, 8: 24}","[8, 20, 26, 27, 38]",824202267271386,Sr6Ca2Fe7Co1O24
Sr6Ca2Co5(CuO8)3,mp-1075901,0.0,2.89068356,0.0811921743906252,"{38: 6, 20: 2, 27: 5, 29: 3, 8: 24}","[8, 20, 27, 29, 38]",824202275293386,Sr6Ca2Co5Cu3O24
Sr6Ca2Co7CuO24,mp-1076741,0.0,2.99947848,0.07087005717187367,"{38: 6, 20: 2, 27: 7, 29: 1, 8: 24}","[8, 20, 27, 29, 38]",824202277291386,Sr6Ca2Co7Cu1O24
Sr5Ca3TiMn7O24,mp-1075976,0.0,3.11040047,0.0676383367499831,"{38: 5, 20: 3, 22: 1, 25: 7, 8: 24}","[8, 20, 22, 25, 38]",824203221257385,Sr5Ca3Ti1Mn7O24
Sr5Ca3Ti3Mn5O24,mp-1075962,0.0,3.14480488,0.052159556392851414,"{38: 5, 20: 3, 22: 3, 25: 5, 8: 24}","[8, 20, 22, 25, 38]",824203223255385,Sr5Ca3Ti3Mn5O24
Sr5Ca3Ti5Mn3O24,mp-1077659,0.0,3.24913098,0.039925356500001286,"{38: 5, 20: 3, 22: 5, 25: 3, 8: 24}","[8, 20, 22, 25, 38]",824203225253385,Sr5Ca3Ti5Mn3O24
Sr5Ca3MnFe7O24,mp-1076079,0.0,2.85097162,0.026850635666672673,"{38: 5, 20: 3, 25: 1, 26: 7, 8: 24}","[8, 20, 25, 26, 38]",824203251267385,Sr5Ca3Mn1Fe7O24
Sr5Ca3Mn4(FeO6)4,mp-1076796,0.0,2.8667392,0.049758655416646036,"{38: 5, 20: 3, 25: 4, 26: 4, 8: 24}","[8, 20, 25, 26, 38]",824203254264385,Sr5Ca3Mn4Fe4O24
Sr5Ca3Mn6(FeO12)2,mp-1099603,0.0,2.94868344,0.06553853518750508,"{38: 5, 20: 3, 25: 6, 26: 2, 8: 24}","[8, 20, 25, 26, 38]",824203256262385,Sr5Ca3Mn6Fe2O24
Sr5Ca3Mn7FeO24,mp-1076080,0.0,2.9676545,0.07143865915624392,"{38: 5, 20: 3, 25: 7, 26: 1, 8: 24}","[8, 20, 25, 26, 38]",824203257261385,Sr5Ca3Mn7Fe1O24
Sr5Ca3FeCo7O24,mp-1076107,0.0,3.08773801,0.060450601625003486,"{38: 5, 20: 3, 26: 1, 27: 7, 8: 24}","[8, 20, 26, 27, 38]",824203261277385,Sr5Ca3Fe1Co7O24
Sr5Ca3Fe2(CoO4)6,mp-1076260,0.0,2.98203496,0.0643241176250351,"{38: 5, 20: 3, 26: 2, 27: 6, 8: 24}","[8, 20, 26, 27, 38]",824203262276385,Sr5Ca3Fe2Co6O24
Sr5Ca3Fe7CoO24,mp-1075955,0.0,2.95115021,0.030964127083326076,"{38: 5, 20: 3, 26: 7, 27: 1, 8: 24}","[8, 20, 26, 27, 38]",824203267271385,Sr5Ca3Fe7Co1O24
Ba8SrCa3(WO6)4,mp-1228251,3.3661999999999996,1.91088038,0.003913418999998974,"{56: 8, 38: 1, 20: 3, 74: 4, 8: 24}","[8, 20, 38, 56, 74]",824203381568744,Ba8Sr1Ca3W4O24
Sr4Ca4TiMn7O24,mp-1076561,0.0,3.17534605,0.07652230738095422,"{38: 4, 20: 4, 22: 1, 25: 7, 8: 24}","[8, 20, 22, 25, 38]",824204221257384,Sr4Ca4Ti1Mn7O24
Sr4Ca4Mn5(FeO8)3,mp-1076058,0.0,2.96513684,0.06780341633331233,"{38: 4, 20: 4, 25: 5, 26: 3, 8: 24}","[8, 20, 25, 26, 38]",824204255263384,Sr4Ca4Mn5Fe3O24
Sr4Ca4Mn7FeO24,mp-1076359,0.0,3.03360497,0.08168693092857016,"{38: 4, 20: 4, 25: 7, 26: 1, 8: 24}","[8, 20, 25, 26, 38]",824204257261384,Sr4Ca4Mn7Fe1O24