formula,material_id,band_gap,efermi,energy_above_hull,comp_atoms,sorted_keys_comp_atoms,comp_number,new_formula
Sr2Mg3H10,mp-707440,2.8642000000000003,0.93572821,0.0027838159999995504,"{38: 2, 12: 3, 1: 10}","[1, 12, 38]",110123382,Sr2Mg3H10
SrPH10S3O5,mp-1201697,3.266,3.77834091,0.024947000312483425,"{38: 1, 15: 1, 1: 10, 16: 3, 8: 5}","[1, 8, 15, 16, 38]",11085151163381,Sr1P1H10S3O5
SrSn2H10Cl6O5,mp-1198973,3.8478000000000003,4.14616952,0.011126573854165933,"{38: 1, 50: 2, 1: 10, 17: 6, 8: 5}","[1, 8, 17, 38, 50]",11085176381502,Sr1Sn2H10Cl6O5
SrSn2H10Br6O5,mp-1202840,2.9101,0.16743164,0.033459206499999006,"{38: 1, 50: 2, 1: 10, 35: 6, 8: 5}","[1, 8, 35, 38, 50]",11085356381502,Sr1Sn2H10Br6O5
SrH10Pb2Br6O5,mp-1198495,3.5797999999999996,-0.00175909,0.010854310666666755,"{38: 1, 1: 10, 82: 2, 35: 6, 8: 5}","[1, 8, 35, 38, 82]",11085356381822,Sr1H10Pb2Br6O5
SrH10(SO4)2,mp-697285,4.1852,-0.08468756,0.059061978720238884,"{38: 1, 1: 10, 16: 2, 8: 8}","[1, 8, 16, 38]",11088162381,Sr1H10S2O8
Na10SrSn12,mp-30253,0.6698,3.19596981,0.0,"{11: 10, 38: 1, 50: 12}","[11, 38, 50]",11103815012,Na10Sr1Sn12
NaSr2Mg,mp-1096360,0.0,-1.98483706,1.1756115984051725,"{11: 1, 38: 2, 12: 1}","[11, 12, 38]",111121382,Na1Sr2Mg1
NaSrMg14,mp-1026674,0.0,2.80155133,0.10364741866379323,"{11: 1, 38: 1, 12: 14}","[11, 12, 38]",1111214381,Na1Sr1Mg14
NaSrMg6,mp-1017360,0.0,2.52850487,0.1469142354525863,"{11: 1, 38: 1, 12: 6}","[11, 12, 38]",111126381,Na1Sr1Mg6
NaSrP,mp-13275,1.2357,2.58578418,0.0,"{11: 1, 38: 1, 15: 1}","[11, 15, 38]",111151381,Na1Sr1P1
NaSr2Ca,mp-1097635,0.0,-1.97273818,1.2382424325287342,"{11: 1, 38: 2, 20: 1}","[11, 20, 38]",111201382,Na1Sr2Ca1
NaSr4(FeAs)10,mp-1221018,0.0,4.90748329,0.0007855384000006183,"{11: 1, 38: 4, 26: 10, 33: 10}","[11, 26, 33, 38]",11126103310384,Na1Sr4Fe10As10
NaSr2(FeAs)6,mp-1220955,0.0,4.72403269,0.0,"{11: 1, 38: 2, 26: 6, 33: 6}","[11, 26, 33, 38]",111266336382,Na1Sr2Fe6As6
NaSrAs,mp-9775,0.8069999999999999,2.28034198,0.0,"{11: 1, 38: 1, 33: 1}","[11, 33, 38]",111331381,Na1Sr1As1
Na(SrAs)4,mp-1210697,0.0,2.93563902,0.03443548648148109,"{11: 1, 38: 4, 33: 4}","[11, 33, 38]",111334384,Na1Sr4As4
NaSr2(SnAs)6,mp-1220888,0.0,4.89329388,0.0,"{11: 1, 38: 2, 50: 6, 33: 6}","[11, 33, 38, 50]",111336382506,Na1Sr2Sn6As6
NaSrNb2,mp-631481,0.0,2.98260933,1.5750217241954019,"{11: 1, 38: 1, 41: 2}","[11, 38, 41]",111381412,Na1Sr1Nb2
NaSrRe2,mp-631534,0.0,3.24923661,2.046538816695403,"{11: 1, 38: 1, 75: 2}","[11, 38, 75]",111381752,Na1Sr1Re2
NaSrAu2,mp-865121,0.0,2.69844943,0.026257758000003406,"{11: 1, 38: 1, 79: 2}","[11, 38, 79]",111381792,Na1Sr1Au2
NaSrHg2,mp-977115,0.0,2.16981892,0.007105399375001653,"{11: 1, 38: 1, 80: 2}","[11, 38, 80]",111381802,Na1Sr1Hg2
NaSrTl2,mp-1186171,0.0,3.70328281,0.016682664218752308,"{11: 1, 38: 1, 81: 2}","[11, 38, 81]",111381812,Na1Sr1Tl2
NaSrPb2,mp-1096204,0.13560000000000016,-2.92693383,1.43958024921875,"{11: 1, 38: 1, 82: 2}","[11, 38, 82]",111381822,Na1Sr1Pb2
NaSr2Cd,mp-1097194,0.0,-1.9367389,1.1362429029885057,"{11: 1, 38: 2, 48: 1}","[11, 38, 48]",111382481,Na1Sr2Cd1
NaSr2In,mp-865124,0.0,2.60843458,0.02359369910370246,"{11: 1, 38: 2, 49: 1}","[11, 38, 49]",111382491,Na1Sr2In1
NaSr2Tl,mp-865128,0.0,2.64845423,0.0,"{11: 1, 38: 2, 81: 1}","[11, 38, 81]",111382811,Na1Sr2Tl1
NaSr3,mp-1186184,0.0,1.25929134,0.06914578374999714,"{11: 1, 38: 3}","[11, 38]",111383,Na1Sr3
SrHCl,mp-23860,4.044700000000001,0.97004124,0.0,"{38: 1, 1: 1, 17: 1}","[1, 17, 38]",11171381,Sr1H1Cl1
Sr2HCl2,mp-1208855,0.0,-1.85535009,1.0635191729999973,"{38: 2, 1: 1, 17: 2}","[1, 17, 38]",11172382,Sr2H1Cl2
Na2Sr3P4,mp-1221315,0.9320999999999997,4.32928589,0.0,"{11: 2, 38: 3, 15: 4}","[11, 15, 38]",112154383,Na2Sr3P4
Sr7(H6Cl)2,mp-23827,3.8615000000000004,0.4686263,0.0,"{38: 7, 1: 12, 17: 2}","[1, 17, 38]",112172387,Sr7H12Cl2
Na2SrCa,mp-1097085,0.37229999999999985,-2.21388166,0.954622665057471,"{11: 2, 38: 1, 20: 1}","[11, 20, 38]",112201381,Na2Sr1Ca1
Na2SrFe,mp-631880,0.0,1.63337742,0.6664503993103446,"{11: 2, 38: 1, 26: 1}","[11, 26, 38]",112261381,Na2Sr1Fe1
Na2Sr3As4,mp-1221310,0.5438999999999998,2.80498865,0.0,"{11: 2, 38: 3, 33: 4}","[11, 33, 38]",112334383,Na2Sr3As4
Sr7(H6Br)2,mp-23828,3.7026000000000003,0.46862854,0.0,"{38: 7, 1: 12, 35: 2}","[1, 35, 38]",112352387,Sr7H12Br2
Na2SrSn4,mp-1104604,0.0,4.54661756,0.0,"{11: 2, 38: 1, 50: 4}","[11, 38, 50]",112381504,Na2Sr1Sn4
BaNa2Sr,mp-1097658,0.2492000000000003,-2.03818162,0.9821832956968394,"{56: 1, 11: 2, 38: 1}","[11, 38, 56]",112381561,Ba1Na2Sr1
Sr3Fe2(HO)12,mp-744565,0.0,-1.03339186,1.12414433422415,"{38: 3, 26: 2, 1: 12, 8: 12}","[1, 8, 26, 38]",112812262383,Sr3Fe2H12O12
SrH12(ClO3)2,mp-23885,5.0515,-1.84875031,0.01846242738094972,"{38: 1, 1: 12, 17: 2, 8: 6}","[1, 8, 17, 38]",11286172381,Sr1H12Cl2O6
SrGaGeH,mp-978847,0.29579999999999984,3.73690702,0.0,"{38: 1, 31: 1, 32: 1, 1: 1}","[1, 31, 32, 38]",11311321381,Sr1Ga1Ge1H1
SrGaSnH,mp-978852,0.4150999999999998,4.20085945,0.0,"{38: 1, 31: 1, 50: 1, 1: 1}","[1, 31, 38, 50]",11311381501,Sr1Ga1Sn1H1
Na3Sr3GaP4,mp-10096,0.7466999999999997,2.53242617,0.0,"{11: 3, 38: 3, 31: 1, 15: 4}","[11, 15, 31, 38]",113154311383,Na3Sr3Ga1P4
Na3Sr3GaAs4,mp-10097,0.4377,2.3094313,0.0,"{11: 3, 38: 3, 31: 1, 33: 4}","[11, 31, 33, 38]",113311334383,Na3Sr3Ga1As4
Na3Sr3GaSb4,mp-1210275,0.3066,3.33814065,0.0,"{11: 3, 38: 3, 31: 1, 51: 4}","[11, 31, 38, 51]",113311383514,Na3Sr3Ga1Sb4
Sr5As3H,mp-24338,0.6763999999999997,3.27276349,0.0,"{38: 5, 33: 3, 1: 1}","[1, 33, 38]",11333385,Sr5As3H1
SrHBr,mp-24423,3.8297000000000003,0.82899039,0.0,"{38: 1, 1: 1, 35: 1}","[1, 35, 38]",11351381,Sr1H1Br1
Sr2HBr2,mp-1208831,0.0,-2.26687529,1.009549631833334,"{38: 2, 1: 1, 35: 2}","[1, 35, 38]",11352382,Sr2H1Br2
SrHI,mp-24205,3.5902,1.29622408,0.0,"{38: 1, 1: 1, 53: 1}","[1, 38, 53]",11381531,Sr1H1I1
Sr2HI2,mp-1208947,0.6430000000000002,-2.93762955,1.6128198752499965,"{38: 2, 1: 1, 53: 2}","[1, 38, 53]",11382532,Sr2H1I2
Sr3H,mp-1187129,0.0,1.26621757,0.6813100642708321,"{38: 3, 1: 1}","[1, 38]",11383,Sr3H1
Na4Sr2TiP4,mp-1221155,1.3214,3.29031982,0.0,"{11: 4, 38: 2, 22: 1, 15: 4}","[11, 15, 22, 38]",114154221382,Na4Sr2Ti1P4
Na4Sr2TiAs4,mp-1221156,1.2088999999999999,2.84541164,0.0,"{11: 4, 38: 2, 22: 1, 33: 4}","[11, 22, 33, 38]",114221334382,Na4Sr2Ti1As4
Na5SrNbP4,mp-1220783,1.3189,3.10585782,0.0,"{11: 5, 38: 1, 41: 1, 15: 4}","[11, 15, 38, 41]",115154381411,Na5Sr1Nb1P4
Na5SrTaP4,mp-1220774,1.3769,1.75753238,0.0,"{11: 5, 38: 1, 73: 1, 15: 4}","[11, 15, 38, 73]",115154381731,Na5Sr1Ta1P4
Na5SrNbAs4,mp-1220796,1.1672999999999998,2.63827653,0.0,"{11: 5, 38: 1, 41: 1, 33: 4}","[11, 33, 38, 41]",115334381411,Na5Sr1Nb1As4
SrP3H15(N2O5)2,mp-1203893,4.9154,-0.34677314,0.08535761290583643,"{38: 1, 15: 3, 1: 15, 7: 4, 8: 10}","[1, 7, 8, 15, 38]",11574810153381,Sr1P3H15N4O10
Sr(H8O5)2,mp-625801,3.4245,-0.89652288,0.0,"{38: 1, 1: 16, 8: 10}","[1, 8, 38]",116810381,Sr1H16O10
KSrAs(H4O3)4,mp-703559,4.3016,-1.54701569,0.0,"{19: 1, 38: 1, 33: 1, 1: 16, 8: 12}","[1, 8, 19, 33, 38]",116812191331381,K1Sr1As1H16O12
Na2SrP2H16(S3O4)2,mp-1200274,3.2413,0.4920881,0.008976718250001348,"{11: 2, 38: 1, 15: 2, 1: 16, 16: 6, 8: 8}","[1, 8, 11, 15, 16, 38]",11688112152166381,Na2Sr1P2H16S6O8
SrCd2H16(Cl3O4)2,mp-759862,3.742,-1.25646217,0.06228247484848559,"{38: 1, 48: 2, 1: 16, 17: 6, 8: 8}","[1, 8, 17, 38, 48]",11688176381482,Sr1Cd2H16Cl6O8
SrCd2H16(Br3O4)2,mp-761745,2.528,-0.85194813,0.04532160374242444,"{38: 1, 48: 2, 1: 16, 35: 6, 8: 8}","[1, 8, 35, 38, 48]",11688356381482,Sr1Cd2H16Br6O8
SrHN,mp-1187172,2.0279,2.19572015,0.0,"{38: 1, 1: 1, 7: 1}","[1, 7, 38]",1171381,Sr1H1N1
Sr2HN,mp-690794,1.8058,1.97406357,0.0,"{38: 2, 1: 1, 7: 1}","[1, 7, 38]",1171382,Sr2H1N1
NaSr6H17Pd2O17,mp-1221694,1.5143999999999997,1.7127194,0.015139206550395023,"{11: 1, 38: 6, 1: 17, 46: 2, 8: 17}","[1, 8, 11, 38, 46]",117817111386462,Na1Sr6H17Pd2O17
SrHClO,mp-24066,4.9798,-0.64674216,0.0,"{38: 1, 1: 1, 17: 1, 8: 1}","[1, 8, 17, 38]",1181171381,Sr1H1Cl1O1
Sr5V3HO13,mp-1218711,3.9935000000000005,4.11775518,0.0,"{38: 5, 23: 3, 1: 1, 8: 13}","[1, 8, 23, 38]",11813233385,Sr5V3H1O13
SrHBrO,mp-1080045,4.3214,-0.66151995,0.0,"{38: 1, 1: 1, 35: 1, 8: 1}","[1, 8, 35, 38]",1181351381,Sr1H1Br1O1
SrHIO,mp-643385,3.7424999999999997,1.38751267,0.0,"{38: 1, 1: 1, 53: 1, 8: 1}","[1, 8, 38, 53]",1181381531,Sr1H1I1O1
SrFe3P4HO16,mp-746739,2.3865,1.18506695,0.006548621500001239,"{38: 1, 26: 3, 15: 4, 1: 1, 8: 16}","[1, 8, 15, 26, 38]",11816154263381,Sr1Fe3P4H1O16
Sr5As5HO18,mp-709350,3.5738,0.80574146,0.0,"{38: 5, 33: 5, 1: 1, 8: 18}","[1, 8, 33, 38]",11818335385,Sr5As5H1O18
SrCrHO2,mp-1218324,0.5556000000000001,3.04671421,0.0,"{38: 1, 24: 1, 1: 1, 8: 2}","[1, 8, 24, 38]",1182241381,Sr1Cr1H1O2
SrPHO4,mp-735022,5.2019,1.08241141,0.0006354130357300036,"{38: 1, 15: 1, 1: 1, 8: 4}","[1, 8, 15, 38]",1184151381,Sr1P1H1O4
SrVCuHO5,mp-1195252,0.5335000000000001,2.48773162,0.009078631111231417,"{38: 1, 23: 1, 29: 1, 1: 1, 8: 5}","[1, 8, 23, 29, 38]",1185231291381,Sr1V1Cu1H1O5
SrCoAsHO5,mp-1194871,1.9987000000000004,2.10598859,0.0,"{38: 1, 27: 1, 33: 1, 1: 1, 8: 5}","[1, 8, 27, 33, 38]",1185271331381,Sr1Co1As1H1O5
SrZnAsHO5,mp-1195266,2.6572000000000005,1.27468875,0.0,"{38: 1, 30: 1, 33: 1, 1: 1, 8: 5}","[1, 8, 30, 33, 38]",1185301331381,Sr1Zn1As1H1O5
SrH(IO3)2,mp-1208664,3.1479,4.57667751,0.3705764171458341,"{38: 1, 1: 1, 53: 2, 8: 6}","[1, 8, 38, 53]",1186381532,Sr1H1I2O6
Sr3TaHO6,mp-1103663,3.5420999999999996,0.98183765,0.058113772272726294,"{38: 3, 73: 1, 1: 1, 8: 6}","[1, 8, 38, 73]",1186383731,Sr3Ta1H1O6
Sr(H9O5)2,mp-24312,4.9945,-1.73115421,0.002432895862066964,"{38: 1, 1: 18, 8: 10}","[1, 8, 38]",118810381,Sr1H18O10
NaSrPH18SO12,mp-1201060,4.0609,-0.57314689,0.018524370581835647,"{11: 1, 38: 1, 15: 1, 1: 18, 16: 1, 8: 12}","[1, 8, 11, 15, 16, 38]",118812111151161381,Na1Sr1P1H18S1O12
Sr2SnH18(SeO3)4,mp-1198097,0.8187999999999998,1.50138372,0.0,"{38: 2, 50: 1, 1: 18, 34: 4, 8: 12}","[1, 8, 34, 38, 50]",118812344382501,Sr2Sn1H18Se4O12
SrH18Cl2O17,mp-1202849,5.1602,-1.58548762,0.011077471743421441,"{38: 1, 1: 18, 17: 2, 8: 17}","[1, 8, 17, 38]",118817172381,Sr1H18Cl2O17
Sr2V3HO9,mp-1192478,1.9588999999999999,1.84930488,0.0,"{38: 2, 23: 3, 1: 1, 8: 9}","[1, 8, 23, 38]",1189233382,Sr2V3H1O9
Sr2Mg(TiS3)2,mp-2222905,0.0,5.03353556,0.13487161318181595,"{38: 2, 12: 1, 22: 2, 16: 6}","[12, 16, 22, 38]",121166222382,Sr2Mg1Ti2S6
SrMgGe,mp-15643,0.026900000000000368,3.22584409,0.0,"{38: 1, 12: 1, 32: 1}","[12, 32, 38]",121321381,Sr1Mg1Ge1
SrMg,mp-2564,0.0,2.07068536,0.016734022499999668,"{38: 1, 12: 1}","[12, 38]",121381,Sr1Mg1
SrMgCd2,mp-1095766,0.2513000000000001,-2.11275627,1.2545862850000011,"{38: 1, 12: 1, 48: 2}","[12, 38, 48]",121381482,Sr1Mg1Cd2
SrMgIn3,mp-571443,0.0,5.39220055,0.0,"{38: 1, 12: 1, 49: 3}","[12, 38, 49]",121381493,Sr1Mg1In3
SrMgSn,mp-30780,0.0,4.38282263,0.0,"{38: 1, 12: 1, 50: 1}","[12, 38, 50]",121381501,Sr1Mg1Sn1
SrMgPt,mp-1103033,0.0,3.84395306,0.0,"{38: 1, 12: 1, 78: 1}","[12, 38, 78]",121381781,Sr1Mg1Pt1
SrMgHg2,mp-1187185,0.0,3.02153745,0.005129312249998685,"{38: 1, 12: 1, 80: 2}","[12, 38, 80]",121381802,Sr1Mg1Hg2
SrMgTl2,mp-867172,0.0,4.85849165,0.0,"{38: 1, 12: 1, 81: 2}","[12, 38, 81]",121381812,Sr1Mg1Tl2
SrMgPb,mp-1103314,0.0,4.29436533,0.0,"{38: 1, 12: 1, 82: 1}","[12, 38, 82]",121381821,Sr1Mg1Pb1
SrMgPb2,mp-1093825,0.4216000000000002,-2.66333998,1.5018872537499985,"{38: 1, 12: 1, 82: 2}","[12, 38, 82]",121381822,Sr1Mg1Pb2
Sr2Mg,mp-1187100,0.0,1.8734629,0.015657395000000518,"{38: 2, 12: 1}","[12, 38]",121382,Sr2Mg1
Sr2MgCd,mp-1093736,0.3408000000000002,-2.03675678,1.355015403125,"{38: 2, 12: 1, 48: 1}","[12, 38, 48]",121382481,Sr2Mg1Cd1
Sr2MgIn,mp-1187121,0.0,3.03584265,6.554831801386385e-05,"{38: 2, 12: 1, 49: 1}","[12, 38, 49]",121382491,Sr2Mg1In1
Sr2MgHg,mp-1095841,0.45599999999999996,-2.00052312,1.334952578749999,"{38: 2, 12: 1, 80: 1}","[12, 38, 80]",121382801,Sr2Mg1Hg1
Sr2MgTl,mp-1187092,0.0,3.08710187,0.0,"{38: 2, 12: 1, 81: 1}","[12, 38, 81]",121382811,Sr2Mg1Tl1
Sr2MgPb,mp-1095810,0.011600000000000055,-1.9346564,1.626748306250001,"{38: 2, 12: 1, 82: 1}","[12, 38, 82]",121382821,Sr2Mg1Pb1
Sr3Mg,mp-1094297,0.0,1.76573398,0.06713983874999974,"{38: 3, 12: 1}","[12, 38]",121383,Sr3Mg1
Sr5Mg,mp-1094372,0.0,1.5400005,0.05603348083333315,"{38: 5, 12: 1}","[12, 38]",121385,Sr5Mg1
KSrMg14,mp-1026844,0.0,2.64243692,0.1541445551718752,"{19: 1, 38: 1, 12: 14}","[12, 19, 38]",1214191381,K1Sr1Mg14
SrCaMg14,mp-1028189,0.0,2.92446409,0.09151506906249995,"{38: 1, 20: 1, 12: 14}","[12, 20, 38]",1214201381,Sr1Ca1Mg14
SrMg14Ti,mp-1026443,0.0,3.20354746,0.1408275354166666,"{38: 1, 12: 14, 22: 1}","[12, 22, 38]",1214221381,Sr1Mg14Ti1
SrMg14V,mp-1028309,0.0,3.17208572,0.16944686812499987,"{38: 1, 12: 14, 23: 1}","[12, 23, 38]",1214231381,Sr1Mg14V1
SrMg14Cr,mp-1026596,0.0,3.18769852,0.15946731312499995,"{38: 1, 12: 14, 24: 1}","[12, 24, 38]",1214241381,Sr1Mg14Cr1
SrMg14Mn,mp-1028062,0.0,3.11706264,0.1392857938793104,"{38: 1, 12: 14, 25: 1}","[12, 25, 38]",1214251381,Sr1Mg14Mn1
SrMg14Fe,mp-1099092,0.0,3.24104406,0.16761169312500002,"{38: 1, 12: 14, 26: 1}","[12, 26, 38]",1214261381,Sr1Mg14Fe1
SrMg14Co,mp-1028418,0.0,3.09290054,0.14730058218749997,"{38: 1, 12: 14, 27: 1}","[12, 27, 38]",1214271381,Sr1Mg14Co1
SrMg14Cu,mp-1026891,0.0,3.22009318,0.10941488265624999,"{38: 1, 12: 14, 29: 1}","[12, 29, 38]",1214291381,Sr1Mg14Cu1
SrMg14Zn,mp-1028004,0.0,3.05983552,0.08657190546875015,"{38: 1, 12: 14, 30: 1}","[12, 30, 38]",1214301381,Sr1Mg14Zn1
SrMg14Ga,mp-1026623,0.0,3.19122753,0.08710979531250018,"{38: 1, 12: 14, 31: 1}","[12, 31, 38]",1214311381,Sr1Mg14Ga1
RbSrMg14,mp-1026650,0.0,2.58151912,0.18452126328125007,"{37: 1, 38: 1, 12: 14}","[12, 37, 38]",1214371381,Rb1Sr1Mg14
SrYMg14,mp-1028049,0.0,3.05345325,0.08797006906249982,"{38: 1, 39: 1, 12: 14}","[12, 38, 39]",1214381391,Sr1Y1Mg14
SrMg14Zr,mp-1027848,0.0,3.22624039,0.11075154750000027,"{38: 1, 12: 14, 40: 1}","[12, 38, 40]",1214381401,Sr1Mg14Zr1
SrMg14Nb,mp-1026571,0.0,3.31826381,0.17455936437499986,"{38: 1, 12: 14, 41: 1}","[12, 38, 41]",1214381411,Sr1Mg14Nb1
SrMg14Mo,mp-1026582,0.0,3.35320297,0.20368447125000033,"{38: 1, 12: 14, 42: 1}","[12, 38, 42]",1214381421,Sr1Mg14Mo1
SrMg14Cd,mp-1026583,0.0,3.04264608,0.08478809562500023,"{38: 1, 12: 14, 48: 1}","[12, 38, 48]",1214381481,Sr1Mg14Cd1
SrMg14Sn,mp-1028287,0.0,3.61956136,0.11414185078125061,"{38: 1, 12: 14, 50: 1}","[12, 38, 50]",1214381501,Sr1Mg14Sn1
SrMg14Sb,mp-1026577,0.0,3.58311911,0.12905725183035677,"{38: 1, 12: 14, 51: 1}","[12, 38, 51]",1214381511,Sr1Mg14Sb1
CsSrMg14,mp-1026616,0.0,2.95480563,0.21521068689655176,"{55: 1, 38: 1, 12: 14}","[12, 38, 55]",1214381551,Cs1Sr1Mg14
BaSrMg14,mp-1026569,0.0,2.76524177,0.13219314578124997,"{56: 1, 38: 1, 12: 14}","[12, 38, 56]",1214381561,Ba1Sr1Mg14
SrLaMg14,mp-1026763,0.0,3.38280345,0.10354507156249992,"{38: 1, 57: 1, 12: 14}","[12, 38, 57]",1214381571,Sr1La1Mg14
SrCeMg14,mp-1026736,0.0,3.44535819,0.10568496406249972,"{38: 1, 58: 1, 12: 14}","[12, 38, 58]",1214381581,Sr1Ce1Mg14
SrHfMg14,mp-1026536,0.0,3.23429765,0.13478271187500024,"{38: 1, 72: 1, 12: 14}","[12, 38, 72]",1214381721,Sr1Hf1Mg14
SrMg14W,mp-1026570,0.0,3.36099112,0.2518033981250003,"{38: 1, 12: 14, 74: 1}","[12, 38, 74]",1214381741,Sr1Mg14W1
SrMg14Bi,mp-1026580,0.0,3.47902486,0.11919878779017812,"{38: 1, 12: 14, 83: 1}","[12, 38, 83]",1214381831,Sr1Mg14Bi1
SrMg149,mp-1188044,0.47029999999999994,3.24021144,0.00877267110000024,"{38: 1, 12: 149}","[12, 38]",12149381,Sr1Mg149
SrMg15,mp-1023511,0.0,3.02641333,0.08724788218750001,"{38: 1, 12: 15}","[12, 38]",1215381,Sr1Mg15
Sr2Mg17,mp-1116,0.0,2.92904397,0.023332300263158468,"{38: 2, 12: 17}","[12, 38]",1217382,Sr2Mg17
Sr5Mg19Ge12,mp-1197892,0.0,3.50324802,0.0,"{38: 5, 12: 19, 32: 12}","[12, 32, 38]",12193212385,Sr5Mg19Ge12
SrCaMg2,mp-1093909,0.05259999999999998,-1.86219891,1.4621773637499995,"{38: 1, 20: 1, 12: 2}","[12, 20, 38]",122201381,Sr1Ca1Mg2
Sr(MgAs)2,mp-863260,1.3464000000000005,2.83524461,0.0,"{38: 1, 12: 2, 33: 2}","[12, 33, 38]",122332381,Sr1Mg2As2
Sr6Mg23,mp-30782,0.0,2.67449887,0.0022167174137930346,"{38: 6, 12: 23}","[12, 38]",1223386,Sr6Mg23
SrMg2,mp-2572,0.0,2.47773506,0.0,"{38: 1, 12: 2}","[12, 38]",122381,Sr1Mg2
SrMg2Pd,mp-1079853,0.0,3.11828558,0.0,"{38: 1, 12: 2, 46: 1}","[12, 38, 46]",122381461,Sr1Mg2Pd1
Sr(MgIn)2,mp-1208897,0.0,4.18203457,0.007736219000001654,"{38: 1, 12: 2, 49: 2}","[12, 38, 49]",122381492,Sr1Mg2In2
Sr(MgSb)2,mp-9566,0.9813000000000001,3.8032946,0.0,"{38: 1, 12: 2, 51: 2}","[12, 38, 51]",122381512,Sr1Mg2Sb2
BaSrMg2,mp-1093634,0.010399999999999965,-1.8021708,1.4352911624999998,"{56: 1, 38: 1, 12: 2}","[12, 38, 56]",122381561,Ba1Sr1Mg2
SrLaMg2,mp-1096613,0.0051000000000001044,-1.78857153,1.8591285831250006,"{38: 1, 57: 1, 12: 2}","[12, 38, 57]",122381571,Sr1La1Mg2
Sr(MgBi)2,mp-1069695,0.3824000000000001,3.13872413,0.0,"{38: 1, 12: 2, 83: 2}","[12, 38, 83]",122381832,Sr1Mg2Bi2
Sr(GaH)2,mp-978854,0.0,3.38354325,0.0,"{38: 1, 31: 2, 1: 2}","[1, 31, 38]",12312381,Sr1Ga2H2
SrMg3,mp-971944,0.0,2.69819484,0.06553898124999957,"{38: 1, 12: 3}","[12, 38]",123381,Sr1Mg3
Sr2Mg3In5,mp-1218786,0.0,4.67979293,0.01724783999999957,"{38: 2, 12: 3, 49: 5}","[12, 38, 49]",123382495,Sr2Mg3In5
SrH2,mp-23714,3.1544,0.06396751,0.0,"{38: 1, 1: 2}","[1, 38]",12381,Sr1H2
Sr9Mg38,mp-30783,0.0,2.65412348,0.010154846170212561,"{38: 9, 12: 38}","[12, 38]",1238389,Sr9Mg38
SrMg4,mp-567526,0.0,2.45198555,0.04522772922222229,"{38: 1, 12: 4}","[12, 38]",124381,Sr1Mg4
SrFeBP2(HO5)2,mp-1202358,2.4455999999999998,1.46274352,0.007665416143809445,"{38: 1, 26: 1, 5: 1, 15: 2, 1: 2, 8: 10}","[1, 5, 8, 15, 26, 38]",1251810152261381,Sr1Fe1B1P2H2O10
SrMg5,mp-981214,0.0,2.69642431,0.024427177500000008,"{38: 1, 12: 5}","[12, 38]",125381,Sr1Mg5
Sr6Mg7H26,mp-699151,2.8261000000000003,0.91716582,0.004130842564102455,"{38: 6, 12: 7, 1: 26}","[1, 12, 38]",126127386,Sr6Mg7H26
KSrMg6,mp-1021302,0.0,2.30296398,0.23432614096875026,"{19: 1, 38: 1, 12: 6}","[12, 19, 38]",126191381,K1Sr1Mg6
SrCaMg6,mp-1023239,0.0,2.62945054,0.060083106874999626,"{38: 1, 20: 1, 12: 6}","[12, 20, 38]",126201381,Sr1Ca1Mg6
SrMg6Ti,mp-1021478,0.0,3.23899726,0.1720202108333333,"{38: 1, 12: 6, 22: 1}","[12, 22, 38]",126221381,Sr1Mg6Ti1
SrMg6V,mp-1021716,0.0,3.07860593,0.3028287537499996,"{38: 1, 12: 6, 23: 1}","[12, 23, 38]",126231381,Sr1Mg6V1
SrMg6Cr,mp-1016300,0.0,2.9908915,0.27790393999999985,"{38: 1, 12: 6, 24: 1}","[12, 24, 38]",126241381,Sr1Mg6Cr1
SrMg6Mn,mp-1023063,0.0,3.34422561,0.25928156088362053,"{38: 1, 12: 6, 25: 1}","[12, 25, 38]",126251381,Sr1Mg6Mn1
SrMg6Fe,mp-1099279,0.0,2.99013869,0.28449174124999965,"{38: 1, 12: 6, 26: 1}","[12, 26, 38]",126261381,Sr1Mg6Fe1
SrMg6Co,mp-1022451,0.0,2.89389259,0.23697218062499958,"{38: 1, 12: 6, 27: 1}","[12, 27, 38]",126271381,Sr1Mg6Co1
SrMg6Cu,mp-1022174,0.0,2.96574758,0.1470507153124998,"{38: 1, 12: 6, 29: 1}","[12, 29, 38]",126291381,Sr1Mg6Cu1
SrMg6Zn,mp-1022677,0.0,2.74931328,0.10900485156250017,"{38: 1, 12: 6, 30: 1}","[12, 30, 38]",126301381,Sr1Mg6Zn1
SrMg6Ga,mp-1016442,0.0,2.82203494,0.1201454768750001,"{38: 1, 12: 6, 31: 1}","[12, 31, 38]",126311381,Sr1Mg6Ga1
RbSrMg6,mp-1017292,0.0,2.1503484,0.2517285659374999,"{37: 1, 38: 1, 12: 6}","[12, 37, 38]",126371381,Rb1Sr1Mg6
SrYMg6,mp-1022805,0.0,2.86316929,0.05511444437499957,"{38: 1, 39: 1, 12: 6}","[12, 38, 39]",126381391,Sr1Y1Mg6
SrMg6Zr,mp-2828768,0.0,2.92605315,0.1128655150000002,"{38: 1, 12: 6, 40: 1}","[12, 38, 40]",126381401,Sr1Mg6Zr1
SrMg6Nb,mp-1016329,0.0,3.14691172,0.21817046000000007,"{38: 1, 12: 6, 41: 1}","[12, 38, 41]",126381411,Sr1Mg6Nb1
SrMg6Mo,mp-1016296,0.0,3.49416208,0.26515842874999995,"{38: 1, 12: 6, 42: 1}","[12, 38, 42]",126381421,Sr1Mg6Mo1
SrMg6Cd,mp-1016322,0.0,2.84125507,0.11755914750000018,"{38: 1, 12: 6, 48: 1}","[12, 38, 48]",126381481,Sr1Mg6Cd1
SrMg6Sn,mp-1021395,0.0,3.63784835,0.19157498281250085,"{38: 1, 12: 6, 50: 1}","[12, 38, 50]",126381501,Sr1Mg6Sn1
SrMg6Sb,mp-1016353,0.0,3.72936036,0.21756790303571405,"{38: 1, 12: 6, 51: 1}","[12, 38, 51]",126381511,Sr1Mg6Sb1